 vasp.6.3.2 27Jun22 (build Oct 25 2024 11:36:28) complex                        
  
 executed on             LinuxIFC date 2025.09.09  15:16:10
 running on   90 total cores
 distrk:  each k-point on   90 cores,    1 groups
 distr:  one band on NCORE=  10 cores,    9 groups


--------------------------------------------------------------------------------------------------------


 INCAR:
   SYSTEM = 065_red
   ISTART = 1
   ICHARG = 2
   INIWAV = 1
   LHFCALC = .TRUE.
   HFSCREEN = 0.2
   NELM = 500
   ALGO = Damped
   ISPIN = 2
   EDIFF = 1E-05
   ISMEAR = 0
   SIGMA = 0.05
   PREC = accurate
   ENCUT = 500
   LREAL = auto  	
   LDIAG = .FALSE.
   LWAVE = .TRUE.
   LCHARG = .FALSE.
   LAECHG = .FALSE.
   LVHAR = .FALSE.
   LVTOT = .FALSE.
   EDIFFG = -0.02
   IBRION = 2
   NSW = 0
   ISIF = 2
   POTIM = 0.5
   IVDW = 12
   VDW_A1 = 0.383
   VDW_S8 = 2.310
   VDW_A2 = 5.685
   LPLANE = .TRUE.
   NCORE = 10
   LSCALU = .FALSE.
   NSIM = 4
   LSOL = .TRUE.
   ISOL = 2
   R_SOLV = 2.1900
   EPSILON_INF = 1.8069
   N_MOL = 0.0115
   P_MOL = 0.82
   EB_K = 35.6880

 POTCAR:    PAW_PBE C 08Apr2002                   
 POTCAR:    PAW_PBE N 08Apr2002                   
 POTCAR:    PAW_PBE O 08Apr2002                   
 POTCAR:    PAW_PBE H 15Jun2001                   
 -----------------------------------------------------------------------------
|                                                                             |
|           W    W    AA    RRRRR   N    N  II  N    N   GGGG   !!!           |
|           W    W   A  A   R    R  NN   N  II  NN   N  G    G  !!!           |
|           W    W  A    A  R    R  N N  N  II  N N  N  G       !!!           |
|           W WW W  AAAAAA  RRRRR   N  N N  II  N  N N  G  GGG   !            |
|           WW  WW  A    A  R   R   N   NN  II  N   NN  G    G                |
|           W    W  A    A  R    R  N    N  II  N    N   GGGG   !!!           |
|                                                                             |
|     You use a magnetic or noncollinear calculation, but did not specify     |
|     the initial magnetic moment with the MAGMOM tag. Note that a            |
|     default of 1 will be used for all atoms. This ferromagnetic setup       |
|     may break the symmetry of the crystal, in particular it may rule        |
|     out finding an antiferromagnetic solution. Thence, we recommend         |
|     setting the initial magnetic moment manually or verifying carefully     |
|     that this magnetic setup is desired.                                    |
|                                                                             |
 -----------------------------------------------------------------------------

 POTCAR:    PAW_PBE C 08Apr2002                   
   SHA256 =  253f7b50bb8d59471dbedb8285d89021f4a42ed1a2c5d38a03a736e69125dd95 C/POTCAR              
   COPYR  = (c) Copyright 08Apr2002 Georg Kresse                                                    
   COPYR  = This file is part of the software VASP. Any use, copying, and all other rights are regul
   COPYR  = If you do not have a valid VASP license, you may not use, copy or distribute this file. 
   VRHFIN =C: s2p2                                                                                  
   LEXCH  = PE                                                                                      
   EATOM  =   147.1560 eV,   10.8157 Ry                                                             
                                                                                                    
   TITEL  = PAW_PBE C 08Apr2002                                                                     
   LULTRA =        F    use ultrasoft PP ?                                                          
   IUNSCR =        1    unscreen: 0-lin 1-nonlin 2-no                                               
   RPACOR =    1.200    partial core radius                                                         
   POMASS =   12.011; ZVAL   =    4.000    mass and valenz                                          
   RCORE  =    1.500    outmost cutoff radius                                                       
   RWIGS  =    1.630; RWIGS  =    0.863    wigner-seitz radius (au A)                               
   ENMAX  =  400.000; ENMIN  =  300.000 eV                                                          
   ICORE  =        2    local potential                                                             
   LCOR   =        T    correct aug charges                                                         
   LPAW   =        T    paw PP                                                                      
   EAUG   =  644.873                                                                                
   DEXC   =    0.000                                                                                
   RMAX   =    1.529    core radius for proj-oper                                                   
   RAUG   =    1.300    factor for augmentation sphere                                              
   RDEP   =    1.501    radius for radial grids                                                     
   RDEPT  =    1.300    core radius for aug-charge                                                  
                                                                                                    
   Atomic configuration                                                                             
    4 entries                                                                                       
     n  l   j            E        occ.                                                              
     1  0  0.50      -273.3789   2.0000                                                             
     2  0  0.50       -13.7508   2.0000                                                             
     2  1  0.50        -5.2854   2.0000                                                             
     3  2  1.50        -5.4423   0.0000                                                             
   Description                                                                                      
     l       E           TYP  RCUT    TYP  RCUT                                                     
     0    -13.7508458     23  1.200                                                                 
     0     -8.2022199     23  1.200                                                                 
     1     -5.2854383     23  1.500                                                                 
     1     34.0145650     23  1.500                                                                 
     2     -5.4423304      7  1.500                                                                 
  local pseudopotential read in
  partial core-charges read in
  partial kinetic energy density read in
  atomic valenz-charges read in
  non local Contribution for L=           0  read in
    real space projection operators read in
  non local Contribution for L=           0  read in
    real space projection operators read in
  non local Contribution for L=           1  read in
    real space projection operators read in
  non local Contribution for L=           1  read in
    real space projection operators read in
    PAW grid and wavefunctions read in
 
   number of l-projection  operators is LMAX  =           4
   number of lm-projection operators is LMMAX =           8
 
 POTCAR:    PAW_PBE N 08Apr2002                   
   SHA256 =  e053789ff3a61a86a1b75d8a110fcc91f86041011e7b0817c7c99e4e8a6349d7 N/POTCAR              
   COPYR  = (c) Copyright 08Apr2002 Georg Kresse                                                    
   COPYR  = This file is part of the software VASP. Any use, copying, and all other rights are regul
   COPYR  = If you do not have a valid VASP license, you may not use, copy or distribute this file. 
   VRHFIN =N: s2p3                                                                                  
   LEXCH  = PE                                                                                      
   EATOM  =   264.5486 eV,   19.4438 Ry                                                             
                                                                                                    
   TITEL  = PAW_PBE N 08Apr2002                                                                     
   LULTRA =        F    use ultrasoft PP ?                                                          
   IUNSCR =        1    unscreen: 0-lin 1-nonlin 2-no                                               
   RPACOR =    1.200    partial core radius                                                         
   POMASS =   14.001; ZVAL   =    5.000    mass and valenz                                          
   RCORE  =    1.500    outmost cutoff radius                                                       
   RWIGS  =    1.400; RWIGS  =    0.741    wigner-seitz radius (au A)                               
   ENMAX  =  400.000; ENMIN  =  300.000 eV                                                          
   ICORE  =        2    local potential                                                             
   LCOR   =        T    correct aug charges                                                         
   LPAW   =        T    paw PP                                                                      
   EAUG   =  627.112                                                                                
   DEXC   =    0.000                                                                                
   RMAX   =    1.529    core radius for proj-oper                                                   
   RAUG   =    1.300    factor for augmentation sphere                                              
   RDEP   =    1.514    radius for radial grids                                                     
   RDEPT  =    1.338    core radius for aug-charge                                                  
                                                                                                    
   Atomic configuration                                                                             
    4 entries                                                                                       
     n  l   j            E        occ.                                                              
     1  0  0.50      -384.7179   2.0000                                                             
     2  0  0.50       -18.5828   2.0000                                                             
     2  1  0.50        -7.0898   3.0000                                                             
     3  2  1.50        -6.8029   0.0000                                                             
   Description                                                                                      
     l       E           TYP  RCUT    TYP  RCUT                                                     
     0    -18.5828119     23  1.200                                                                 
     0    -13.5018863     23  1.200                                                                 
     1     -7.0897853     23  1.500                                                                 
     1      9.5240782     23  1.500                                                                 
     2     -6.8029130      7  1.500                                                                 
  local pseudopotential read in
  partial core-charges read in
  partial kinetic energy density read in
  atomic valenz-charges read in
  non local Contribution for L=           0  read in
    real space projection operators read in
  non local Contribution for L=           0  read in
    real space projection operators read in
  non local Contribution for L=           1  read in
    real space projection operators read in
  non local Contribution for L=           1  read in
    real space projection operators read in
    PAW grid and wavefunctions read in
 
   number of l-projection  operators is LMAX  =           4
   number of lm-projection operators is LMMAX =           8
 
 POTCAR:    PAW_PBE O 08Apr2002                   
   SHA256 =  818f92134a0a090dccd8ba1447fa70422a3b330e708bb4f08108d8ae51209ddf O/POTCAR              
   COPYR  = (c) Copyright 08Apr2002 Georg Kresse                                                    
   COPYR  = This file is part of the software VASP. Any use, copying, and all other rights are regul
   COPYR  = If you do not have a valid VASP license, you may not use, copy or distribute this file. 
   VRHFIN =O: s2p4                                                                                  
   LEXCH  = PE                                                                                      
   EATOM  =   432.3788 eV,   31.7789 Ry                                                             
                                                                                                    
   TITEL  = PAW_PBE O 08Apr2002                                                                     
   LULTRA =        F    use ultrasoft PP ?                                                          
   IUNSCR =        1    unscreen: 0-lin 1-nonlin 2-no                                               
   RPACOR =    1.200    partial core radius                                                         
   POMASS =   16.000; ZVAL   =    6.000    mass and valenz                                          
   RCORE  =    1.520    outmost cutoff radius                                                       
   RWIGS  =    1.550; RWIGS  =    0.820    wigner-seitz radius (au A)                               
   ENMAX  =  400.000; ENMIN  =  300.000 eV                                                          
   ICORE  =        2    local potential                                                             
   LCOR   =        T    correct aug charges                                                         
   LPAW   =        T    paw PP                                                                      
   EAUG   =  605.392                                                                                
   DEXC   =    0.000                                                                                
   RMAX   =    1.553    core radius for proj-oper                                                   
   RAUG   =    1.300    factor for augmentation sphere                                              
   RDEP   =    1.550    radius for radial grids                                                     
   RDEPT  =    1.329    core radius for aug-charge                                                  
                                                                                                    
   Atomic configuration                                                                             
    4 entries                                                                                       
     n  l   j            E        occ.                                                              
     1  0  0.50      -514.6923   2.0000                                                             
     2  0  0.50       -23.9615   2.0000                                                             
     2  1  0.50        -9.0305   4.0000                                                             
     3  2  1.50        -9.5241   0.0000                                                             
   Description                                                                                      
     l       E           TYP  RCUT    TYP  RCUT                                                     
     0    -23.9615318     23  1.200                                                                 
     0     -9.5240782     23  1.200                                                                 
     1     -9.0304911     23  1.520                                                                 
     1      8.1634956     23  1.520                                                                 
     2     -9.5240782      7  1.500                                                                 
  local pseudopotential read in
  partial core-charges read in
  partial kinetic energy density read in
  kinetic energy density of atom read in
  atomic valenz-charges read in
  non local Contribution for L=           0  read in
    real space projection operators read in
  non local Contribution for L=           0  read in
    real space projection operators read in
  non local Contribution for L=           1  read in
    real space projection operators read in
  non local Contribution for L=           1  read in
    real space projection operators read in
    PAW grid and wavefunctions read in
 
   number of l-projection  operators is LMAX  =           4
   number of lm-projection operators is LMMAX =           8
 
 POTCAR:    PAW_PBE H 15Jun2001                   
   SHA256 =  030f79b5d3ab3cf0e668861823c8fb652ff669f3e15e46930bd03bfd63a607b6 H/POTCAR              
   COPYR  = (c) Copyright 15Jun2001 Georg Kresse                                                    
   COPYR  = This file is part of the software VASP. Any use, copying, and all other rights are regul
   COPYR  = If you do not have a valid VASP license, you may not use, copy or distribute this file. 
   VRHFIN =H: ultrasoft test                                                                        
   LEXCH  = PE                                                                                      
   EATOM  =    12.4884 eV,    0.9179 Ry                                                             
                                                                                                    
   TITEL  = PAW_PBE H 15Jun2001                                                                     
   LULTRA =        F    use ultrasoft PP ?                                                          
   IUNSCR =        0    unscreen: 0-lin 1-nonlin 2-no                                               
   RPACOR =    0.000    partial core radius                                                         
   POMASS =    1.000; ZVAL   =    1.000    mass and valenz                                          
   RCORE  =    1.100    outmost cutoff radius                                                       
   RWIGS  =    0.700; RWIGS  =    0.370    wigner-seitz radius (au A)                               
   ENMAX  =  250.000; ENMIN  =  200.000 eV                                                          
   RCLOC  =    0.701    cutoff for local pot                                                        
   LCOR   =        T    correct aug charges                                                         
   LPAW   =        T    paw PP                                                                      
   EAUG   =  400.000                                                                                
   RMAX   =    1.123    core radius for proj-oper                                                   
   RAUG   =    1.200    factor for augmentation sphere                                              
   RDEP   =    1.112    radius for radial grids                                                     
   RDEPT  =    0.926    core radius for aug-charge                                                  
                                                                                                    
   Atomic configuration                                                                             
    2 entries                                                                                       
     n  l   j            E        occ.                                                              
     1  0  0.50        -6.4927   1.0000                                                             
     2  1  0.50        -3.4015   0.0000                                                             
   Description                                                                                      
     l       E           TYP  RCUT    TYP  RCUT                                                     
     0     -6.4927494     23  1.100                                                                 
     0      6.8029130     23  1.100                                                                 
     1     -4.0817478     23  1.100                                                                 
  local pseudopotential read in
  atomic valenz-charges read in
  non local Contribution for L=           0  read in
    real space projection operators read in
  non local Contribution for L=           0  read in
    real space projection operators read in
  non local Contribution for L=           1  read in
    real space projection operators read in
    PAW grid and wavefunctions read in
 
   number of l-projection  operators is LMAX  =           3
   number of lm-projection operators is LMMAX =           5
 
 Optimization of the real space projectors (new method)

 maximal supplied QI-value         = 25.13
 optimisation between [QCUT,QGAM] = [ 11.31, 22.87] = [ 35.82,146.48] Ry 
 Optimized for a Real-space Cutoff    1.03 Angstroem

   l    n(q)    QCUT    max X(q) W(low)/X(q) W(high)/X(q)  e(spline) 
   0      7    11.310   115.676    0.20E-03    0.90E-03    0.20E-06
   0      7    11.310    87.132    0.20E-03    0.89E-03    0.19E-06
   1      6    11.310     4.429    0.16E-03    0.28E-03    0.12E-06
   1      6    11.310     2.733    0.12E-03    0.21E-03    0.99E-07
 Optimization of the real space projectors (new method)

 maximal supplied QI-value         = 25.13
 optimisation between [QCUT,QGAM] = [ 11.31, 22.87] = [ 35.82,146.48] Ry 
 Optimized for a Real-space Cutoff    1.43 Angstroem

   l    n(q)    QCUT    max X(q) W(low)/X(q) W(high)/X(q)  e(spline) 
   0     10    11.310    79.467    0.42E-04    0.81E-04    0.60E-06
   0     10    11.310    66.151    0.40E-04    0.81E-04    0.60E-06
   1      9    11.310    17.416    0.14E-03    0.88E-04    0.14E-05
   1      9    11.310    12.382    0.15E-03    0.93E-04    0.14E-05
 Optimization of the real space projectors (new method)

 maximal supplied QI-value         = 24.76
 optimisation between [QCUT,QGAM] = [ 11.39, 22.77] = [ 36.31,145.25] Ry 
 Optimized for a Real-space Cutoff    1.10 Angstroem

   l    n(q)    QCUT    max X(q) W(low)/X(q) W(high)/X(q)  e(spline) 
   0      7    11.387    20.381    0.22E-03    0.48E-03    0.18E-06
   0      7    11.387    15.268    0.22E-03    0.52E-03    0.19E-06
   1      7    11.387     5.964    0.22E-03    0.73E-03    0.24E-06
   1      7    11.387     5.382    0.19E-03    0.60E-03    0.21E-06
 Optimization of the real space projectors (new method)

 maximal supplied QI-value         = 34.20
 optimisation between [QCUT,QGAM] = [ 11.29, 22.57] = [ 35.68,142.71] Ry 
 Optimized for a Real-space Cutoff    1.20 Angstroem

   l    n(q)    QCUT    max X(q) W(low)/X(q) W(high)/X(q)  e(spline) 
   0      8    11.287    19.460    0.22E-03    0.50E-03    0.19E-06
   0      8    11.287    12.209    0.21E-03    0.48E-03    0.18E-06
   1      8    11.287     4.655    0.21E-03    0.11E-04    0.26E-06
  PAW_PBE C 08Apr2002                   :
 energy of atom  1       EATOM= -147.1560
 kinetic energy error for atom=    0.0076 (will be added to EATOM!!)
  PAW_PBE N 08Apr2002                   :
 energy of atom  2       EATOM= -264.5486
 kinetic energy error for atom=    0.0138 (will be added to EATOM!!)
  PAW_PBE O 08Apr2002                   :
 energy of atom  3       EATOM= -432.3788
 kinetic energy error for atom=    0.0224 (will be added to EATOM!!)
  PAW_PBE H 15Jun2001                   :
 energy of atom  4       EATOM=  -12.4884
 kinetic energy error for atom=    0.0020 (will be added to EATOM!!)
 
 
 POSCAR: C N O H
  positions in direct lattice
  velocities in cartesian coordinates
 exchange correlation table for  LEXCH =        8
   RHO(1)=    0.500       N(1)  =     2000
   RHO(2)=  100.500       N(2)  =     4000
 
 POSCAR: C N O H
  positions in direct lattice
  velocities in cartesian coordinates
 
 POSCAR: C N O H
  positions in direct lattice
  velocities in cartesian coordinates
 


--------------------------------------------------------------------------------------------------------


 ion  position               nearest neighbor table
   1  0.470  0.468  0.504-  29 1.10  28 1.10   2 1.52   6 1.53
   2  0.492  0.499  0.509-   3 1.36  11 1.41   1 1.52
   3  0.478  0.530  0.504-  19 1.09   2 1.36   4 1.51
   4  0.443  0.537  0.495-  18 1.10  17 1.11   3 1.51   5 1.53
   5  0.424  0.505  0.483-  16 1.10  15 1.10   6 1.53   4 1.53
   6  0.433  0.476  0.505-  14 1.10  13 1.10   5 1.53   1 1.53
   7  0.546  0.521  0.528-  20 1.10  27 1.10  11 1.46   8 1.53
   8  0.566  0.532  0.497-  21 1.10  22 1.11  12 1.44   7 1.53
   9  0.563  0.476  0.476-  26 1.10  23 1.11  12 1.44  10 1.53
  10  0.543  0.465  0.507-  25 1.10  24 1.10  11 1.47   9 1.53
  11  0.524  0.493  0.521-   2 1.41   7 1.46  10 1.47
  12  0.585  0.504  0.484-   9 1.44   8 1.44
  13  0.425  0.482  0.531-   6 1.10
  14  0.419  0.453  0.498-   6 1.10
  15  0.432  0.499  0.457-   5 1.10
  16  0.397  0.510  0.482-   5 1.10
  17  0.429  0.547  0.516-   4 1.11
  18  0.441  0.556  0.475-   4 1.10
  19  0.494  0.552  0.507-   3 1.09
  20  0.532  0.542  0.538-   7 1.10
  21  0.584  0.551  0.503-   8 1.10
  22  0.549  0.541  0.477-   8 1.11
  23  0.545  0.483  0.456-   9 1.11
  24  0.561  0.456  0.527-  10 1.10
  25  0.527  0.444  0.501-  10 1.10
  26  0.579  0.456  0.467-   9 1.10
  27  0.564  0.513  0.547-   7 1.10
  28  0.476  0.456  0.480-   1 1.10
  29  0.477  0.450  0.524-   1 1.10
 
  LATTYP: Found a simple cubic cell.
 ALAT       =    40.0000000000
  
  Lattice vectors:
  
 A1 = (  40.0000000000,   0.0000000000,   0.0000000000)
 A2 = (   0.0000000000,  40.0000000000,   0.0000000000)
 A3 = (   0.0000000000,   0.0000000000,  40.0000000000)


Analysis of symmetry for initial positions (statically):
=====================================================================
 Subroutine PRICEL returns:
 Original cell was already a primitive cell.
 

 Routine SETGRP: Setting up the symmetry group for a 
 simple cubic supercell.


 Subroutine GETGRP returns: Found  1 space group operations
 (whereof  1 operations were pure point group operations)
 out of a pool of 48 trial point group operations.


The static configuration has the point symmetry C_1 .


Analysis of symmetry for dynamics (positions and initial velocities):
=====================================================================
 Subroutine PRICEL returns:
 Original cell was already a primitive cell.
 

 Routine SETGRP: Setting up the symmetry group for a 
 simple cubic supercell.


 Subroutine GETGRP returns: Found  1 space group operations
 (whereof  1 operations were pure point group operations)
 out of a pool of 48 trial point group operations.


The dynamic configuration has the point symmetry C_1 .


Analysis of constrained symmetry for selective dynamics:
=====================================================================
 Subroutine PRICEL returns:
 Original cell was already a primitive cell.
 

 Routine SETGRP: Setting up the symmetry group for a 
 simple cubic supercell.


 Subroutine GETGRP returns: Found  1 space group operations
 (whereof  1 operations were pure point group operations)
 out of a pool of 48 trial point group operations.


The constrained configuration has the point symmetry C_1 .


Analysis of structural, dynamic, and magnetic symmetry:
=====================================================================
 Subroutine PRICEL returns:
 Original cell was already a primitive cell.
 

 Routine SETGRP: Setting up the symmetry group for a 
 simple cubic supercell.


 Subroutine GETGRP returns: Found  1 space group operations
 (whereof  1 operations were pure point group operations)
 out of a pool of 48 trial point group operations.


The overall configuration has the point symmetry C_1 .


 Subroutine INISYM returns: Found  1 space group operations
 (whereof  1 operations are pure point group operations),
 and found     1 'primitive' translations


----------------------------------------------------------------------------------------

                                     Primitive cell                                     

  volume of cell :   64000.0000

  direct lattice vectors                    reciprocal lattice vectors
    40.000000000  0.000000000  0.000000000     0.025000000  0.000000000  0.000000000
     0.000000000 40.000000000  0.000000000     0.000000000  0.025000000  0.000000000
     0.000000000  0.000000000 40.000000000     0.000000000  0.000000000  0.025000000

  length of vectors
    40.000000000 40.000000000 40.000000000     0.025000000  0.025000000  0.025000000

  position of ions in fractional coordinates (direct lattice)
     0.470244700  0.468182528  0.504142113
     0.491500769  0.499235626  0.508966863
     0.478467523  0.530112536  0.503844577
     0.442541148  0.536698706  0.494628695
     0.424317974  0.505299771  0.482549402
     0.432735679  0.475766394  0.505256205
     0.546338806  0.521169093  0.528040787
     0.565940264  0.531592397  0.496933229
     0.563001946  0.476243965  0.476393632
     0.543319043  0.465215385  0.507255320
     0.523969423  0.493123118  0.521175261
     0.584686289  0.503818453  0.483917161
     0.425421119  0.481801807  0.531151769
     0.418551571  0.453336948  0.498004571
     0.432271887  0.499355882  0.456820062
     0.397167424  0.509647611  0.481714026
     0.429004253  0.547312011  0.516329186
     0.441450409  0.556265716  0.475233990
     0.494090568  0.552228108  0.507052821
     0.532135981  0.542238675  0.538412931
     0.584316021  0.551112927  0.502899789
     0.548753551  0.541165791  0.477493168
     0.545446240  0.483361731  0.456166648
     0.560988829  0.456496195  0.526550073
     0.526894634  0.444211803  0.500915255
     0.579203449  0.456013190  0.467286088
     0.564305445  0.512945308  0.547295473
     0.476280255  0.456262928  0.479969302
     0.476656801  0.449786399  0.523604601

  ion indices of the primitive-cell ions
   primitive index   ion index
                 1           1
                 2           2
                 3           3
                 4           4
                 5           5
                 6           6
                 7           7
                 8           8
                 9           9
                10          10
                11          11
                12          12
                13          13
                14          14
                15          15
                16          16
                17          17
                18          18
                19          19
                20          20
                21          21
                22          22
                23          23
                24          24
                25          25
                26          26
                27          27
                28          28
                29          29

----------------------------------------------------------------------------------------

 
 
 KPOINTS: K-Point Grid                            

Automatic generation of k-mesh.
 Grid dimensions read from file:
 generate k-points for:    1    1    1

 Generating k-lattice:

  Cartesian coordinates                     Fractional coordinates (reciprocal lattice)
     0.025000000  0.000000000  0.000000000     1.000000000  0.000000000  0.000000000
     0.000000000  0.025000000  0.000000000     0.000000000  1.000000000  0.000000000
     0.000000000  0.000000000  0.025000000     0.000000000  0.000000000  1.000000000

  Length of vectors
     0.025000000  0.025000000  0.025000000

  Shift w.r.t. Gamma in fractional coordinates (k-lattice)
     0.000000000  0.000000000  0.000000000

 
 Subroutine IBZKPT returns following result:
 ===========================================
 
 Found      1 irreducible k-points:
 
 Following reciprocal coordinates:
            Coordinates               Weight
  0.000000  0.000000  0.000000      1.000000
 
 Following cartesian coordinates:
            Coordinates               Weight
  0.000000  0.000000  0.000000      1.000000
 
 
 Subroutine IBZKPT_HF returns following result:
 ==============================================
 
 Found      1 k-points in 1st BZ
 the following      1 k-points will be used (e.g. in the exchange kernel)
 Following reciprocal coordinates:   # in IRBZ
  0.000000  0.000000  0.000000    1.00000000   1 t-inv F


--------------------------------------------------------------------------------------------------------




 Dimension of arrays:
   k-points           NKPTS =      1   k-points in BZ     NKDIM =      1   number of bands    NBANDS=     72
   number of dos      NEDOS =    301   number of ions     NIONS =     29
   non local maximal  LDIM  =      4   non local SUM 2l+1 LMDIM =      8
   total plane-waves  NPLWV = ******
   max r-space proj   IRMAX =   4928   max aug-charges    IRDMAX=   5350
   dimension x,y,z NGX =   294 NGY =  294 NGZ =  294
   dimension x,y,z NGXF=   588 NGYF=  588 NGZF=  588
   support grid    NGXF=   588 NGYF=  588 NGZF=  588
   ions per type =              10   1   1  17
   NGX,Y,Z   is equivalent  to a cutoff of  12.22, 12.22, 12.22 a.u.
   NGXF,Y,Z  is equivalent  to a cutoff of  24.44, 24.44, 24.44 a.u.

 SYSTEM =  065_red                                 
 POSCAR =  C N O H                                 

 Startparameter for this run:
   NWRITE =      2    write-flag & timer
   PREC   = accura    normal or accurate (medium, high low for compatibility)
   ISTART =      1    job   : 0-new  1-cont  2-samecut
   ICHARG =      2    charge: 1-file 2-atom 10-const
   ISPIN  =      2    spin polarized calculation?
   LNONCOLLINEAR =      F non collinear calculations
   LSORBIT =      F    spin-orbit coupling
   INIWAV =      1    electr: 0-lowe 1-rand  2-diag
   LASPH  =      F    aspherical Exc in radial PAW
 Electronic Relaxation 1
   ENCUT  =  500.0 eV  36.75 Ry    6.06 a.u.  72.93 72.93 72.93*2*pi/ulx,y,z
   ENINI  =  500.0     initial cutoff
   ENAUG  =  644.9 eV  augmentation charge cutoff
   NELM   =    500;   NELMIN=  2; NELMDL=  0     # of ELM steps 
   EDIFF  = 0.1E-04   stopping-criterion for ELM
   LREAL  =      T    real-space projection
   NLSPLINE    = F    spline interpolate recip. space projectors
   LCOMPAT=      F    compatible to vasp.4.4
   GGA_COMPAT  = T    GGA compatible to vasp.4.4-vasp.4.6
   LMAXPAW     = -100 max onsite density
   LMAXMIX     =    2 max onsite mixed and CHGCAR
   VOSKOWN=      0    Vosko Wilk Nusair interpolation
   ROPT   =   -0.00025  -0.00025  -0.00025  -0.00025
 Ionic relaxation
   EDIFFG = -.2E-01   stopping-criterion for IOM
   NSW    =      0    number of steps for IOM
   NBLOCK =      1;   KBLOCK =      1    inner block; outer block 
   IBRION =     -1    ionic relax: 0-MD 1-quasi-New 2-CG
   NFREE  =      1    steps in history (QN), initial steepest desc. (CG)
   ISIF   =      2    stress and relaxation
   IWAVPR =     10    prediction:  0-non 1-charg 2-wave 3-comb
   ISYM   =      3    0-nonsym 1-usesym 2-fastsym
   LCORR  =      T    Harris-Foulkes like correction to forces

   POTIM  = 0.5000    time-step for ionic-motion
   TEIN   =    0.0    initial temperature
   TEBEG  =    0.0;   TEEND  =   0.0 temperature during run
   SMASS  =  -3.00    Nose mass-parameter (am)
   estimated Nose-frequenzy (Omega)   =  0.10E-29 period in steps = 0.13E+47 mass=  -0.366E-25a.u.
   SCALEE = 1.0000    scale energy and forces
   NPACO  =    256;   APACO  = 10.0  distance and # of slots for P.C.
   PSTRESS=    0.0 pullay stress

  Mass of Ions in am
   POMASS =  12.01 14.00 16.00  1.00
  Ionic Valenz
   ZVAL   =   4.00  5.00  6.00  1.00
  Atomic Wigner-Seitz radii
   RWIGS  =  -1.00 -1.00 -1.00 -1.00
  virtual crystal weights 
   VCA    =   1.00  1.00  1.00  1.00
   NELECT =      68.0000    total number of electrons
   NUPDOWN=      -1.0000    fix difference up-down

 DOS related values:
   EMIN   =  10.00;   EMAX   =-10.00  energy-range for DOS
   EFERMI =   0.00
   ISMEAR =     0;   SIGMA  =   0.05  broadening in eV -4-tet -1-fermi 0-gaus

 Electronic relaxation 2 (details)
   IALGO  =     53    algorithm
   LDIAG  =      F    sub-space diagonalisation (order eigenvalues)
   LSUBROT=      F    optimize rotation matrix (better conditioning)
   TURBO    =      0    0=normal 1=particle mesh
   IRESTART =      0    0=no restart 2=restart with 2 vectors
   NREBOOT  =      0    no. of reboots
   NMIN     =      0    reboot dimension
   EREF     =   0.00    reference energy to select bands
   IMIX   =      4    mixing-type and parameters
     AMIX     =   0.40;   BMIX     =  1.00
     AMIX_MAG =   1.60;   BMIX_MAG =  1.00
     AMIN     =   0.10
     WC   =   100.;   INIMIX=   1;  MIXPRE=   1;  MAXMIX= -45

 Intra band minimization:
   WEIMIN = 0.0000     energy-eigenvalue tresh-hold
   EBREAK =  0.35E-07  absolut break condition
   DEPER  =   0.30     relativ break condition  

   TIME   =   0.40     timestep for ELM

  volume/ion in A,a.u.               =    2206.90     14892.87
  Fermi-wavevector in a.u.,A,eV,Ry     =   0.167052  0.315682  0.379688  0.027906
  Thomas-Fermi vector in A             =   0.871524
 
 Write flags
   LWAVE        =      T    write WAVECAR
   LDOWNSAMPLE  =      F    k-point downsampling of WAVECAR
   LCHARG       =      F    write CHGCAR
   LVTOT        =      F    write LOCPOT, total local potential
   LVHAR        =      F    write LOCPOT, Hartree potential only
   LELF         =      F    write electronic localiz. function (ELF)
   LORBIT       =      0    0 simple, 1 ext, 2 COOP (PROOUT), +10 PAW based schemes


 Dipole corrections
   LMONO  =      F    monopole corrections only (constant potential shift)
   LDIPOL =      F    correct potential (dipole corrections)
   IDIPOL =      0    1-x, 2-y, 3-z, 4-all directions 
   EPSILON=  1.0000000 bulk dielectric constant

 Exchange correlation treatment:
   GGA     =    --    GGA type
   LEXCH   =     8    internal setting for exchange type
   LIBXC   =     F    Libxc                    
   VOSKOWN =     0    Vosko Wilk Nusair interpolation
   EXXOEP  =     0    0=HF, 1=EXX-LHF (local Hartree Fock) 2=EXX OEP
   LHFCALC =     T    Hartree Fock is set to
   LSYMGRAD=     F    symmetrize gradient (conserves proper symmetry)
   PRECFOCK=normal    Normal, Fast or Accurate (Low or Medium for compatibility)
   LRHFCALC=     F    long range Hartree Fock
   LRSCOR  =     F    long range correlation only (use DFT for short range part)
   LTHOMAS =     F    Thomas Fermi screening in HF
   LMODELHF=     F    short range full HF, long range fraction AEXX
   FOCKCORR=     1    mode to apply convergence corrections
   LFOCKACE=     T    use Adeptively-Compressed-Exchange operator
   ENCUT4O =  -1.0   cutoff for four orbital integrals eV
   LMAXFOCK=     4    L truncation for augmentation on plane wave grid
   LMAXFOCKAE=  -1    L truncation for all-electron charge restoration on plane wave grid
   NMAXFOCKAE=   1    number of basis functions for all-electron charge restoration
   LFOCKAEDFT=     F  apply the AE augmentation even for DFT
   NKREDX  =     1    reduce k-point grid by
   NKREDY  =     1    reduce k-point grid by
   NKREDZ  =     1    reduce k-point grid by
   SHIFTRED=     F    shift reduced grid of Gamma
   HFKIDENT=     F    idential grid for each k-point
   ODDONLY =     F    use only odd q-grid points
   EVENONLY=     F    use only even q-grid points
   HFALPHA =   -1.0000 decay constant for conv. correction
   MCALPHA =    0.0000 extent of test-charge in conv. correction in multipole expansion
   AEXX    =    0.2500 exact exchange contribution
   HFSCREEN=    0.2000 screening length (either q_TF or 0.3 A-1)
   HFSCREENC=   0.2000 screening length for correlation (either q_TF or 0.3 A-1)
   HFRCUT  =    0.0000 spherical cutoff for potential kernel
   ALDAX   =    0.7500 LDA exchange part
   AGGAX   =    0.7500 GGA exchange part
   ALDAC   =    1.0000 LDA correlation
   AGGAC   =    1.0000 GGA correlation
   ENCUTFOCK=  -1.0 apply spherical cutoff to Coloumb kernel
   NBANDSGWLOW=     1    first orbital included in HF term
   NBLOCK_FOCK=    64    blocking factor in FOCK_ACC

 Linear response parameters
   LEPSILON=     F    determine dielectric tensor
   LRPA    =     F    only Hartree local field effects (RPA)
   LNABLA  =     F    use nabla operator in PAW spheres
   LVEL    =     F    velocity operator in full k-point grid
   CSHIFT  =0.1000    complex shift for real part using Kramers Kronig
   OMEGAMAX=  -1.0    maximum frequency
   DEG_THRESHOLD= 0.2000000E-02 threshold for treating states as degnerate
   RTIME   =   -0.100 relaxation time in fs
  (WPLASMAI=    0.000 imaginary part of plasma frequency in eV, 0.658/RTIME)
   DFIELD  = 0.0000000 0.0000000 0.0000000 field for delta impulse in time
 
  Optional k-point grid parameters
   LKPOINTS_OPT  =     F    use optional k-point grid
   KPOINTS_OPT_MODE=     1    mode for optional k-point grid
 
 Orbital magnetization related:
   ORBITALMAG=     F  switch on orbital magnetization
   LCHIMAG   =     F  perturbation theory with respect to B field
   DQ        =  0.001000  dq finite difference perturbation B field
   LLRAUG    =     F  two centre corrections for induced B field

 Solvation model:
   LSOL             =     T         switch on solvation model
   LSOL_SCF         =     T         include solvation in SCF
   ISOL             =     2         solvation model type
   EFERMI_ref       =  0.000000         reference Fermi level
   capacitance_init =  1.000000         initial capacitance
 Nonlinear solvation model:
   LNLDIEL     =     T         switch on non-linear dielectric mode
   LNLION      =     T         switch on non-linear ionic mode
   LNLTEST     =     F         test non-linear model in linear regime
   I_NLOC_SOL  =     1         type of nonlocal dielectric response
   NC_K        =  0.015000     cutoff charge density for cavities (1/Angstrom**3)
   TAU         =  0.000879     cavity formation energy (eV/Angstrom**2)
   SIGMA_K     =  0.600000     cavity width
   A_K         =  0.125000     smoothing length (Angstrom)
   R_SOLV      =  2.190000     solvent radius (Angstrom)
   R_CAV       =  0.000000     cavity radius (Angstrom)
   R_DIEL      =  1.000000     dielectric radius (Angstrom)
   R_ION       =  0.000000     ionic radius (Angstrom)
   R_B         =  0.000000     bound charge radius (Angstrom)
   SOLTEMP     =298.000000     solvent temperature (K)
   EB_K        = 35.688000     relative permittivity of the bulk solvent
   EPSILON_INF =  1.806900     optical relative permittivity of bulk solvent
   N_MOL       =  0.011500     molar density of solvent (1/Angstrom**3)
   P_MOL       =  0.820000     solvent dipole moment (e*Angstrom)
   C_MOLAR     =  0.000000     electrolyte concentration (mol/L)
   LAMBDA_D_K  =  0.000000     Debye length (Angstrom)
   ZION        =  1.000000     charge of ions in electrolyte (e)
   D_ION       = -1.000000     minimum ion packing diameter (Angstrom)



--------------------------------------------------------------------------------------------------------


 Static calculation
 charge density and potential will be updated during run
 spin polarized calculation
 Conjugate gradient for all bands (Kresse, et al. variant)
 perform Loewdin sub-space diagonalisation
    ordering is kept fixed
    before iterative eigenvector-optimisation
 modified Broyden-mixing scheme, WC =      100.0
 initial mixing is a Kerker type mixing with AMIX =  0.4000 and BMIX =      1.0000
 Hartree-type preconditioning will be used
 using additional bands           38
 real space projection scheme for non local part
 use partial core corrections
 no Harris-corrections to forces 
 use gradient corrections 
 use of overlap-Matrix (Vanderbilt PP)
 Gauss-broadening in eV      SIGMA  =   0.05


--------------------------------------------------------------------------------------------------------


  energy-cutoff  :      500.00
  volume of cell :    64000.00
      direct lattice vectors                 reciprocal lattice vectors
    40.000000000  0.000000000  0.000000000     0.025000000  0.000000000  0.000000000
     0.000000000 40.000000000  0.000000000     0.000000000  0.025000000  0.000000000
     0.000000000  0.000000000 40.000000000     0.000000000  0.000000000  0.025000000

  length of vectors
    40.000000000 40.000000000 40.000000000     0.025000000  0.025000000  0.025000000


 
 old parameters found on file WAVECAR:
  energy-cutoff  :      500.00
  volume of cell :    64000.00
      direct lattice vectors                 reciprocal lattice vectors
    40.000000000  0.000000000  0.000000000     0.025000000  0.000000000  0.000000000
     0.000000000 40.000000000  0.000000000     0.000000000  0.025000000  0.000000000
     0.000000000  0.000000000 40.000000000     0.000000000  0.000000000  0.025000000

  length of vectors

 
 k-points in units of 2pi/SCALE and weight: K-Point Grid                            
   0.00000000  0.00000000  0.00000000       1.000
 
 k-points in reciprocal lattice and weights: K-Point Grid                            
   0.00000000  0.00000000  0.00000000       1.000
 
 position of ions in fractional coordinates (direct lattice) 
   0.47024470  0.46818253  0.50414211
   0.49150077  0.49923563  0.50896686
   0.47846752  0.53011254  0.50384458
   0.44254115  0.53669871  0.49462869
   0.42431797  0.50529977  0.48254940
   0.43273568  0.47576639  0.50525620
   0.54633881  0.52116909  0.52804079
   0.56594026  0.53159240  0.49693323
   0.56300195  0.47624396  0.47639363
   0.54331904  0.46521538  0.50725532
   0.52396942  0.49312312  0.52117526
   0.58468629  0.50381845  0.48391716
   0.42542112  0.48180181  0.53115177
   0.41855157  0.45333695  0.49800457
   0.43227189  0.49935588  0.45682006
   0.39716742  0.50964761  0.48171403
   0.42900425  0.54731201  0.51632919
   0.44145041  0.55626572  0.47523399
   0.49409057  0.55222811  0.50705282
   0.53213598  0.54223868  0.53841293
   0.58431602  0.55111293  0.50289979
   0.54875355  0.54116579  0.47749317
   0.54544624  0.48336173  0.45616665
   0.56098883  0.45649620  0.52655007
   0.52689463  0.44421180  0.50091526
   0.57920345  0.45601319  0.46728609
   0.56430544  0.51294531  0.54729547
   0.47628026  0.45626293  0.47996930
   0.47665680  0.44978640  0.52360460
 
 position of ions in cartesian coordinates  (Angst):
  18.80978800 18.72730113 20.16568454
  19.66003077 19.96942502 20.35867454
  19.13870093 21.20450144 20.15378309
  17.70164593 21.46794824 19.78514778
  16.97271897 20.21199084 19.30197610
  17.30942716 19.03065574 20.21024820
  21.85355223 20.84676374 21.12163147
  22.63761056 21.26369587 19.87732918
  22.52007783 19.04975858 19.05574529
  21.73276173 18.60861539 20.29021281
  20.95877692 19.72492473 20.84701043
  23.38745154 20.15273813 19.35668644
  17.01684476 19.27207227 21.24607077
  16.74206283 18.13347792 19.92018282
  17.29087547 19.97423526 18.27280247
  15.88669697 20.38590443 19.26856102
  17.16017011 21.89248045 20.65316743
  17.65801635 22.25062863 19.00935961
  19.76362272 22.08912431 20.28211285
  21.28543924 21.68954701 21.53651725
  23.37264084 22.04451707 20.11599158
  21.95014205 21.64663164 19.09972673
  21.81784960 19.33446922 18.24666594
  22.43955315 18.25984782 21.06200291
  21.07578534 17.76847213 20.03661021
  23.16813794 18.24052758 18.69144353
  22.57221780 20.51781230 21.89181892
  19.05121021 18.25051714 19.19877208
  19.06627203 17.99145594 20.94418403
 


--------------------------------------------------------------------------------------------------------


 k-point   1 :   0.0000 0.0000 0.0000  plane waves: 1624525

 maximum and minimum number of plane-waves per node :    162473   162437

 maximum number of plane-waves:   1624525
 maximum index in each direction: 
   IXMAX=   72   IYMAX=   72   IZMAX=   72
   IXMIN=  -72   IYMIN=  -72   IZMIN=  -72


 real space projection operators:
  total allocation   :       3390.55 KBytes
  max/ min on nodes  :        345.77        332.48


 parallel 3D FFT for wavefunctions:
    minimum data exchange during FFTs selected (reduces bandwidth)
 parallel 3D FFT for charge:
    minimum data exchange during FFTs selected (reduces bandwidth)


 FFT grid for exact exchange (Hartree Fock) 
  NGX =224; NGY =224; NGZ =224

 
 Radii for the augmentation spheres in the non-local exchange
 for species   1 augmentation radius   0.874 (default was   0.699)
       energy cutoff for augmentation   2000.0
 for species   2 augmentation radius   0.886 (default was   0.709)
       energy cutoff for augmentation   2000.0
 for species   3 augmentation radius   0.902 (default was   0.722)
       energy cutoff for augmentation   2000.0
 for species   4 augmentation radius   0.650 (default was   0.520)
       energy cutoff for augmentation   2000.0

 real space projection operators:
  total allocation   :        660.02 KBytes
  max/ min on nodes  :         79.59         50.84

 Maximum index for augmentation-charges in exchange           78
  SETUP_FOCK is finished

 total amount of memory used by VASP MPI-rank0   823090. kBytes
=======================================================================

   base      :      30000. kBytes
   nonlr-proj:       3194. kBytes
   fftplans  :     224335. kBytes
   grid      :     440727. kBytes
   one-center:         18. kBytes
   HF        :         13. kBytes
   wavefun   :     124803. kBytes
 
     INWAV:  cpu time     19.3079: real time     19.4231
 Broyden mixing: mesh for mixing (old mesh)
   NGX =145   NGY =145   NGZ =145
  (NGX  =588   NGY  =588   NGZ  =588)
  gives a total of ****** points

 initial charge density was supplied:
 charge density of overlapping atoms calculated
 number of electron      68.0000000 magnetization      29.0000000
 charge density for first step will be calculated from the start-wavefunctions


--------------------------------------------------------------------------------------------------------


 Maximum index for non-local projection operator          520
 Maximum index for augmentation-charges          200 (set IRDMAX)


--------------------------------------------------------------------------------------------------------


 initial charge from wavefunction
 First call to EWALD:  gamma=   0.044
 Maximum number of real-space cells 3x 3x 3
 Maximum number of reciprocal cells 3x 3x 3

    FEWALD:  cpu time      0.0037: real time      0.0037


--------------------------------------- Iteration      1(   1)  ---------------------------------------


    POTLOK:  cpu time     17.4554: real time     17.4561
    SETDIJ:  cpu time      0.0667: real time      0.0667
    TRIAL :  cpu time    345.0426: real time    345.0600
    CORREC:  cpu time      0.1657: real time      0.1657
    CHARGE:  cpu time      3.5743: real time      3.5745
    --------------------------------------------
      LOOP:  cpu time    366.3682: real time    366.3867

 eigenvalue-minimisations  :     0
 total energy-change (2. order) :-0.1945401E+03  (-0.2979964E-01)
 number of electron      68.0000003 magnetization       0.0000000
 augmentation part        2.1820591 magnetization      -0.0000005

 Free energy of the ion-electron system (eV)
  ---------------------------------------------------
  alpha Z        PSCENC =         0.30970803
  Ewald energy   TEWEN  =      8768.82153417
  -Hartree energ DENC   =    -10709.37935653
  -exchange      EXHF   =       156.03623268
  -V(xc)+E(xc)   XCENC  =       180.69352864
  PAW double counting   =      5636.17863152    -5643.09541410
  entropy T*S    EENTRO =        -0.00000000
  eigenvalues    EBANDS =      -933.22745327
  atomic energy  EATOM  =      2349.12248641
  ---------------------------------------------------
  free energy    TOTEN  =      -194.54010246 eV

  energy without entropy =     -194.54010246  energy(sigma->0) =     -194.54010246
  exchange ACFDT corr.  =        -0.00000000  see jH, gK, PRB 81, 115126


--------------------------------------------------------------------------------------------------------




--------------------------------------- Iteration      1(   2)  ---------------------------------------


    --------------------------------------------
      INIT:  cpu time      0.7737: real time      0.7737
  FINALIZE:  cpu time    122.3328: real time    122.3373
    --------------------------------------------
    POTLOK:  cpu time    144.2669: real time    144.2724
    SETDIJ:  cpu time      0.0713: real time      0.0713
    TRIAL :  cpu time    333.1838: real time    333.1964
    CORREC:  cpu time      0.6270: real time      0.6270
    CHARGE:  cpu time      3.3888: real time      3.3889
    --------------------------------------------
      LOOP:  cpu time    481.5675: real time    481.5946

 eigenvalue-minimisations  :     0
 total energy-change (2. order) : 0.2476552E+00  (-0.1349101E-01)
 number of electron      68.0000003 magnetization       0.0000000
 augmentation part        2.1817711 magnetization      -0.0000007

 Free energy of the ion-electron system (eV)
  ---------------------------------------------------
  alpha Z        PSCENC =         0.30970803
  Ewald energy   TEWEN  =      8768.82153417
  -Hartree energ DENC   =    -10715.33144819
  -exchange      EXHF   =       156.11608899
  -V(xc)+E(xc)   XCENC  =       180.77214726
  PAW double counting   =      5637.44731005    -5644.37001160
  entropy T*S    EENTRO =        -0.00000000
  eigenvalues    EBANDS =      -927.69366937
  atomic energy  EATOM  =      2349.12248641
  ---------------------------------------------------
  free energy    TOTEN  =      -194.29244726 eV

  energy without entropy =     -194.29244726  energy(sigma->0) =     -194.29244726
  exchange ACFDT corr.  =        -0.00000000  see jH, gK, PRB 81, 115126


--------------------------------------------------------------------------------------------------------




--------------------------------------- Iteration      1(   3)  ---------------------------------------


    --------------------------------------------
      INIT:  cpu time      0.3916: real time      0.3916
  FINALIZE:  cpu time     62.1804: real time     62.1834
    --------------------------------------------
    POTLOK:  cpu time     80.1137: real time     80.1173
    SETDIJ:  cpu time      0.0692: real time      0.0692
    TRIAL :  cpu time    344.3769: real time    344.3889
    CORREC:  cpu time      0.1050: real time      0.1050
    CHARGE:  cpu time      3.3786: real time      3.3787
    --------------------------------------------
      LOOP:  cpu time    428.0651: real time    428.0880

 eigenvalue-minimisations  :     0
 total energy-change (2. order) :-0.8279154E-02  (-0.4749362E-02)
 number of electron      68.0000003 magnetization       0.0000000
 augmentation part        2.1799945 magnetization      -0.0000004

 Free energy of the ion-electron system (eV)
  ---------------------------------------------------
  alpha Z        PSCENC =         0.30970803
  Ewald energy   TEWEN  =      8768.82153417
  -Hartree energ DENC   =    -10717.26190863
  -exchange      EXHF   =       156.11978564
  -V(xc)+E(xc)   XCENC  =       180.77745161
  PAW double counting   =      5638.52429833    -5645.44630087
  entropy T*S    EENTRO =        -0.00000000
  eigenvalues    EBANDS =      -925.82808521
  atomic energy  EATOM  =      2349.12248641
  ---------------------------------------------------
  free energy    TOTEN  =      -194.30072641 eV

  energy without entropy =     -194.30072641  energy(sigma->0) =     -194.30072641
  exchange ACFDT corr.  =        -0.00000000  see jH, gK, PRB 81, 115126


--------------------------------------------------------------------------------------------------------




--------------------------------------- Iteration      1(   4)  ---------------------------------------


    --------------------------------------------
      INIT:  cpu time      0.5923: real time      0.5923
  FINALIZE:  cpu time     63.1085: real time     63.1132
    --------------------------------------------
    POTLOK:  cpu time     81.0524: real time     81.0576
    SETDIJ:  cpu time      0.0697: real time      0.0697
    TRIAL :  cpu time    345.6256: real time    345.6461
    CORREC:  cpu time      0.2080: real time      0.2080
    CHARGE:  cpu time      3.7660: real time      3.7661
    --------------------------------------------
      LOOP:  cpu time    430.7401: real time    430.7710

 eigenvalue-minimisations  :     0
 total energy-change (2. order) :-0.2321034E-02  (-0.9802428E-03)
 number of electron      68.0000003 magnetization      -0.0000000
 augmentation part        2.1798011 magnetization      -0.0000001

 Free energy of the ion-electron system (eV)
  ---------------------------------------------------
  alpha Z        PSCENC =         0.30970803
  Ewald energy   TEWEN  =      8768.82153417
  -Hartree energ DENC   =    -10715.58644703
  -exchange      EXHF   =       156.07636792
  -V(xc)+E(xc)   XCENC  =       180.73526299
  PAW double counting   =      5637.69564075    -5644.61167618
  entropy T*S    EENTRO =        -0.00000000
  eigenvalues    EBANDS =      -927.35723335
  atomic energy  EATOM  =      2349.12248641
  ---------------------------------------------------
  free energy    TOTEN  =      -194.30304745 eV

  energy without entropy =     -194.30304745  energy(sigma->0) =     -194.30304745
  exchange ACFDT corr.  =        -0.00000000  see jH, gK, PRB 81, 115126


--------------------------------------------------------------------------------------------------------




--------------------------------------- Iteration      1(   5)  ---------------------------------------


    --------------------------------------------
      INIT:  cpu time      0.3854: real time      0.3854
  FINALIZE:  cpu time     62.7912: real time     62.7932
    --------------------------------------------
    POTLOK:  cpu time     82.8043: real time     82.8070
    SETDIJ:  cpu time      0.0724: real time      0.0724
    TRIAL :  cpu time    346.7779: real time    346.7894
    CORREC:  cpu time      1.2485: real time      1.2486
    CHARGE:  cpu time      3.5728: real time      3.5730
    --------------------------------------------
      LOOP:  cpu time    434.4912: real time    434.5146

 eigenvalue-minimisations  :     0
 total energy-change (2. order) :-0.4473367E-03  (-0.4062361E-03)
 number of electron      68.0000003 magnetization      -0.0000000
 augmentation part        2.1803183 magnetization       0.0000002

 Free energy of the ion-electron system (eV)
  ---------------------------------------------------
  alpha Z        PSCENC =         0.30970803
  Ewald energy   TEWEN  =      8768.82153417
  -Hartree energ DENC   =    -10715.36468756
  -exchange      EXHF   =       156.07952835
  -V(xc)+E(xc)   XCENC  =       180.73586688
  PAW double counting   =      5637.73598566    -5644.65080034
  entropy T*S    EENTRO =        -0.00000000
  eigenvalues    EBANDS =      -927.56366273
  atomic energy  EATOM  =      2349.12248641
  ---------------------------------------------------
  free energy    TOTEN  =      -194.30349478 eV

  energy without entropy =     -194.30349478  energy(sigma->0) =     -194.30349478
  exchange ACFDT corr.  =         0.00000000  see jH, gK, PRB 81, 115126


--------------------------------------------------------------------------------------------------------




--------------------------------------- Iteration      1(   6)  ---------------------------------------


    --------------------------------------------
      INIT:  cpu time      0.7634: real time      0.7634
  FINALIZE:  cpu time     57.8183: real time     57.8203
    --------------------------------------------
    POTLOK:  cpu time     77.9659: real time     77.9687
    SETDIJ:  cpu time      0.0703: real time      0.0703
    TRIAL :  cpu time    344.6334: real time    344.6479
    CORREC:  cpu time      0.3726: real time      0.3726
    CHARGE:  cpu time      3.3852: real time      3.3854
    --------------------------------------------
      LOOP:  cpu time    426.4437: real time    426.4684

 eigenvalue-minimisations  :     0
 total energy-change (2. order) :-0.1862287E-03  (-0.1730437E-03)
 number of electron      68.0000003 magnetization      -0.0000000
 augmentation part        2.1805590 magnetization       0.0000002

 Free energy of the ion-electron system (eV)
  ---------------------------------------------------
  alpha Z        PSCENC =         0.30970803
  Ewald energy   TEWEN  =      8768.82153417
  -Hartree energ DENC   =    -10715.88653002
  -exchange      EXHF   =       156.09630197
  -V(xc)+E(xc)   XCENC  =       180.75054722
  PAW double counting   =      5637.94455340    -5644.86079179
  entropy T*S    EENTRO =        -0.00000000
  eigenvalues    EBANDS =      -927.08329798
  atomic energy  EATOM  =      2349.12248641
  ---------------------------------------------------
  free energy    TOTEN  =      -194.30368101 eV

  energy without entropy =     -194.30368101  energy(sigma->0) =     -194.30368101
  exchange ACFDT corr.  =         0.00000000  see jH, gK, PRB 81, 115126


--------------------------------------------------------------------------------------------------------




--------------------------------------- Iteration      1(   7)  ---------------------------------------


    --------------------------------------------
      INIT:  cpu time      0.3988: real time      0.3988
  FINALIZE:  cpu time     61.6528: real time     61.6598
    --------------------------------------------
    POTLOK:  cpu time     80.9198: real time     80.9276
    SETDIJ:  cpu time      0.0699: real time      0.0699
    TRIAL :  cpu time    346.3238: real time    346.3384
    CORREC:  cpu time      0.0218: real time      0.0218
    CHARGE:  cpu time      3.9673: real time      3.9676
    --------------------------------------------
      LOOP:  cpu time    431.3415: real time    431.3708

 eigenvalue-minimisations  :     0
 total energy-change (2. order) :-0.9452517E-04  (-0.9979521E-04)
 number of electron      68.0000003 magnetization       0.0000000
 augmentation part        2.1805213 magnetization       0.0000003

 Free energy of the ion-electron system (eV)
  ---------------------------------------------------
  alpha Z        PSCENC =         0.30970803
  Ewald energy   TEWEN  =      8768.82153417
  -Hartree energ DENC   =    -10715.97865948
  -exchange      EXHF   =       156.09872366
  -V(xc)+E(xc)   XCENC  =       180.75299093
  PAW double counting   =      5637.66746342    -5644.58455054
  entropy T*S    EENTRO =        -0.00000000
  eigenvalues    EBANDS =      -927.00381449
  atomic energy  EATOM  =      2349.12248641
  ---------------------------------------------------
  free energy    TOTEN  =      -194.30377554 eV

  energy without entropy =     -194.30377554  energy(sigma->0) =     -194.30377554
  exchange ACFDT corr.  =        -0.00000000  see jH, gK, PRB 81, 115126


--------------------------------------------------------------------------------------------------------




--------------------------------------- Iteration      1(   8)  ---------------------------------------


    --------------------------------------------
      INIT:  cpu time      0.3932: real time      0.3932
  FINALIZE:  cpu time     64.3515: real time     64.3542
    --------------------------------------------
    POTLOK:  cpu time     85.1345: real time     85.1381
    SETDIJ:  cpu time      0.0705: real time      0.0705
    TRIAL :  cpu time    345.8354: real time    345.8496
    CORREC:  cpu time      0.1756: real time      0.1756
    CHARGE:  cpu time      3.7414: real time      3.7415
    --------------------------------------------
      LOOP:  cpu time    434.9768: real time    435.0035

 eigenvalue-minimisations  :     0
 total energy-change (2. order) :-0.5836427E-04  (-0.3819799E-04)
 number of electron      68.0000003 magnetization       0.0000000
 augmentation part        2.1805242 magnetization       0.0000002

 Free energy of the ion-electron system (eV)
  ---------------------------------------------------
  alpha Z        PSCENC =         0.30970803
  Ewald energy   TEWEN  =      8768.82153417
  -Hartree energ DENC   =    -10715.79665943
  -exchange      EXHF   =       156.09402594
  -V(xc)+E(xc)   XCENC  =       180.74899689
  PAW double counting   =      5637.28639574    -5644.20334043
  entropy T*S    EENTRO =        -0.00000000
  eigenvalues    EBANDS =      -927.17635840
  atomic energy  EATOM  =      2349.12248641
  ---------------------------------------------------
  free energy    TOTEN  =      -194.30383390 eV

  energy without entropy =     -194.30383390  energy(sigma->0) =     -194.30383390
  exchange ACFDT corr.  =        -0.00000000  see jH, gK, PRB 81, 115126


--------------------------------------------------------------------------------------------------------




--------------------------------------- Iteration      1(   9)  ---------------------------------------


    --------------------------------------------
      INIT:  cpu time      0.3896: real time      0.3896
  FINALIZE:  cpu time     67.8349: real time     67.8378
    --------------------------------------------
    POTLOK:  cpu time     87.0583: real time     87.0619
    SETDIJ:  cpu time      0.0695: real time      0.0695
    TRIAL :  cpu time    346.9062: real time    346.9210
    CORREC:  cpu time      0.3888: real time      0.3888
    CHARGE:  cpu time      3.9599: real time      3.9601
    --------------------------------------------
      LOOP:  cpu time    438.4004: real time    438.4253

 eigenvalue-minimisations  :     0
 total energy-change (2. order) :-0.2254005E-04  (-0.1315465E-04)
 number of electron      68.0000003 magnetization       0.0000000
 augmentation part        2.1805661 magnetization       0.0000001

 Free energy of the ion-electron system (eV)
  ---------------------------------------------------
  alpha Z        PSCENC =         0.30970803
  Ewald energy   TEWEN  =      8768.82153417
  -Hartree energ DENC   =    -10715.76395383
  -exchange      EXHF   =       156.09323316
  -V(xc)+E(xc)   XCENC  =       180.74843575
  PAW double counting   =      5637.14263429    -5644.05958391
  entropy T*S    EENTRO =        -0.00000000
  eigenvalues    EBANDS =      -927.20538309
  atomic energy  EATOM  =      2349.12248641
  ---------------------------------------------------
  free energy    TOTEN  =      -194.30385644 eV

  energy without entropy =     -194.30385644  energy(sigma->0) =     -194.30385644
  exchange ACFDT corr.  =        -0.00000000  see jH, gK, PRB 81, 115126


--------------------------------------------------------------------------------------------------------




--------------------------------------- Iteration      1(  10)  ---------------------------------------


    --------------------------------------------
      INIT:  cpu time      0.7742: real time      0.7742
  FINALIZE:  cpu time     69.3572: real time     69.3595
    --------------------------------------------
    POTLOK:  cpu time     88.8027: real time     88.8056
    SETDIJ:  cpu time      0.0698: real time      0.0698
    TRIAL :  cpu time    343.9412: real time    343.9516
    CORREC:  cpu time      0.1386: real time      0.1386
    CHARGE:  cpu time      3.3642: real time      3.3644
    --------------------------------------------
      LOOP:  cpu time    436.3328: real time    436.3532

 eigenvalue-minimisations  :     0
 total energy-change (2. order) :-0.7568965E-05  (-0.4871504E-05)
 number of electron      68.0000003 magnetization       0.0000000
 augmentation part        2.1805845 magnetization      -0.0000000

 Free energy of the ion-electron system (eV)
  ---------------------------------------------------
  alpha Z        PSCENC =         0.30970803
  Ewald energy   TEWEN  =      8768.82153417
  -Hartree energ DENC   =    -10715.80774312
  -exchange      EXHF   =       156.09429979
  -V(xc)+E(xc)   XCENC  =       180.74947780
  PAW double counting   =      5637.12450283    -5644.04162992
  entropy T*S    EENTRO =        -0.00000000
  eigenvalues    EBANDS =      -927.16302034
  atomic energy  EATOM  =      2349.12248641
  ---------------------------------------------------
  free energy    TOTEN  =      -194.30386401 eV

  energy without entropy =     -194.30386401  energy(sigma->0) =     -194.30386401
  exchange ACFDT corr.  =         0.00000000  see jH, gK, PRB 81, 115126


--------------------------------------------------------------------------------------------------------


  average scaling for gradient   1.2818


 average (electrostatic) potential at core
  the test charge radii are     0.6991  0.7089  0.7215  0.5201
  (the norm of the test charge is              1.0000)
       1 -54.6593       2 -55.4564       3 -54.1120       4 -54.4480       5 -54.3912
       6 -54.4792       7 -55.3678       8 -55.7626       9 -55.7876      10 -55.4286
      11 -68.4807      12 -74.1457      13 -37.1949      14 -37.2497      15 -37.1423
      16 -37.1911      17 -37.1039      18 -37.1694      19 -37.4052      20 -37.8308
      21 -37.7519      22 -37.5592      23 -37.5835      24 -37.6236      25 -37.9300
      26 -37.7701      27 -37.6094      28 -37.4629      29 -37.4436
 
 
 
 E-fermi :  -4.6689     XC(G=0):  -0.0361     alpha+bet : -0.0255

 Fermi energy:        -4.6688644774

 spin component 1

 k-point     1 :       0.0000    0.0000    0.0000
  band No.  band energies     occupation 
      1     -28.5332      1.00000
      2     -25.8266      1.00000
      3     -22.6652      1.00000
      4     -21.2502      1.00000
      5     -20.4632      1.00000
      6     -20.1984      1.00000
      7     -18.6273      1.00000
      8     -17.9983      1.00000
      9     -16.8217      1.00000
     10     -16.4553      1.00000
     11     -15.5172      1.00000
     12     -14.2144      1.00000
     13     -13.7196      1.00000
     14     -12.8809      1.00000
     15     -12.8623      1.00000
     16     -12.5914      1.00000
     17     -12.5110      1.00000
     18     -12.1333      1.00000
     19     -11.5131      1.00000
     20     -11.3889      1.00000
     21     -10.9841      1.00000
     22     -10.7683      1.00000
     23     -10.4517      1.00000
     24     -10.1217      1.00000
     25     -10.0204      1.00000
     26      -9.6125      1.00000
     27      -9.5279      1.00000
     28      -8.8531      1.00000
     29      -8.6871      1.00000
     30      -8.5370      1.00000
     31      -8.1809      1.00000
     32      -7.7586      1.00000
     33      -6.9474      1.00000
     34      -4.9594      1.00000
     35      -0.4073      0.00000
     36      -0.0986      0.00000
     37      -0.0619      0.00000
     38      -0.0295      0.00000
     39       0.0320      0.00000
     40       0.2774      0.00000
     41       0.1134      0.00000
     42       0.1157      0.00000
     43       0.1326      0.00000
     44       0.1312      0.00000
     45       0.1260      0.00000
     46       0.1470      0.00000
     47       0.1949      0.00000
     48       0.1981      0.00000
     49       0.2017      0.00000
     50       0.2060      0.00000
     51       0.2087      0.00000
     52       0.2107      0.00000
     53       0.2108      0.00000
     54       0.2108      0.00000
     55       0.2325      0.00000
     56       0.2445      0.00000
     57       0.2493      0.00000
     58       0.2659      0.00000
     59       0.2833      0.00000
     60       0.2982      0.00000
     61       0.3244      0.00000
     62       0.3035      0.00000
     63       0.2957      0.00000
     64       0.3658      0.00000
     65       0.3972      0.00000
     66       0.3925      0.00000
     67       0.6617      0.00000
     68       0.6095      0.00000
     69       0.4676      0.00000
     70       0.4368      0.00000
     71       0.5159      0.00000
     72       0.4881      0.00000
 Fermi energy:        -4.6688644774

 spin component 2

 k-point     1 :       0.0000    0.0000    0.0000
  band No.  band energies     occupation 
      1     -28.5332      1.00000
      2     -25.8266      1.00000
      3     -22.6652      1.00000
      4     -21.2502      1.00000
      5     -20.4632      1.00000
      6     -20.1984      1.00000
      7     -18.6273      1.00000
      8     -17.9983      1.00000
      9     -16.8217      1.00000
     10     -16.4553      1.00000
     11     -15.5172      1.00000
     12     -14.2144      1.00000
     13     -13.7196      1.00000
     14     -12.8809      1.00000
     15     -12.8623      1.00000
     16     -12.5914      1.00000
     17     -12.5110      1.00000
     18     -12.1333      1.00000
     19     -11.5131      1.00000
     20     -11.3889      1.00000
     21     -10.9841      1.00000
     22     -10.7683      1.00000
     23     -10.4517      1.00000
     24     -10.1217      1.00000
     25     -10.0204      1.00000
     26      -9.6125      1.00000
     27      -9.5279      1.00000
     28      -8.8531      1.00000
     29      -8.6871      1.00000
     30      -8.5370      1.00000
     31      -8.1809      1.00000
     32      -7.7586      1.00000
     33      -6.9474      1.00000
     34      -4.9593      1.00000
     35      -0.4073      0.00000
     36      -0.0986      0.00000
     37      -0.0619      0.00000
     38      -0.0295      0.00000
     39       0.0320      0.00000
     40       0.2777      0.00000
     41       0.1134      0.00000
     42       0.1157      0.00000
     43       0.1326      0.00000
     44       0.1312      0.00000
     45       0.1260      0.00000
     46       0.1470      0.00000
     47       0.1949      0.00000
     48       0.1981      0.00000
     49       0.2017      0.00000
     50       0.2060      0.00000
     51       0.2087      0.00000
     52       0.2107      0.00000
     53       0.2108      0.00000
     54       0.2108      0.00000
     55       0.2325      0.00000
     56       0.2445      0.00000
     57       0.2493      0.00000
     58       0.2659      0.00000
     59       0.2836      0.00000
     60       0.2983      0.00000
     61       0.3269      0.00000
     62       0.3034      0.00000
     63       0.2955      0.00000
     64       0.3893      0.00000
     65       0.4235      0.00000
     66       0.3890      0.00000
     67       0.5754      0.00000
     68       0.4786      0.00000
     69       0.5178      0.00000
     70       0.5321      0.00000
     71       0.4975      0.00000
     72       0.4755      0.00000


--------------------------------------------------------------------------------------------------------


 soft charge-density along one line, spin component           1
         0         1         2         3         4         5         6         7         8         9
 total charge-density along one line
 
 soft charge-density along one line, spin component           2
         0         1         2         3         4         5         6         7         8         9
 total charge-density along one line
 
 pseudopotential strength for first ion, spin component:           1
  9.960  13.243   0.001  -0.000   0.001  -0.003   0.001  -0.003
 13.243  17.607   0.001  -0.000   0.001  -0.003   0.001  -0.004
  0.001   0.001  -4.187   0.000  -0.001   8.166  -0.000   0.001
 -0.000  -0.000   0.000  -4.186   0.000  -0.000   8.164  -0.001
  0.001   0.001  -0.001   0.000  -4.185   0.001  -0.001   8.164
 -0.003  -0.003   8.166  -0.000   0.001 -18.043  -0.000  -0.002
  0.001   0.001  -0.000   8.164  -0.001  -0.000 -18.038   0.001
 -0.003  -0.004   0.001  -0.001   8.164  -0.002   0.001 -18.038
 pseudopotential strength for first ion, spin component:           2
  9.960  13.243   0.001  -0.000   0.001  -0.003   0.001  -0.003
 13.243  17.607   0.001  -0.000   0.001  -0.003   0.001  -0.004
  0.001   0.001  -4.187   0.000  -0.001   8.166  -0.000   0.001
 -0.000  -0.000   0.000  -4.186   0.000  -0.000   8.164  -0.001
  0.001   0.001  -0.001   0.000  -4.185   0.001  -0.001   8.164
 -0.003  -0.003   8.166  -0.000   0.001 -18.043  -0.000  -0.002
  0.001   0.001  -0.000   8.164  -0.001  -0.000 -18.038   0.001
 -0.003  -0.004   0.001  -0.001   8.164  -0.002   0.001 -18.038
 total augmentation occupancy for first ion, spin component:           1
  8.568  -3.880  -0.025   0.001   0.055   0.006   0.001   0.006
 -3.880   1.786  -0.000   0.001  -0.040  -0.006  -0.001  -0.003
 -0.025  -0.000   1.605  -0.003  -0.014   0.143   0.001   0.002
  0.001   0.001  -0.003   1.628   0.014   0.001   0.140   0.001
  0.055  -0.040  -0.014   0.014   1.605   0.002   0.001   0.143
  0.006  -0.006   0.143   0.001   0.002   0.013   0.000   0.001
  0.001  -0.001   0.001   0.140   0.001   0.000   0.012   0.000
  0.006  -0.003   0.002   0.001   0.143   0.001   0.000   0.014
 total augmentation occupancy for first ion, spin component:           2
 -0.000   0.000   0.000   0.000  -0.000   0.000   0.000  -0.000
  0.000  -0.000  -0.000  -0.000   0.000  -0.000  -0.000   0.000
  0.000  -0.000  -0.000  -0.000   0.000   0.000   0.000   0.000
  0.000  -0.000  -0.000  -0.000   0.000   0.000   0.000   0.000
 -0.000   0.000   0.000   0.000   0.000   0.000  -0.000   0.000
  0.000  -0.000   0.000   0.000   0.000   0.000   0.000   0.000
  0.000  -0.000   0.000   0.000  -0.000   0.000   0.000  -0.000
 -0.000   0.000   0.000   0.000   0.000   0.000  -0.000   0.000


------------------------ aborting loop because EDIFF is reached ----------------------------------------


    FORLOC:  cpu time      0.4437: real time      0.4438
    FORHF :  cpu time    122.8678: real time    122.8733
    FORNL :  cpu time      6.2575: real time      6.2579
    STRESS:  cpu time     19.0089: real time     19.0099
    FORCOR:  cpu time     15.6176: real time     15.6182
    OFIELD:  cpu time      0.0196: real time      0.0196
 WARNING: Using user supplied parameters
     VDW_A1 = 0.383
     VDW_A2 = 5.685
     VDW_S8 = 2.31
     because the xc functional is not supported. Required parameters not
     defined in the INCAR file will be replaced with PBE defaults ones.


 ---------------------------------------------------------------------------------------------

         DFTD3 V3.0 Rev 1        
 IVDW         = 12
 DF unknown   
 parameters
 VDW_S6       =    1.0000
 VDW_S8       =    2.3100
 VDW_A1       =    0.3830
 VDW_A2       =    5.6850
 k1-k3        =   16.0000    1.3333   -4.0000
 VDW_RADIUS   =   50.2022 A
 VDW_CNRADIUS =   21.1671 A
 Edisp (eV)   -0.57298

 E6    (eV) :    -0.3069
 E8    (eV) :    -0.2661
 % E8        : 46.44
    FORVDW:  cpu time      0.0119: real time      0.0119

  FORCE on cell =-STRESS in cart. coord.  units (eV):
  Direction    XX          YY          ZZ          XY          YZ          ZX
  --------------------------------------------------------------------------------------
  Alpha Z     0.30971     0.30971     0.30971
  Ewald    4776.96063  2875.22740  1116.63100    57.44899   163.71997    11.68085
  Hartree  5204.15444  3376.35966  2135.06363    48.36038    94.08189   -26.85527
  E(xc)    -192.59249  -192.61009  -193.64181    -0.02072     0.18595     0.17168
  Local  -10630.26861 -6886.34324 -3941.13735  -109.34405  -240.07878    26.28545
  n-local  -109.94826  -109.07316  -114.86928     0.26118     1.76250     0.11505
  augment     5.37527     4.55435     6.98752    -0.03318    -1.06632    -0.06026
  Kinetic  1013.13552   998.41117  1058.91481     3.33531   -19.07773   -11.25112
  Fock      -71.88831   -72.12511   -71.54594     0.24469     0.19149    -0.39411
  vdW        -0.36186    -0.18189    -0.07242     0.00494    -0.00900    -0.00480
  -------------------------------------------------------------------------------------
  Total      -5.12397    -5.47120    -3.36013     0.25755    -0.29004    -0.31252
  in kB      -0.12827    -0.13697    -0.08412     0.00645    -0.00726    -0.00782
  external pressure =       -0.12 kB  Pullay stress =        0.00 kB


 VOLUME and BASIS-vectors are now :
 -----------------------------------------------------------------------------
  energy-cutoff  :      500.00
  volume of cell :    64000.00
      direct lattice vectors                 reciprocal lattice vectors
    40.000000000  0.000000000  0.000000000     0.025000000  0.000000000  0.000000000
     0.000000000 40.000000000  0.000000000     0.000000000  0.025000000  0.000000000
     0.000000000  0.000000000 40.000000000     0.000000000  0.000000000  0.025000000

  length of vectors
    40.000000000 40.000000000 40.000000000     0.025000000  0.025000000  0.025000000


 FORCES acting on ions:
    Electron-Ion                     Ewald-Force                    Non-Local-Force
 -----------------------------------------------------------------------------------------------
   0.612E+02 0.189E+03 -.643E+00   -.621E+02 -.190E+03 0.878E+00   0.865E+00 0.507E+00 -.232E+00
   0.636E+02 0.855E+01 -.209E+02   -.678E+02 -.704E+01 0.192E+02   0.399E+01 -.115E+01 0.163E+01
   0.362E+02 -.201E+03 -.338E+01   -.362E+02 0.202E+03 0.250E+01   0.201E+00 -.959E+00 0.920E+00
   0.131E+03 -.183E+03 0.202E+02   -.132E+03 0.183E+03 -.205E+02   0.511E+00 0.173E+00 0.269E+00
   0.199E+03 -.138E+02 0.115E+03   -.199E+03 0.139E+02 -.115E+03   0.191E+00 -.743E-01 0.615E-01
   0.186E+03 0.128E+03 -.514E+02   -.186E+03 -.128E+03 0.513E+02   0.616E+00 -.149E+00 0.123E+00
   -.920E+02 -.153E+03 -.197E+03   0.945E+02 0.156E+03 0.198E+03   -.236E+01 -.307E+01 -.943E+00
   -.106E+03 -.238E+03 0.287E+02   0.103E+03 0.242E+03 -.268E+02   0.282E+01 -.453E+01 -.186E+01
   -.827E+02 0.168E+03 0.183E+03   0.794E+02 -.172E+03 -.184E+03   0.329E+01 0.440E+01 0.127E+01
   -.760E+02 0.244E+03 -.414E+02   0.783E+02 -.247E+03 0.400E+02   -.220E+01 0.305E+01 0.134E+01
   -.359E+00 0.635E+02 -.201E+03   -.333E+01 -.693E+02 0.218E+03   0.345E+01 0.540E+01 -.152E+02
   -.413E+03 -.301E+02 0.139E+03   0.457E+03 0.303E+02 -.145E+03   -.385E+02 -.201E+00 0.565E+01
   0.529E+02 0.658E+01 -.776E+02   -.543E+02 -.545E+01 0.825E+02   0.143E+01 -.113E+01 -.499E+01
   0.619E+02 0.724E+02 0.122E+02   -.647E+02 -.767E+02 -.136E+02   0.279E+01 0.436E+01 0.138E+01
   0.173E+02 0.120E+02 0.881E+02   -.158E+02 -.131E+02 -.931E+02   -.149E+01 0.112E+01 0.495E+01
   0.934E+02 -.123E+02 0.161E+02   -.987E+02 0.132E+02 -.163E+02   0.528E+01 -.838E+00 0.199E+00
   0.554E+02 -.550E+02 -.536E+02   -.579E+02 0.570E+02 0.577E+02   0.253E+01 -.202E+01 -.407E+01
   0.239E+02 -.740E+02 0.531E+02   -.241E+02 0.777E+02 -.568E+02   0.223E+00 -.377E+01 0.372E+01
   -.169E+02 -.901E+02 -.721E+01   0.200E+02 0.946E+02 0.783E+01   -.312E+01 -.446E+01 -.612E+00
   0.124E+02 -.787E+02 -.599E+02   -.152E+02 0.829E+02 0.621E+02   0.283E+01 -.422E+01 -.216E+01
   -.657E+02 -.793E+02 -.120E+02   0.694E+02 0.833E+02 0.131E+02   -.372E+01 -.397E+01 -.117E+01
   0.160E+02 -.655E+02 0.643E+02   -.193E+02 0.674E+02 -.681E+02   0.334E+01 -.191E+01 0.380E+01
   0.220E+02 0.600E+01 0.909E+02   -.253E+02 -.464E+01 -.948E+02   0.337E+01 -.134E+01 0.395E+01
   -.581E+02 0.624E+02 -.624E+02   0.615E+02 -.641E+02 0.662E+02   -.345E+01 0.177E+01 -.379E+01
   0.174E+02 0.949E+02 0.121E+02   -.206E+02 -.992E+02 -.134E+02   0.327E+01 0.430E+01 0.124E+01
   -.574E+02 0.729E+02 0.460E+02   0.606E+02 -.770E+02 -.479E+02   -.327E+01 0.408E+01 0.188E+01
   -.612E+02 -.388E+00 -.863E+02   0.646E+02 -.118E+01 0.901E+02   -.350E+01 0.157E+01 -.381E+01
   0.233E+01 0.635E+02 0.687E+02   -.121E+01 -.657E+02 -.733E+02   -.112E+01 0.229E+01 0.461E+01
   0.558E+01 0.793E+02 -.557E+02   -.436E+01 -.828E+02 0.594E+02   -.122E+01 0.358E+01 -.379E+01
 -----------------------------------------------------------------------------------------------
   0.277E+02 -.310E+01 0.594E+01   -.568E-13 -.242E-12 0.178E-12   -.230E+02 0.279E+01 -.566E+01
 
 
 POSITION                                       TOTAL-FORCE (eV/Angst)
 -----------------------------------------------------------------------------------
     18.80979     18.72730     20.16568        -0.010981     -0.006912     -0.007021
     19.66003     19.96943     20.35867        -0.042276      0.323935     -0.025616
     19.13870     21.20450     20.15378         0.188658     -0.378278      0.081210
     17.70165     21.46795     19.78515        -0.066633     -0.013462     -0.006042
     16.97272     20.21199     19.30198         0.052704     -0.014241      0.009403
     17.30943     19.03066     20.21025         0.028811      0.039425      0.009729
     21.85355     20.84676     21.12163        -0.042973     -0.122386     -0.078812
     22.63761     21.26370     19.87733         0.121504     -0.210321     -0.086738
     22.52008     19.04976     19.05575         0.139661      0.195347      0.058967
     21.73276     18.60862     20.29021        -0.021209      0.157970      0.011599
     20.95878     19.72492     20.84701         0.075372      0.041886     -0.157022
     23.38745     20.15274     19.35669        -0.709938      0.003068      0.110333
     17.01684     19.27207     21.24607         0.072518     -0.043931     -0.229747
     16.74206     18.13348     19.92018         0.138166      0.203254      0.050281
     17.29088     19.97424     18.27280        -0.058976      0.054498      0.224877
     15.88670     20.38590     19.26856         0.245194     -0.032903      0.024601
     17.16017     21.89248     20.65317         0.142167     -0.110746     -0.186130
     17.65802     22.25063     19.00936         0.027417     -0.191765      0.165390
     19.76362     22.08912     20.28211        -0.130079     -0.212840     -0.015706
     21.28544     21.68955     21.53652         0.121749     -0.201280     -0.108779
     23.37264     22.04452     20.11599        -0.169115     -0.183722     -0.053840
     21.95014     21.64663     19.09973         0.175286     -0.124332      0.174820
     21.81785     19.33447     18.24667         0.189443     -0.041277      0.208043
     22.43955     18.25985     21.06200        -0.173446      0.108564     -0.173409
     21.07579     17.76847     20.03661         0.129797      0.204003      0.054422
     23.16814     18.24053     18.69144        -0.150219      0.186929      0.088041
     22.57222     20.51781     21.89182        -0.177443      0.060647     -0.191552
     19.05121     18.25052     19.19877        -0.043659      0.126108      0.213966
     19.06627     17.99146     20.94418        -0.051500      0.182760     -0.165268
 -----------------------------------------------------------------------------------
    total drift:                               -0.019015     -0.009857     -0.007618


--------------------------------------------------------------------------------------------------------



  FREE ENERGIE OF THE ION-ELECTRON SYSTEM (eV)
  ---------------------------------------------------
  free  energy   TOTEN  =      -194.87684363 eV

  energy  without entropy=     -194.87684363  energy(sigma->0) =     -194.87684363
 


--------------------------------------------------------------------------------------------------------


    --------------------------------------------
      INIT:  cpu time      0.4048: real time      0.4048
  FINALIZE:  cpu time     67.0365: real time     67.0428
    --------------------------------------------
    POTLOK:  cpu time     84.8704: real time     84.8773


--------------------------------------------------------------------------------------------------------


 writing wavefunctions
     LOOP+:  cpu time   4657.0306: real time   4659.9191
    4ORBIT:  cpu time      0.0000: real time      0.0000

 total amount of memory used by VASP MPI-rank0  3521836. kBytes
=======================================================================

   base      :      30000. kBytes
   nonlr-proj:       5642. kBytes
   fftplans  :     224335. kBytes
   grid      :     440727. kBytes
   one-center:         18. kBytes
   HF        :         13. kBytes
   wavefun   :     124803. kBytes
   fock_wrk  :    2696298. kBytes
 
  
  
 General timing and accounting informations for this job:
 ========================================================
  
                  Total CPU time used (sec):     4722.319
                            User time (sec):     2803.102
                          System time (sec):     1919.217
                         Elapsed time (sec):     4726.813
  
                   Maximum memory used (kb):     5505140.
                   Average memory used (kb):          N/A
  
                          Minor page faults:     45141271
                          Major page faults:            0
                 Voluntary context switches:         4406
