
                                 *****************
                                 * O   R   C   A *
                                 *****************

                                            #,                                       
                                            ###                                      
                                            ####                                     
                                            #####                                    
                                            ######                                   
                                           ########,                                 
                                     ,,################,,,,,                         
                               ,,#################################,,                 
                          ,,##########################################,,             
                       ,#########################################, ''#####,          
                    ,#############################################,,   '####,        
                  ,##################################################,,,,####,       
                ,###########''''           ''''###############################       
              ,#####''   ,,,,##########,,,,          '''####'''          '####       
            ,##' ,,,,###########################,,,                        '##       
           ' ,,###''''                  '''############,,,                           
         ,,##''                                '''############,,,,        ,,,,,,###''
      ,#''                                            '''#######################'''  
     '                                                          ''''####''''         
             ,#######,   #######,   ,#######,      ##                                
            ,#'     '#,  ##    ##  ,#'     '#,    #''#        ,####,   ,####,        
            ##       ##  ##   ,#'  ##            #'  '#       #'       #'  '#        
            ##       ##  #######   ##           ,######,      #####,   #    #        
            '#,     ,#'  ##    ##  '#,     ,#' ,#      #,     #,   #   #,  ,#        
             '#######'   ##     ##  '#######'  #'      '#     '####' # '####'        



                #########################################################
                #                        -***-                          #
                #          Department of theory and spectroscopy        #
                #                                                       #
                #                      Frank Neese                      #
                #                                                       #
                #     Directorship, Architecture, Infrastructure        #
                #                    SHARK, DRIVERS                     #
                #        Core code/Algorithms in most modules           #
                #                                                       #
                #        Max Planck Institute fuer Kohlenforschung      #
                #                Kaiser Wilhelm Platz 1                 #
                #                 D-45470 Muelheim/Ruhr                 #
                #                      Germany                          #
                #                                                       #
                #                  All rights reserved                  #
                #                        -***-                          #
                #########################################################


                         Program Version 6.0.0  -   RELEASE  -


 With contributions from (in alphabetic order):
   Daniel Aravena         : Magnetic Suceptibility
   Michael Atanasov       : Ab Initio Ligand Field Theory (pilot matlab implementation)
   Alexander A. Auer      : GIAO ZORA, VPT2 properties, NMR spectrum
   Ute Becker             : All parallelization in ORCA, NUMFREQ, NUMCALC
   Giovanni Bistoni       : ED, misc. LED, open-shell LED, HFLD
   Martin Brehm           : Molecular dynamics
   Dmytro Bykov           : pre 5.0 version of the SCF Hessian
   Marcos Casanova-Páez   : Triplet and SCS-CIS(D). UHF-(DLPNO)-IP/EA/STEOM-CCSD. UHF-CVS-IP/STEOM-CCSD
   Vijay G. Chilkuri      : MRCI spin determinant printing, contributions to CSF-ICE
   Pauline Colinet        : FMM embedding
   Dipayan Datta          : RHF DLPNO-CCSD density
   Achintya Kumar Dutta   : EOM-CC, STEOM-CC
   Nicolas Foglia         : Exact transition moments, OPA infrastructure, MCD improvements
   Dmitry Ganyushin       : Spin-Orbit,Spin-Spin,Magnetic field MRCI
   Miquel Garcia          : C-PCM and meta-GGA Hessian, CCSD/C-PCM, Gaussian charge scheme
   Tiago L. C. Gouveia    : GS-ROHF, GS-ROCIS
   Yang Guo               : DLPNO-NEVPT2, F12-NEVPT2, CIM, IAO-localization
   Andreas Hansen         : Spin unrestricted coupled pair/coupled cluster methods
   Ingolf Harden          : AUTO-CI MPn and infrastructure 
   Benjamin Helmich-Paris : MC-RPA, TRAH-(SCF,CASSCF), AVAS, COSX integrals, SCF dyn. polar.
   Lee Huntington         : MR-EOM, pCC
   Robert Izsak           : Overlap fitted RIJCOSX, COSX-SCS-MP3, EOM
   Riya Kayal             : Wick's Theorem for AUTO-CI, AUTO-CI UHF-CCSDT
   Emily Kempfer          : AUTO-CI, RHF CISDT and CCSDT
   Christian Kollmar      : KDIIS, OOCD, Brueckner-CCSD(T), CCSD density, CASPT2, CASPT2-K, improved NEVPT2
   Axel Koslowski         : Symmetry handling
   Simone Kossmann        : Meta GGA functionals, TD-DFT gradient, OOMP2, (MP2 Hessian; deprecated post 5.0)
   Lucas Lang             : DCDCAS
   Marvin Lechner         : AUTO-CI (C++ implementation), FIC-MRCC
   Spencer Leger          : CASSCF response
   Dagmar Lenk            : GEPOL surface, SMD, ORCA-2-JSON
   Dimitrios Liakos       : Extrapolation schemes; Compound Job, initial MDCI parallelization
   Dimitrios Manganas     : Further ROCIS development; embedding schemes. LFT, Crystal Embedding
   Dimitrios Pantazis     : SARC Basis sets
   Anastasios Papadopoulos: AUTO-CI, single reference methods and gradients
   Taras Petrenko         : pre 6.0 DFT Hessian and TD-DFT gradient, (ASA, deprecated), ECA, 1-Electron XAS/XES, NRVS
   Peter Pinski           : DLPNO-MP2, DLPNO-MP2 Gradient
   Christoph Reimann      : Effective Core Potentials
   Marius Retegan         : Local ZFS, SOC
   Christoph Riplinger    : Optimizer, TS searches, QM/MM, DLPNO-CCSD(T), (RO)-DLPNO pert. Triples
   Michael Roemelt        : Original ROCIS implementation
   Masaaki Saitow         : Open-shell DLPNO-CCSD energy and density
   Barbara Sandhoefer     : DKH picture change effects
   Kantharuban Sivalingam : CASSCF convergence/infrastructure, NEVPT2 and variants, FIC-MRCI
   Bernardo de Souza      : ESD, SOC TD-DFT
   Georgi Stoychev        : AutoAux, RI-MP2 NMR, DLPNO-MP2 response, X2C
   Van Anh Tran           : RI-MP2 g-tensors
   Willem Van den Heuvel  : Paramagnetic NMR
   Zikuan Wang            : NOTCH, Electric field optimization 
   Frank Wennmohs         : Technical directorship and infrastructure
   Hang Xu                : AUTO-CI-Response properties 


 We gratefully acknowledge several colleagues who have allowed us to
 interface, adapt or use parts of their codes:
   Stefan Grimme, W. Hujo, H. Kruse, P. Pracht,  : VdW corrections, initial TS optimization,
                  C. Bannwarth, S. Ehlert,         DFT functionals, gCP, sTDA/sTD-DF
                  L. Wittmann, M. Mueller
   Ed Valeev, F. Pavosevic, A. Kumar             : LibInt (2-el integral package), F12 methods
   Garnet Chan, S. Sharma, J. Yang, R. Olivares  : DMRG
   Ulf Ekstrom                                   : XCFun DFT Library
   Mihaly Kallay                                 : mrcc  (arbitrary order and MRCC methods)
   Frank Weinhold                                : gennbo (NPA and NBO analysis)
   Simon Mueller                                 : openCOSMO-RS
   Christopher J. Cramer and Donald G. Truhlar   : smd solvation model
   Lars Goerigk                                  : TD-DFT with DH, B97 family of functionals
   V. Asgeirsson, H. Jonsson                     : NEB implementation
   FAccTs GmbH                                   : IRC, NEB, NEB-TS, DLPNO-Multilevel, CI-OPT
                                                   MM, QMMM, 2- and 3-layer-ONIOM, Crystal-QMMM,
                                                   LR-CPCM, SF, NACMEs, symmetry and pop. for TD-DFT,
                                                   nearIR, NL-DFT gradient (VV10), updates on ESD,
                                                   ML-optimized integration grids, MBIS, APM,
                                                   GOAT, DOCKER, SOLVATOR, interface openCOSMO-RS
   S Lehtola, MJT Oliveira, MAL Marques          : LibXC Library
   Liviu Ungur et al                             : ANISO software


 Your calculation uses the libint2 library for the computation of 2-el integrals
 For citations please refer to: http://libint.valeyev.net

 Your ORCA version has been built with support for libXC version: 6.2.2
 For citations please refer to: https://libxc.gitlab.io

 This ORCA versions uses:
   CBLAS   interface :  Fast vector & matrix operations
   LAPACKE interface :  Fast linear algebra routines
   SCALAPACK package :  Parallel linear algebra routines
   Shared memory     :  Shared parallel matrices
   BLAS/LAPACK       :  OpenBLAS 0.3.27  USE64BITINT DYNAMIC_ARCH NO_AFFINITY Sandybridge SINGLE_THREADED
        Core in use  :  Sandybridge
   Copyright (c) 2011-2014, The OpenBLAS Project


NOTE: MaxCore=5000 MB was set to SCF,MP2,MDCI,CIPSI,MRCI and CIS
      => If you want to overwrite this, your respective input block should be placed after the MaxCore statement
Your calculation utilizes the atom-pairwise dispersion correction
with the Becke-Johnson damping scheme (D3BJ)


Your calculation utilizes the SMD solvation module
Please cite in your paper:
A.V. Marenich, C.J. Cramer, D.G. Truhlar J. Phys. Chem. B, 113, (2009), 6378 

Warning: RI is on but no J-basis has been assigned. Assigning Def2/J (nothing to worry about!)
================================================================================

----- Orbital basis set information -----
Your calculation utilizes the basis: aug-cc-pVTZ 
    H, B-Ne : Obtained from the ccRepo (grant-hill.group.shef.ac.uk/ccrepo) Feb. 2017
              R. A. Kendall, T. H. Dunning, Jr., R. J. Harrison, J. Chem. Phys. 96, 6796 (1992)
         He : Obtained from the ccRepo (grant-hill.group.shef.ac.uk/ccrepo) Feb. 2017
              D. E. Woon, T. H. Dunning, Jr., J. Chem. Phys. 100, 2975 (1994)
  Li-Be, Na : Obtained from the ccRepo (grant-hill.group.shef.ac.uk/ccrepo) Feb. 2017
              B. P. Prascher, D. E. Woon, K. A. Peterson, T. H. Dunning, Jr., A. K. Wilson, Theor. Chem. Acc. 128, 69 (2011)
         Mg : Obtained from the Peterson Research Group Website (tyr0.chem.wsu.edu/~kipeters) Feb. 2017
              B. P. Prascher, D. E. Woon, K. A. Peterson, T. H. Dunning, Jr., A. K. Wilson, Theor. Chem. Acc. 128, 69 (2011)
      Al-Ar : Obtained from the ccRepo (grant-hill.group.shef.ac.uk/ccrepo) Feb. 2017
              D. E. Woon, T. H. Dunning, Jr., J. Chem. Phys. 98, 1358 (1993)
      Sc-Zn : Obtained from the ccRepo (grant-hill.group.shef.ac.uk/ccrepo) Feb. 2017
              N. B. Balabanov, K. A. Peterson, J. Chem. Phys. 123, 064107 (2005)
              N. B. Balabanov, K. A. Peterson, J. Chem. Phys. 125, 074110 (2006)
      Ga-Kr : Obtained from the ccRepo (grant-hill.group.shef.ac.uk/ccrepo) Feb. 2017
              A. K. Wilson, D. E. Woon, K. A. Peterson, T. H. Dunning, Jr., J. Chem. Phys. 110, 7667 (1999)
     Ag, Au : Obtained from the Peterson Research Group Website (tyr0.chem.wsu.edu/~kipeters) Feb. 2017
              K. A. Peterson, C. Puzzarini, Theor. Chem. Acc. 114, 283 (2005)

----- AuxJ basis set information -----
Your calculation utilizes the auxiliary basis: def2/J
   F. Weigend, Phys. Chem. Chem. Phys. 8, 1057 (2006).

================================================================================
                                        WARNINGS
                       Please study these warnings very carefully!
================================================================================

Using LibXC functional ID 497 : Re-regularized SCAN exchange by Furness et al
[ 1]  J. W. Furness, A. D. Kaplan, J. Ning, J. P. Perdew, and J. Sun.,  J. Phys. Chem. Lett. 11, 8208-8215 (2020)
[ 2]  J. W. Furness, A. D. Kaplan, J. Ning, J. P. Perdew, and J. Sun.,  J. Phys. Chem. Lett. 11, 9248-9248 (2020)
Using LibXC functional ID 498 : Re-regularized SCAN correlation by Furness et al
[ 1]  J. W. Furness, A. D. Kaplan, J. Ning, J. P. Perdew, and J. Sun.,  J. Phys. Chem. Lett. 11, 8208-8215 (2020)
[ 2]  J. W. Furness, A. D. Kaplan, J. Ning, J. P. Perdew, and J. Sun.,  J. Phys. Chem. Lett. 11, 9248-9248 (2020)
Using LibXC functional ID 497 : Re-regularized SCAN exchange by Furness et al
[ 1]  J. W. Furness, A. D. Kaplan, J. Ning, J. P. Perdew, and J. Sun.,  J. Phys. Chem. Lett. 11, 8208-8215 (2020)
[ 2]  J. W. Furness, A. D. Kaplan, J. Ning, J. P. Perdew, and J. Sun.,  J. Phys. Chem. Lett. 11, 9248-9248 (2020)
Using LibXC functional ID 498 : Re-regularized SCAN correlation by Furness et al
[ 1]  J. W. Furness, A. D. Kaplan, J. Ning, J. P. Perdew, and J. Sun.,  J. Phys. Chem. Lett. 11, 8208-8215 (2020)
[ 2]  J. W. Furness, A. D. Kaplan, J. Ning, J. P. Perdew, and J. Sun.,  J. Phys. Chem. Lett. 11, 9248-9248 (2020)

WARNING: your system is open-shell and RHF/RKS was chosen
  ===> : WILL SWITCH to UHF/UKS


================================================================================
                                       INPUT FILE
================================================================================
NAME = cs_rporg_169_red_freq_07.inp
|  1> !r2SCANh freq aug-cc-pVTZ d3 TightSCF SlowConv RIJCOSX defgrid2
|  2> 
|  3> %pal
|  4> nprocs 12
|  5> end
|  6> 
|  7> %scf
|  8> MaxIter 1500
|  9> end
| 10> 
| 11> %maxcore 5000
| 12> 
| 13> !CPCM
| 14> %cpcm smd true
| 15> SMDsolvent "MeCN"
| 16> surfacetype gepol_ses
| 17> rsolv 2.19
| 18> end 
| 19> 
| 20> * xyz -1 2
| 21> C          -1.17013457603949     -1.24974204953921     -0.00052742111458
| 22> C          -2.51179811798633     -0.94472995780870     -0.00056145205774
| 23> C          -2.95613045357807      0.38491615548480     -0.00018724672558
| 24> C          -1.99583501959097      1.40730380623080      0.00031890250342
| 25> C          -0.64712770143191      1.12954972948871      0.00039453712511
| 26> C          -0.17499688078084     -0.21634597616530     -0.00004074744951
| 27> C           1.16824357151283     -0.62757066800441      0.00022036032381
| 28> O           1.68937321591770     -1.73064054751012      0.00013281466718
| 29> Cl          2.41875162728163      0.84577804009536      0.00035081674087
| 30> H           0.06695365386672      1.93918484405995      0.00109895797191
| 31> H          -2.31670506281423      2.44220109660614      0.00117817439652
| 32> H          -4.01223662164045      0.61612646437370     -0.00001217335860
| 33> H          -3.23463957246173     -1.75209465731976     -0.00094485257005
| 34> H          -0.84439536225483     -2.28092627999198     -0.00087517045275
| 35> *
| 36> 
| 37>                          ****END OF INPUT****
================================================================================

                       ****************************
                       * Single Point Calculation *
                       ****************************

---------------------------------
CARTESIAN COORDINATES (ANGSTROEM)
---------------------------------
  C     -1.170135   -1.249742   -0.000527
  C     -2.511798   -0.944730   -0.000561
  C     -2.956130    0.384916   -0.000187
  C     -1.995835    1.407304    0.000319
  C     -0.647128    1.129550    0.000395
  C     -0.174997   -0.216346   -0.000041
  C      1.168244   -0.627571    0.000220
  O      1.689373   -1.730641    0.000133
  Cl     2.418752    0.845778    0.000351
  H      0.066954    1.939185    0.001099
  H     -2.316705    2.442201    0.001178
  H     -4.012237    0.616126   -0.000012
  H     -3.234640   -1.752095   -0.000945
  H     -0.844395   -2.280926   -0.000875

----------------------------
CARTESIAN COORDINATES (A.U.)
----------------------------
  NO LB      ZA    FRAG     MASS         X           Y           Z
   0 C     6.0000    0    12.011   -2.211234   -2.361670   -0.000997
   1 C     6.0000    0    12.011   -4.746611   -1.785281   -0.001061
   2 C     6.0000    0    12.011   -5.586277    0.727386   -0.000354
   3 C     6.0000    0    12.011   -3.771582    2.659419    0.000603
   4 C     6.0000    0    12.011   -1.222894    2.134540    0.000746
   5 C     6.0000    0    12.011   -0.330696   -0.408835   -0.000077
   6 C     6.0000    0    12.011    2.207660   -1.185937    0.000416
   7 O     8.0000    0    15.999    3.192453   -3.270437    0.000251
   8 Cl   17.0000    0    35.453    4.570778    1.598289    0.000663
   9 H     1.0000    0     1.008    0.126524    3.664528    0.002077
  10 H     1.0000    0     1.008   -4.377938    4.615091    0.002226
  11 H     1.0000    0     1.008   -7.582028    1.164310   -0.000023
  12 H     1.0000    0     1.008   -6.112583   -3.310979   -0.001786
  13 H     1.0000    0     1.008   -1.595676   -4.310326   -0.001654

--------------------------------
INTERNAL COORDINATES (ANGSTROEM)
--------------------------------
 C      0   0   0     0.000000000000     0.00000000     0.00000000
 C      1   0   0     1.375897320678     0.00000000     0.00000000
 C      2   1   0     1.401923732262   121.28611641     0.00000000
 C      3   2   1     1.402656082267   118.31550824     0.00000000
 C      4   3   2     1.377010807119   121.56938277     0.00000000
 C      5   4   3     1.426303947894   120.96736684     0.00000000
 C      6   5   4     1.404777821591   126.35215004   180.01192888
 O      7   6   5     1.219975111637   132.30936517   179.98570458
 Cl     7   6   5     1.932492388140   113.30136540   359.97007580
 H      5   4   3     1.079546986907   119.77476444   180.01893942
 H      4   3   2     1.083499296083   119.56771074   180.03427965
 H      3   2   1     1.081119084933   120.82703024   180.01263010
 H      2   1   3     1.083668617854   119.03053039   179.99635958
 H      1   2   3     1.081409762052   120.33858613   180.00342048

---------------------------
INTERNAL COORDINATES (A.U.)
---------------------------
 C      0   0   0     0.000000000000     0.00000000     0.00000000
 C      1   0   0     2.600069124478     0.00000000     0.00000000
 C      2   1   0     2.649251914619   121.28611641     0.00000000
 C      3   2   1     2.650635855564   118.31550824     0.00000000
 C      4   3   2     2.602173308905   121.56938277     0.00000000
 C      5   4   3     2.695323845251   120.96736684     0.00000000
 C      6   5   4     2.654645361813   126.35215004   180.01192888
 O      7   6   5     2.305418851195   132.30936517   179.98570458
 Cl     7   6   5     3.651881369473   113.30136540   359.97007580
 H      5   4   3     2.040048153955   119.77476444   180.01893942
 H      4   3   2     2.047516935893   119.56771074   180.03427965
 H      3   2   1     2.043018988679   120.82703024   180.01263010
 H      2   1   3     2.047836907668   119.03053039   179.99635958
 H      1   2   3     2.043568288827   120.33858613   180.00342048

---------------------
BASIS SET INFORMATION
---------------------
There are 4 groups of distinct atoms

 Group   1 Type C   : 19s6p3d2f contracted to 5s4p3d2f pattern {88111/3111/111/11}
 Group   2 Type O   : 19s6p3d2f contracted to 5s4p3d2f pattern {88111/3111/111/11}
 Group   3 Type Cl  : 42s17p3d2f contracted to 6s5p3d2f pattern {131313111/77111/111/11}
 Group   4 Type H   : 6s3p2d contracted to 4s3p2d pattern {3111/111/11}

Atom   0C    basis set group =>   1
Atom   1C    basis set group =>   1
Atom   2C    basis set group =>   1
Atom   3C    basis set group =>   1
Atom   4C    basis set group =>   1
Atom   5C    basis set group =>   1
Atom   6C    basis set group =>   1
Atom   7O    basis set group =>   2
Atom   8Cl   basis set group =>   3
Atom   9H    basis set group =>   4
Atom  10H    basis set group =>   4
Atom  11H    basis set group =>   4
Atom  12H    basis set group =>   4
Atom  13H    basis set group =>   4
---------------------------------
AUXILIARY/J BASIS SET INFORMATION
---------------------------------
There are 4 groups of distinct atoms

 Group   1 Type C   : 12s5p4d2f1g contracted to 6s4p3d1f1g pattern {711111/2111/211/2/1}
 Group   2 Type O   : 12s5p4d2f1g contracted to 6s4p3d1f1g pattern {711111/2111/211/2/1}
 Group   3 Type Cl  : 14s5p5d2f1g contracted to 8s4p3d1f1g pattern {71111111/2111/311/2/1}
 Group   4 Type H   : 5s2p1d contracted to 3s1p1d pattern {311/2/1}

Atom   0C    basis set group =>   1
Atom   1C    basis set group =>   1
Atom   2C    basis set group =>   1
Atom   3C    basis set group =>   1
Atom   4C    basis set group =>   1
Atom   5C    basis set group =>   1
Atom   6C    basis set group =>   1
Atom   7O    basis set group =>   2
Atom   8Cl   basis set group =>   3
Atom   9H    basis set group =>   4
Atom  10H    basis set group =>   4
Atom  11H    basis set group =>   4
Atom  12H    basis set group =>   4
Atom  13H    basis set group =>   4


           ************************************************************
           *        Program running with 12 parallel MPI-processes    *
           *              working on a common directory               *
           ************************************************************
------------------------------------------------------------------------------
                             ORCA STARTUP CALCULATIONS
                           -- RI-GTO INTEGRALS CHOSEN --
------------------------------------------------------------------------------
------------------------------------------------------------------------------
                   ___                                                        
                  /   \      - P O W E R E D   B Y -                         
                 /     \                                                     
                 |  |  |   _    _      __       _____    __    __             
                 |  |  |  | |  | |    /  \     |  _  \  |  |  /  |          
                  \  \/   | |  | |   /    \    | | | |  |  | /  /          
                 / \  \   | |__| |  /  /\  \   | |_| |  |  |/  /          
                |  |  |   |  __  | /  /__\  \  |    /   |      \           
                |  |  |   | |  | | |   __   |  |    \   |  |\   \          
                \     /   | |  | | |  |  |  |  | |\  \  |  | \   \       
                 \___/    |_|  |_| |__|  |__|  |_| \__\ |__|  \__/        
                                                                              
                      - O R C A' S   B I G   F R I E N D -                    
                                      &                                       
                       - I N T E G R A L  F E E D E R -                       
                                                                              
 v1 FN, 2020, v2 2021, v3 2022-2024                                           
------------------------------------------------------------------------------


----------------------
SHARK INTEGRAL PACKAGE
----------------------

Number of atoms                             ...     14
Number of basis functions                   ...    606
Number of shells                            ...    236
Maximum angular momentum                    ...      3
Integral batch strategy                     ... SHARK/LIBINT Hybrid
RI-J (if used) integral strategy            ... SPLIT-RIJ (Revised 2003 algorithm where possible)
Printlevel                                  ...      1
Contraction scheme used                     ... PARTIAL GENERAL contraction
Prescreening option                         ... SCHWARTZ
   Thresh                                   ... 2.500e-11
   Tcut                                     ... 2.500e-12
   Tpresel                                  ... 2.500e-12 
Coulomb Range Separation                    ... NOT USED
Exchange Range Separation                   ... NOT USED
Multipole approximations                    ... NOT USED
Finite Nucleus Model                        ... NOT USED
CABS basis                                  ... NOT available
Auxiliary Coulomb fitting basis             ... AVAILABLE
   # of basis functions in Aux-J            ...    498
   # of shells in Aux-J                     ...    162
   Maximum angular momentum in Aux-J        ...      4
Auxiliary J/K fitting basis                 ... NOT available
Auxiliary Correlation fitting basis         ... NOT available
Auxiliary 'external' fitting basis          ... NOT available

Checking pre-screening integrals            ... done (  0.9 sec) Dimension = 236
Save PGC pre-screening integrals            ... done (  0.9 sec) Dimension = 236
Calculate PGC overlap integrals             ... done (  1.0 sec) Dimension = 173
Calculating pre-screening integrals (ORCA)  ... done (  1.2 sec) Dimension = 173
Check shell pair data                       ... done (  0.6 sec)
Shell pair information
Shell pair cut-off parameter TPreSel        ...   2.5e-12
Total number of shell pairs                 ...     27966
Shell pairs after pre-screening             ...     22748
Total number of primitive shell pairs       ...     34492
Primitive shell pairs kept                  ...     26578
          la=0 lb=0:   5082 shell pairs
          la=1 lb=0:   5844 shell pairs
          la=1 lb=1:   1503 shell pairs
          la=2 lb=0:   3939 shell pairs
          la=2 lb=1:   1949 shell pairs
          la=2 lb=2:    671 shell pairs
          la=3 lb=0:   1980 shell pairs
          la=3 lb=1:    968 shell pairs
          la=3 lb=2:    645 shell pairs
          la=3 lb=3:    167 shell pairs

Calculating one electron integrals          ... done (  0.0 sec)
Calculating RI/J V-Matrix + Cholesky decomp.... done (  0.2 sec)
Calculating Nuclear repulsion               ... done (  0.0 sec) ENN=    456.619222030883 Eh

Diagonalization of the overlap matrix:
Smallest eigenvalue                        ... 6.757e-07
Time for diagonalization                   ...    0.075 sec
Threshold for overlap eigenvalues          ... 1.000e-07
Number of eigenvalues below threshold      ... 0

IMPORTANT:
Smallest eigenvalue of S below the DiffSThresh (1.000e-06) while
Thresh>1e-12 and/or TCut>1e-13! In order to avoid SCF convergence issues,
Thresh will be set to at least 1e-12 and TCut to at least 1e-13.
This can be turned off by adding %SCF DiffSThresh -1 END to the input.

Time for construction of square roots      ...    0.144 sec
Total time needed                          ...    0.804 sec

-------------------
DFT GRID GENERATION
-------------------

General Integration Accuracy     IntAcc      ... 4.388
Radial Grid Type                 RadialGrid  ... OptM3 with GC (2021)
Angular Grid (max. ang.)         AngularGrid ... 4 (Lebedev-302)
Angular grid pruning method      GridPruning ... 4 (adaptive)
Weight generation scheme         WeightScheme... mBecke (2022)
Basis function cutoff            BFCut       ... 1.0000e-11
Integration weight cutoff        WCut        ... 1.0000e-14
Partially contracted basis set               ... off
Rotationally invariant grid construction     ... off
Angular grids for H and He will be reduced by one unit
Diffuse basis detected: some atoms will have their outermost
                        angular grid increased by 1.

Total number of grid points                  ...    75046
Total number of batches                      ...     1182
Average number of points per batch           ...       63
Average number of grid points per atom       ...     5360

---------------------
SHARK GRID GENERATION
---------------------

General Integration Accuracy     IntAcc      ... 4.388
Radial Grid Type                 RadialGrid  ... OptM3 with GC (2021)
Angular Grid (max. ang.)         AngularGrid ... 4 (Lebedev-302)
Angular grid pruning method      GridPruning ... 4 (adaptive)
Weight generation scheme         WeightScheme... mBecke (2022)
Basis function cutoff            BFCut       ... 1.0000e-11
Integration weight cutoff        WCut        ... 1.0000e-14
Partially contracted basis set               ... off
Rotationally invariant grid construction     ... off
Angular grids for H and He will be reduced by one unit
Diffuse basis detected: some atoms will have their outermost
                        angular grid increased by 1.
Core-polarized basis detected: some atoms will have their core
                               angular grid increased.
Steep s-basis detected: some atoms will have their radial
                        grid points doubled.

Total number of grid points                  ...   138134
Total number of batches                      ...     2166
Average number of points per batch           ...       63
Average number of grid points per atom       ...     9867

--------------------
COSX GRID GENERATION
--------------------

GRIDX 1
-------
General Integration Accuracy     IntAcc      ... 3.816
Radial Grid Type                 RadialGrid  ... OptM3 with GC (2021)
Angular Grid (max. ang.)         AngularGrid ... 1 (Lebedev-50)
Angular grid pruning method      GridPruning ... 4 (adaptive)
Weight generation scheme         WeightScheme... mBecke (2022)
Basis function cutoff            BFCut       ... 1.0000e-11
Integration weight cutoff        WCut        ... 1.0000e-14
Partially contracted basis set               ... on
Rotationally invariant grid construction     ... off
Angular grids for H and He will be reduced by one unit
Diffuse basis detected: some atoms will have their outermost
                        angular grid increased by 1.

Total number of grid points                  ...    10645
Total number of batches                      ...       90
Average number of points per batch           ...      118
Average number of grid points per atom       ...      760
UseSFitting                                  ... on

GRIDX 2
-------
General Integration Accuracy     IntAcc      ... 4.020
Radial Grid Type                 RadialGrid  ... OptM3 with GC (2021)
Angular Grid (max. ang.)         AngularGrid ... 2 (Lebedev-110)
Angular grid pruning method      GridPruning ... 4 (adaptive)
Weight generation scheme         WeightScheme... mBecke (2022)
Basis function cutoff            BFCut       ... 1.0000e-11
Integration weight cutoff        WCut        ... 1.0000e-14
Partially contracted basis set               ... on
Rotationally invariant grid construction     ... off
Angular grids for H and He will be reduced by one unit
Diffuse basis detected: some atoms will have their outermost
                        angular grid increased by 1.

Total number of grid points                  ...    23419
Total number of batches                      ...      190
Average number of points per batch           ...      123
Average number of grid points per atom       ...     1673
UseSFitting                                  ... on

GRIDX 3
-------
General Integration Accuracy     IntAcc      ... 4.338
Radial Grid Type                 RadialGrid  ... OptM3 with GC (2021)
Angular Grid (max. ang.)         AngularGrid ... 3 (Lebedev-194)
Angular grid pruning method      GridPruning ... 4 (adaptive)
Weight generation scheme         WeightScheme... mBecke (2022)
Basis function cutoff            BFCut       ... 1.0000e-11
Integration weight cutoff        WCut        ... 1.0000e-14
Partially contracted basis set               ... on
Rotationally invariant grid construction     ... off
Angular grids for H and He will be reduced by one unit
Diffuse basis detected: some atoms will have their outermost
                        angular grid increased by 1.

Total number of grid points                  ...    52285
Total number of batches                      ...      415
Average number of points per batch           ...      125
Average number of grid points per atom       ...     3735
UseSFitting                                  ... on
Initializing property integral containers    ... done (  1.4 sec)

SHARK setup successfully completed in  17.4 seconds

Maximum memory used throughout the entire STARTUP-calculation: 74.1 MB


           ************************************************************
           *        Program running with 12 parallel MPI-processes    *
           *              working on a common directory               *
           ************************************************************
-------------------------------------------------------------------------------
                                 ORCA GUESS
                   Start orbitals & Density for SCF / CASSCF
-------------------------------------------------------------------------------

------------
SCF SETTINGS
------------
Hamiltonian:
 Density Functional     Method          .... DFT(GTOs)
  Functional kind                       .... Exchange
  Functional name                       .... Re-regularized SCAN exchange by Furness et al
  Functional family                     .... MGGA
  Functional refs                              
    [ 0] J. W. Furness, A. D. Kaplan, J. Ning, J. P. Perdew, and J. Sun.,  J. Phys. Chem. Lett. 11, 8208-8215 (2020), doi: 10.1021/acs.jpclett.0c02405
    [ 1] J. W. Furness, A. D. Kaplan, J. Ning, J. P. Perdew, and J. Sun.,  J. Phys. Chem. Lett. 11, 9248-9248 (2020), doi: 10.1021/acs.jpclett.0c03077
  Functional external parameters        .... 6
    Parameter  0 _c1        =  6.670000e-01 : c1 parameter        
    Parameter  1 _c2        =  8.000000e-01 : c2 parameter        
    Parameter  2 _d         =  1.240000e+00 : d parameter         
    Parameter  3 _k1        =  6.500000e-02 : k1 parameter        
    Parameter  4 _eta       =  1.000000e-03 : eta parameter       
    Parameter  5 _dp2       =  3.610000e-01 : dp2 parameter       
  Functional kind                       .... Correlation
  Functional name                       .... Re-regularized SCAN correlation by Furness et al
  Functional family                     .... MGGA
  Functional refs                              
    [ 0] J. W. Furness, A. D. Kaplan, J. Ning, J. P. Perdew, and J. Sun.,  J. Phys. Chem. Lett. 11, 8208-8215 (2020), doi: 10.1021/acs.jpclett.0c02405
    [ 1] J. W. Furness, A. D. Kaplan, J. Ning, J. P. Perdew, and J. Sun.,  J. Phys. Chem. Lett. 11, 9248-9248 (2020), doi: 10.1021/acs.jpclett.0c03077
  Functional external parameters        .... 1
    Parameter  0 _eta       =  1.000000e-03 : Regularization parameter
 Gradients option       PostSCFGGA      .... off
 Hybrid DFT is turned on
   Fraction HF Exchange ScalHFX         ....  0.100000
   Scaling of DF-GGA-X  ScalDFX         ....  0.900000
   Scaling of DF-GGA-C  ScalDFC         ....  1.000000
   Scaling of DF-LDA-C  ScalLDAC        ....  1.000000
   Perturbative correction              ....  0.000000
   NL short-range parameter             .... 11.900000
 RI-approximation to the Coulomb term is turned on
   Number of AuxJ basis functions       .... 498
   RIJ-COSX (HFX calculated with COS-X)).... on


General Settings:
 Integral files         IntName         .... cs_rporg_169_red_freq_07
 Hartree-Fock type      HFTyp           .... UHF
 Total Charge           Charge          ....   -1
 Multiplicity           Mult            ....    2
 Number of Electrons    NEL             ....   73
 Basis Dimension        Dim             ....  533
 Nuclear Repulsion      ENuc            ....    456.6192220309 Eh

Convergence Acceleration:
 AO-DIIS                CNVDIIS         .... on
   Start iteration      DIISMaxIt       ....     0
   Startup error        DIISStart       ....  0.200000
   # of expansion vecs  DIISMaxEq       ....     5
   Bias factor          DIISBfac        ....   1.050
   Max. coefficient     DIISMaxC        ....  10.000
 MO-DIIS                CNVKDIIS        .... off
 Trust-Rad. Augm. Hess. CNVTRAH         .... auto
   Auto Start mean grad. ratio tolernc. ....  1.125000
   Auto Start start iteration           ....    50
   Auto Start num. interpolation iter.  ....    10
   Max. Number of Micro iterations      ....    24
   Max. Number of Macro iterations      .... Maxiter - #DIIS iter
   Number of Davidson start vectors     ....     2
   Converg. threshold    (grad. norm)   ....   1.000e-05
   Grad. Scal. Fac. for Micro threshold ....   0.100
   Minimum threshold for Micro iter.    ....   1.000e-02
   NR start threshold (gradient norm)   ....   1.000e-04
   Initial trust radius                 ....   0.400
   Minimum AH scaling param. (alpha)    ....   1.000
   Maximum AH scaling param. (alpha)    .... 1000.000
   Quad. conv. algorithm                .... NR
   White noise on init. David. guess    .... on
   Maximum white noise                  ....   0.010
   Pseudo random numbers                .... off
   Inactive MOs                         .... canonical
   Orbital update algorithm             .... Taylor
   Preconditioner                       .... Diag
   Full preconditioner red. dimension   ....   250
 SOSCF                  CNVSOSCF        .... on
   Start iteration      SOSCFMaxIt      ....   150
   Startup grad/error   SOSCFStart      ....  0.001000
   Hessian update       SOSCFHessUp     .... L-BFGS
 Level Shifting         CNVShift        .... on
   Level shift para.    LevelShift      ....    0.2500
   Turn off err/grad.   ShiftErr        ....    0.0000
 Zerner damping         CNVZerner       .... off
 Static damping         CNVDamp         .... on
   Fraction old density DampFac         ....    0.8500
   Max. Damping (<1)    DampMax         ....    0.9800
   Min. Damping (>=0)   DampMin         ....    0.0000
   Turn off err/grad.   DampErr         ....    0.0300

SCF Procedure:
 Maximum # iterations   MaxIter         ....  1500
 SCF integral mode      SCFMode         .... Direct
   Integral package                     .... SHARK and LIBINT hybrid scheme
 Reset frequency        DirectResetFreq ....    20
 Integral Threshold     Thresh          ....  1.000e-12 Eh
 Primitive CutOff       TCut            ....  1.000e-13 Eh

Convergence Tolerance:
 Convergence Check Mode ConvCheckMode   .... Total+1el-Energy
 Convergence forced     ConvForced      .... 0
 Energy Change          TolE            ....  1.000e-08 Eh
 1-El. energy change                    ....  1.000e-05 Eh
 Orbital Gradient       TolG            ....  1.000e-05
 Orbital Rotation angle TolX            ....  1.000e-05
 DIIS Error             TolErr          ....  5.000e-07

------------------------------
INITIAL GUESS: MODEL POTENTIAL
------------------------------
Loading Hartree-Fock densities                     ... done
Calculating cut-offs                               ... done
Initializing the effective Hamiltonian             ... done
Setting up the integral package (SHARK)            ... done
Starting the Coulomb interaction                   ... done (   1.5 sec)
Making the grid                                    ... done (   1.2 sec)
Mapping shells                                     ... done
Starting the XC term evaluation                    ... done (   0.4 sec)
  promolecular density results
     # of electrons  =     71.996832930
     EX              =    -72.754136427
     EC              =     -2.491831248
     EX+EC           =    -75.245967674
Transforming the Hamiltonian                       ... done (   0.7 sec)
Diagonalizing the Hamiltonian                      ... done (   0.1 sec)
Back transforming the eigenvectors                 ... done (   1.3 sec)
Now organizing SCF variables                       ... done
                      ------------------
                      INITIAL GUESS DONE (  11.7 sec)
                      ------------------
             **** ENERGY FILE WAS UPDATED (cs_rporg_169_red_freq_07.en.tmp) ****
Finished Guess after  21.9 sec
Maximum memory used throughout the entire GUESS-calculation: 36.7 MB


           ************************************************************
           *        Program running with 12 parallel MPI-processes    *
           *              working on a common directory               *
           ************************************************************

-------------------------------------------------------------------------------------------
                                      ORCA LEAN-SCF
                              memory conserving SCF solver
-------------------------------------------------------------------------------------------

--------------------
CPCM SOLVATION MODEL
--------------------
CPCM parameters:
  Epsilon                                         ...      35.6880
  Refrac                                          ...       1.3442
  Rsolv                                           ...       2.1900
  Surface type                                    ...    GEPOL SES
  Discretization scheme                           ... Constant num. charges
  Epsilon function type                           ...         CPCM
Solvent:                                          ... ACETONITRILE
SMD-CDS solvent descriptors:
  Soln                                            ...       1.3442
  Soln25                                          ...       1.3416
  Sola                                            ...       0.0700
  Solb                                            ...       0.3200
  Solg                                            ...      41.2500
  Solc                                            ...       0.0000
  Solh                                            ...       0.0000
Radii:
  Scheme                                          ... Element-dependent radii
  Radius for C  used is    3.4960 Bohr (=   1.8500 Ang.)
  Radius for O  used is    4.0969 Bohr (=   2.1680 Ang.)
  Radius for Cl used is    4.4975 Bohr (=   2.3800 Ang.)
  Radius for H  used is    2.2677 Bohr (=   1.2000 Ang.)
Calculating surface                               ...        done! (  0.0s)
Cavity surface points                             ...          440
Cavity Volume                                     ...    1153.0736
Cavity Surface-area                               ...     627.5766
Calculating surface distance matrix               ...        done! (  0.0s)
Performing Cholesky decomposition & store         ...        done! (  0.1s)
Overall time for CPCM initialization              ...                 0.1s

----------------------------------------D-I-I-S--------------------------------------------
Iteration    Energy (Eh)           Delta-E    RMSDP     MaxDP     DIISErr   Damp  Time(sec)
-------------------------------------------------------------------------------------------
               ***  Starting incremental Fock matrix formation  ***
    1    -804.9299057759043308     0.00e+00  7.04e-04  4.43e-02  1.52e-01  0.850  48.0
Warning: op=0 Small HOMO/LUMO gap (   0.039) - skipping pre-diagonalization
         Will do a full diagonalization
    2    -805.0022291753533636    -7.23e-02  6.66e-04  3.72e-02  1.06e-01  0.850  53.5
                               ***Turning on AO-DIIS***
    3    -805.0485819258229867    -4.64e-02  4.47e-04  1.92e-02  6.60e-02  0.850  48.7
    4    -805.0780037248365488    -2.94e-02  3.67e-04  1.36e-02  5.51e-02  0.850  49.3
    5    -805.0993941785162633    -2.14e-02  3.09e-04  1.16e-02  4.86e-02  0.850  50.0
    6    -805.1164778538744713    -1.71e-02  2.63e-04  1.07e-02  4.22e-02  0.850  50.0
    7    -805.1306572145393829    -1.42e-02  2.25e-04  1.00e-02  3.51e-02  0.850  50.4
    8    -805.1424499761448033    -1.18e-02  1.90e-04  8.82e-03  2.85e-02  0.850  50.2
    9    -805.1521469063130780    -9.70e-03  1.08e-03  5.02e-02  2.40e-02  0.000  47.4
   10    -805.2030758594099780    -5.09e-02  7.28e-05  3.68e-03  2.65e-03  0.000  48.5
   11    -805.2031481391510397    -7.23e-05  4.39e-05  2.59e-03  4.56e-03  0.000  49.7
                              *** Initializing SOSCF ***
---------------------------------------S-O-S-C-F--------------------------------------
Iteration    Energy (Eh)           Delta-E    RMSDP     MaxDP     MaxGrad    Time(sec)
--------------------------------------------------------------------------------------
   12    -805.2032631765852102    -1.15e-04  3.47e-05  2.02e-03  8.62e-04    51.1
               *** Restarting incremental Fock matrix formation ***
   13    -805.2033106400043607    -4.75e-05  4.98e-04  4.33e-02  1.19e-03    43.6
   14    -805.2033441694928797    -3.35e-05  6.23e-04  4.87e-02  7.51e-04    47.1
   15    -805.2033560470559905    -1.19e-05  5.58e-04  4.44e-02  5.81e-04    46.1
   16    -805.2033712660771698    -1.52e-05  1.72e-04  1.43e-02  2.77e-04    46.2
   17    -805.2033715658777737    -3.00e-07  1.23e-04  1.04e-02  2.29e-04    46.0
   18    -805.2033736297702262    -2.06e-06  1.51e-05  1.22e-03  6.84e-05    45.1
   19    -805.2033735539629333     7.58e-08  1.94e-05  1.60e-03  8.52e-05    45.3
   20    -805.2033737616142162    -2.08e-07  1.61e-06  8.85e-05  9.91e-06    44.6
   21    -805.2033737685873120    -6.97e-09  1.16e-06  1.08e-04  8.49e-06    45.0
                 **** Energy Check signals convergence ****

               *****************************************************
               *                     SUCCESS                       *
               *           SCF CONVERGED AFTER  21 CYCLES          *
               *****************************************************

Recomputing exchange energy using gridx3       ... done (   11.540 sec)
Old exchange energy                            :     -7.404464599 Eh
New exchange energy                            :     -7.404446089 Eh
Exchange energy change after final integration :      0.000018509 Eh
Total energy after final integration           :   -805.203355259 Eh

SMD CDS free energy correction energy :                -2.40549     Kcal/mol
Total Energy after SMD CDS correction =              -805.207188652 Eh
             **** ENERGY FILE WAS UPDATED (cs_rporg_169_red_freq_07.en.tmp) ****

----------------
TOTAL SCF ENERGY
----------------

Total Energy       :       -805.20718865189735 Eh          -21910.80153 eV

Components:
Nuclear Repulsion  :        456.61922203088272 Eh           12425.24072 eV
Electronic Energy  :      -1261.74196788318386 Eh          -34333.74444 eV
One Electron Energy:      -2022.08252779522309 Eh          -55023.66293 eV
Two Electron Energy:        760.34055991203923 Eh           20689.91849 eV
CPCM Dielectric    :         -0.08062791628629 Eh              -2.19400 eV
SMD CDS (Gcds)     :         -0.00383339268253 Eh              -0.10431 eV

Virial components:
Potential Energy   :      -1607.48068519176604 Eh          -43741.77323 eV
Kinetic Energy     :        802.27349653986880 Eh           21830.97171 eV
Virial Ratio       :          2.00365672320559

DFT components:
N(Alpha)           :       37.000029174031 electrons
N(Beta)            :       36.000015828854 electrons
N(Total)           :       73.000045002884 electrons
E(X)               :      -66.830133723624 Eh       
E(C)               :       -2.488053218918 Eh       
E(XC)              :      -69.318186942543 Eh       

CPCM Solvation Model Properties:
Surface-charge          :          0.96491019780434
Corrected charge        :          1.00000000000000
Outlying charge corr.   :          0.00008613395436 Eh               0.00234 eV
Free-energy (cav+disp)  :         -0.00383339268253 Eh              -0.10431 eV

---------------
SCF CONVERGENCE
---------------

  Last Energy change         ...    6.9731e-09  Tolerance :   1.0000e-08
  Last MAX-Density change    ...    1.0778e-04  Tolerance :   1.0000e-07
  Last RMS-Density change    ...    1.1564e-06  Tolerance :   5.0000e-09
  Last DIIS Error            ...    8.6226e-04  Tolerance :   5.0000e-07
  Last Orbital Gradient      ...    8.4903e-06  Tolerance :   1.0000e-05
  Last Orbital Rotation      ...    3.7774e-05  Tolerance :   1.0000e-05


----------------------
UHF SPIN CONTAMINATION
----------------------

Warning: in a DFT calculation there is little theoretical justification to 
         calculate <S**2> as in Hartree-Fock theory. We will do it anyways
         but you should keep in mind that the values have only limited relevance

Expectation value of <S**2>     :     0.783227
Ideal value S*(S+1) for S=0.5   :     0.750000
Deviation                       :     0.033227

----------------
ORBITAL ENERGIES
----------------
                 SPIN UP ORBITALS
  NO   OCC          E(Eh)            E(eV) 
   0   1.0000    -101.534074     -2762.8826 
   1   1.0000     -19.080979      -519.2198 
   2   1.0000     -10.230397      -278.3832 
   3   1.0000     -10.149605      -276.1848 
   4   1.0000     -10.141181      -275.9556 
   5   1.0000     -10.140489      -275.9367 
   6   1.0000     -10.140448      -275.9356 
   7   1.0000     -10.139782      -275.9175 
   8   1.0000     -10.135003      -275.7875 
   9   1.0000      -9.445167      -257.0161 
  10   1.0000      -7.162393      -194.8986 
  11   1.0000      -7.156884      -194.7487 
  12   1.0000      -7.156311      -194.7331 
  13   1.0000      -1.021621       -27.7997 
  14   1.0000      -0.841140       -22.8886 
  15   1.0000      -0.781401       -21.2630 
  16   1.0000      -0.738605       -20.0985 
  17   1.0000      -0.730461       -19.8769 
  18   1.0000      -0.625966       -17.0334 
  19   1.0000      -0.578918       -15.7532 
  20   1.0000      -0.529433       -14.4066 
  21   1.0000      -0.479066       -13.0360 
  22   1.0000      -0.438380       -11.9289 
  23   1.0000      -0.429275       -11.6812 
  24   1.0000      -0.404036       -10.9944 
  25   1.0000      -0.399322       -10.8661 
  26   1.0000      -0.393425       -10.7056 
  27   1.0000      -0.382194       -10.4000 
  28   1.0000      -0.345022        -9.3885 
  29   1.0000      -0.331809        -9.0290 
  30   1.0000      -0.305658        -8.3174 
  31   1.0000      -0.280119        -7.6224 
  32   1.0000      -0.277505        -7.5513 
  33   1.0000      -0.247500        -6.7348 
  34   1.0000      -0.246268        -6.7013 
  35   1.0000      -0.242891        -6.6094 
  36   1.0000      -0.107860        -2.9350 
  37   0.0000      -0.009101        -0.2477 
  38   0.0000       0.005280         0.1437 
  39   0.0000       0.020945         0.5700 
  40   0.0000       0.027238         0.7412 
  41   0.0000       0.030128         0.8198 
  42   0.0000       0.034751         0.9456 
  43   0.0000       0.046443         1.2638 
  44   0.0000       0.047322         1.2877 
  45   0.0000       0.048236         1.3126 
  46   0.0000       0.056279         1.5314 
  47   0.0000       0.071377         1.9423 

                 SPIN DOWN ORBITALS
  NO   OCC          E(Eh)            E(eV) 
   0   1.0000    -101.534059     -2762.8822 
   1   1.0000     -19.074575      -519.0456 
   2   1.0000     -10.224534      -278.2237 
   3   1.0000     -10.149638      -276.1857 
   4   1.0000     -10.143200      -276.0105 
   5   1.0000     -10.142391      -275.9885 
   6   1.0000     -10.136751      -275.8350 
   7   1.0000     -10.136266      -275.8218 
   8   1.0000     -10.129534      -275.6386 
   9   1.0000      -9.445157      -257.0158 
  10   1.0000      -7.162623      -194.9049 
  11   1.0000      -7.156586      -194.7406 
  12   1.0000      -7.156320      -194.7334 
  13   1.0000      -1.010981       -27.5102 
  14   1.0000      -0.836563       -22.7640 
  15   1.0000      -0.778352       -21.1800 
  16   1.0000      -0.733071       -19.9479 
  17   1.0000      -0.726861       -19.7789 
  18   1.0000      -0.611714       -16.6456 
  19   1.0000      -0.577713       -15.7204 
  20   1.0000      -0.525298       -14.2941 
  21   1.0000      -0.473524       -12.8852 
  22   1.0000      -0.435976       -11.8635 
  23   1.0000      -0.424447       -11.5498 
  24   1.0000      -0.402550       -10.9539 
  25   1.0000      -0.392640       -10.6843 
  26   1.0000      -0.379125       -10.3165 
  27   1.0000      -0.371845       -10.1184 
  28   1.0000      -0.329451        -8.9648 
  29   1.0000      -0.328561        -8.9406 
  30   1.0000      -0.304787        -8.2937 
  31   1.0000      -0.276821        -7.5327 
  32   1.0000      -0.273490        -7.4420 
  33   1.0000      -0.239387        -6.5141 
  34   1.0000      -0.236439        -6.4338 
  35   1.0000      -0.225687        -6.1412 
  36   0.0000      -0.042224        -1.1490 
  37   0.0000      -0.003705        -0.1008 
  38   0.0000       0.008744         0.2379 
  39   0.0000       0.025000         0.6803 
  40   0.0000       0.028657         0.7798 
  41   0.0000       0.033473         0.9108 
  42   0.0000       0.048246         1.3128 
  43   0.0000       0.048822         1.3285 
  44   0.0000       0.049550         1.3483 
  45   0.0000       0.057419         1.5625 
  46   0.0000       0.064398         1.7523 
*Only the first 10 virtual orbitals were printed.

                    ********************************
                    * MULLIKEN POPULATION ANALYSIS *
                    ********************************

--------------------------------------------
MULLIKEN ATOMIC CHARGES AND SPIN POPULATIONS
--------------------------------------------
   0 C :   -0.943026    0.297811
   1 C :   -0.413829   -0.200298
   2 C :   -0.409285    0.384763
   3 C :   -0.646500   -0.185813
   4 C :   -0.999254    0.301637
   5 C :    1.743224   -0.018731
   6 C :    0.383530    0.277419
   7 O :   -0.849550    0.208694
   8 Cl:   -0.473979    0.006719
   9 H :    0.183374   -0.016996
  10 H :    0.450436   -0.014409
  11 H :    0.500236   -0.014249
  12 H :    0.392791   -0.006633
  13 H :    0.081832   -0.019913
Sum of atomic charges         :   -1.0000000
Sum of atomic spin populations:    1.0000000

-----------------------------------------------------
MULLIKEN REDUCED ORBITAL CHARGES AND SPIN POPULATIONS
-----------------------------------------------------
CHARGE
  0 C s       :     4.170199  s :     4.170199
      pz      :     1.009399  p :     2.670823
      px      :     0.724159
      py      :     0.937265
      dz2     :    -0.022156  d :     0.123156
      dxz     :     0.019016
      dyz     :     0.007584
      dx2y2   :     0.022658
      dxy     :     0.096054
      f0      :     0.000638  f :    -0.021151
      f+1     :    -0.001723
      f-1     :    -0.001062
      f+2     :    -0.000873
      f-2     :    -0.000654
      f+3     :    -0.001060
      f-3     :    -0.016417

  1 C s       :     3.421076  s :     3.421076
      pz      :     0.973588  p :     2.888684
      px      :     0.986903
      py      :     0.928193
      dz2     :    -0.003081  d :     0.112974
      dxz     :     0.032032
      dyz     :     0.024209
      dx2y2   :    -0.019558
      dxy     :     0.079372
      f0      :     0.000539  f :    -0.008905
      f+1     :     0.000728
      f-1     :    -0.000318
      f+2     :    -0.000572
      f-2     :     0.000523
      f+3     :    -0.001896
      f-3     :    -0.007908

  2 C s       :     3.725119  s :     3.725119
      pz      :     1.045941  p :     2.797289
      px      :     0.949529
      py      :     0.801819
      dz2     :    -0.015059  d :    -0.103042
      dxz     :     0.003029
      dyz     :     0.029709
      dx2y2   :    -0.101999
      dxy     :    -0.018723
      f0      :     0.000894  f :    -0.010082
      f+1     :     0.000481
      f-1     :     0.000246
      f+2     :     0.000470
      f-2     :    -0.000276
      f+3     :    -0.005491
      f-3     :    -0.006406

  3 C s       :     3.613755  s :     3.613755
      pz      :     0.977376  p :     2.935903
      px      :     1.080351
      py      :     0.878176
      dz2     :     0.001919  d :     0.106009
      dxz     :     0.031249
      dyz     :     0.017140
      dx2y2   :    -0.029408
      dxy     :     0.085109
      f0      :     0.000555  f :    -0.009166
      f+1     :    -0.000161
      f-1     :    -0.000229
      f+2     :     0.000862
      f-2     :    -0.000616
      f+3     :    -0.004170
      f-3     :    -0.005407

  4 C s       :     4.062705  s :     4.062705
      pz      :     1.013079  p :     2.873770
      px      :     0.878366
      py      :     0.982325
      dz2     :    -0.021613  d :     0.087022
      dxz     :     0.010511
      dyz     :     0.006677
      dx2y2   :    -0.080563
      dxy     :     0.172010
      f0      :     0.001125  f :    -0.024243
      f+1     :     0.000853
      f-1     :    -0.000771
      f+2     :    -0.000897
      f-2     :     0.000313
      f+3     :    -0.015757
      f-3     :    -0.009108

  5 C s       :     2.603329  s :     2.603329
      pz      :     1.048264  p :     1.681038
      px      :     0.199399
      py      :     0.433375
      dz2     :    -0.025471  d :     0.073596
      dxz     :     0.053429
      dyz     :    -0.005195
      dx2y2   :    -0.037222
      dxy     :     0.088055
      f0      :     0.000589  f :    -0.101188
      f+1     :    -0.005978
      f-1     :    -0.001403
      f+2     :     0.000305
      f-2     :    -0.004861
      f+3     :    -0.023958
      f-3     :    -0.065883

  6 C s       :     3.430522  s :     3.430522
      pz      :     0.899757  p :     2.037369
      px      :     0.585216
      py      :     0.552396
      dz2     :     0.007095  d :     0.147789
      dxz     :     0.040666
      dyz     :     0.043077
      dx2y2   :     0.034999
      dxy     :     0.021952
      f0      :     0.003227  f :     0.000791
      f+1     :     0.000137
      f-1     :     0.000727
      f+2     :     0.002990
      f-2     :     0.005164
      f+3     :    -0.004414
      f-3     :    -0.007040

  7 O s       :     4.042905  s :     4.042905
      pz      :     1.595064  p :     4.746094
      px      :     1.744832
      py      :     1.406198
      dz2     :     0.002310  d :     0.055740
      dxz     :     0.005211
      dyz     :     0.019614
      dx2y2   :     0.019967
      dxy     :     0.008637
      f0      :     0.000734  f :     0.004812
      f+1     :     0.000170
      f-1     :     0.000175
      f+2     :     0.000467
      f-2     :     0.000862
      f+3     :     0.000202
      f-3     :     0.002202

  8 Cls       :     5.984589  s :     5.984589
      pz      :     3.958906  p :    11.443500
      px      :     3.757306
      py      :     3.727288
      dz2     :     0.006663  d :     0.041693
      dxz     :     0.007830
      dyz     :     0.007664
      dx2y2   :     0.003376
      dxy     :     0.016159
      f0      :     0.000753  f :     0.004197
      f+1     :     0.000542
      f-1     :     0.000115
      f+2     :     0.000271
      f-2     :     0.001074
      f+3     :     0.000322
      f-3     :     0.001120

  9 H s       :     0.784461  s :     0.784461
      pz      :     0.017256  p :     0.024195
      px      :    -0.009956
      py      :     0.016896
      dz2     :     0.000005  d :     0.007970
      dxz     :     0.001383
      dyz     :     0.003079
      dx2y2   :     0.002120
      dxy     :     0.001383

 10 H s       :     0.532289  s :     0.532289
      pz      :     0.019918  p :     0.009586
      px      :    -0.001092
      py      :    -0.009240
      dz2     :    -0.000323  d :     0.007689
      dxz     :    -0.000130
      dyz     :     0.004757
      dx2y2   :     0.000824
      dxy     :     0.002561

 11 H s       :     0.510370  s :     0.510370
      pz      :     0.017246  p :    -0.018254
      px      :    -0.025341
      py      :    -0.010159
      dz2     :    -0.000333  d :     0.007648
      dxz     :     0.005239
      dyz     :    -0.000132
      dx2y2   :     0.001619
      dxy     :     0.001255

 12 H s       :     0.595040  s :     0.595040
      pz      :     0.018920  p :     0.005032
      px      :    -0.011352
      py      :    -0.002536
      dz2     :    -0.000637  d :     0.007137
      dxz     :     0.001831
      dyz     :     0.002716
      dx2y2   :     0.001778
      dxy     :     0.001450

 13 H s       :     0.919608  s :     0.919608
      pz      :     0.015109  p :    -0.006476
      px      :    -0.020201
      py      :    -0.001384
      dz2     :    -0.000603  d :     0.005035
      dxz     :    -0.000163
      dyz     :     0.004532
      dx2y2   :     0.002515
      dxy     :    -0.001247


SPIN
  0 C s       :     0.043374  s :     0.043374
      pz      :     0.226004  p :     0.257733
      px      :     0.027161
      py      :     0.004569
      dz2     :    -0.000297  d :    -0.001562
      dxz     :    -0.000278
      dyz     :     0.004126
      dx2y2   :    -0.000974
      dxy     :    -0.004140
      f0      :    -0.000080  f :    -0.001734
      f+1     :    -0.000185
      f-1     :    -0.000462
      f+2     :    -0.000646
      f-2     :    -0.000436
      f+3     :    -0.000314
      f-3     :     0.000390

  1 C s       :    -0.042052  s :    -0.042052
      pz      :    -0.125605  p :    -0.173915
      px      :    -0.027780
      py      :    -0.020530
      dz2     :     0.000661  d :     0.015650
      dxz     :     0.008099
      dyz     :     0.006787
      dx2y2   :    -0.000438
      dxy     :     0.000541
      f0      :     0.000341  f :     0.000018
      f+1     :     0.000257
      f-1     :     0.000065
      f+2     :    -0.000607
      f-2     :     0.000241
      f+3     :     0.000168
      f-3     :    -0.000447

  2 C s       :     0.047513  s :     0.047513
      pz      :     0.298759  p :     0.325439
      px      :     0.004919
      py      :     0.021761
      dz2     :    -0.001847  d :     0.013082
      dxz     :     0.003185
      dyz     :     0.000613
      dx2y2   :     0.013096
      dxy     :    -0.001965
      f0      :    -0.000102  f :    -0.001272
      f+1     :    -0.000468
      f-1     :    -0.000392
      f+2     :    -0.000319
      f-2     :    -0.000044
      f+3     :     0.000089
      f-3     :    -0.000036

  3 C s       :    -0.043903  s :    -0.043903
      pz      :    -0.118415  p :    -0.162073
      px      :    -0.036410
      py      :    -0.007247
      dz2     :     0.000391  d :     0.019853
      dxz     :     0.012299
      dyz     :     0.000225
      dx2y2   :     0.005242
      dxy     :     0.001696
      f0      :     0.000318  f :     0.000309
      f+1     :     0.000320
      f-1     :     0.000007
      f+2     :     0.000430
      f-2     :    -0.000670
      f+3     :    -0.000136
      f-3     :     0.000040

  4 C s       :     0.041049  s :     0.041049
      pz      :     0.207024  p :     0.256252
      px      :     0.031320
      py      :     0.017908
      dz2     :     0.000451  d :     0.004968
      dxz     :     0.000756
      dyz     :     0.004302
      dx2y2   :    -0.002099
      dxy     :     0.001558
      f0      :     0.000097  f :    -0.000632
      f+1     :    -0.000139
      f-1     :    -0.000436
      f+2     :    -0.000818
      f-2     :    -0.000006
      f+3     :     0.000890
      f-3     :    -0.000219

  5 C s       :    -0.006236  s :    -0.006236
      pz      :    -0.010484  p :    -0.040902
      px      :    -0.012096
      py      :    -0.018321
      dz2     :    -0.001641  d :     0.031087
      dxz     :     0.025502
      dyz     :    -0.009144
      dx2y2   :     0.002439
      dxy     :     0.013931
      f0      :     0.000289  f :    -0.002680
      f+1     :    -0.000019
      f-1     :    -0.000166
      f+2     :    -0.000144
      f-2     :    -0.001916
      f+3     :     0.000524
      f-3     :    -0.001247

  6 C s       :     0.018608  s :     0.018608
      pz      :     0.257433  p :     0.249603
      px      :     0.009438
      py      :    -0.017268
      dz2     :    -0.001521  d :     0.013851
      dxz     :     0.003945
      dyz     :     0.012274
      dx2y2   :     0.000410
      dxy     :    -0.001257
      f0      :    -0.000076  f :    -0.004642
      f+1     :    -0.000240
      f-1     :    -0.000369
      f+2     :    -0.000576
      f-2     :    -0.000541
      f+3     :    -0.001196
      f-3     :    -0.001644

  7 O s       :     0.014776  s :     0.014776
      pz      :     0.175098  p :     0.187386
      px      :     0.009336
      py      :     0.002952
      dz2     :     0.000145  d :     0.006527
      dxz     :     0.001103
      dyz     :     0.004552
      dx2y2   :     0.000938
      dxy     :    -0.000211
      f0      :    -0.000009  f :     0.000004
      f+1     :    -0.000007
      f-1     :    -0.000037
      f+2     :    -0.000019
      f-2     :     0.000079
      f+3     :    -0.000014
      f-3     :     0.000010

  8 Cls       :     0.004613  s :     0.004613
      pz      :     0.011202  p :    -0.002751
      px      :    -0.004687
      py      :    -0.009267
      dz2     :    -0.000105  d :     0.004630
      dxz     :     0.003280
      dyz     :     0.002415
      dx2y2   :    -0.000713
      dxy     :    -0.000247
      f0      :     0.000098  f :     0.000227
      f+1     :     0.000003
      f-1     :    -0.000021
      f+2     :    -0.000027
      f-2     :     0.000333
      f+3     :    -0.000116
      f-3     :    -0.000043

  9 H s       :    -0.016584  s :    -0.016584
      pz      :     0.002147  p :    -0.000173
      px      :     0.001305
      py      :    -0.003625
      dz2     :     0.000152  d :    -0.000239
      dxz     :    -0.000021
      dyz     :    -0.000009
      dx2y2   :    -0.000199
      dxy     :    -0.000162

 10 H s       :    -0.009811  s :    -0.009811
      pz      :    -0.004109  p :    -0.003638
      px      :    -0.001597
      py      :     0.002068
      dz2     :    -0.000106  d :    -0.000960
      dxz     :    -0.000369
      dyz     :    -0.000433
      dx2y2   :     0.000032
      dxy     :    -0.000083

 11 H s       :    -0.019488  s :    -0.019488
      pz      :     0.005504  p :     0.004595
      px      :     0.000072
      py      :    -0.000981
      dz2     :     0.000216  d :     0.000645
      dxz     :     0.000739
      dyz     :     0.000124
      dx2y2   :    -0.000121
      dxy     :    -0.000314

 12 H s       :    -0.001545  s :    -0.001545
      pz      :    -0.004499  p :    -0.004064
      px      :    -0.000367
      py      :     0.000802
      dz2     :    -0.000113  d :    -0.001024
      dxz     :    -0.000419
      dyz     :    -0.000450
      dx2y2   :    -0.000084
      dxy     :     0.000041

 13 H s       :    -0.016196  s :    -0.016196
      pz      :     0.001599  p :    -0.003424
      px      :    -0.001448
      py      :    -0.003575
      dz2     :     0.000144  d :    -0.000294
      dxz     :    -0.000137
      dyz     :     0.000086
      dx2y2   :    -0.000078
      dxy     :    -0.000308



                     *******************************
                     * LOEWDIN POPULATION ANALYSIS *
                     *******************************

-------------------------------------------
LOEWDIN ATOMIC CHARGES AND SPIN POPULATIONS
-------------------------------------------
   0 C :    0.141736    0.105150
   1 C :    0.142986    0.019140
   2 C :    0.154069    0.139203
   3 C :    0.140293    0.020032
   4 C :    0.104533    0.102054
   5 C :   -0.334540    0.114620
   6 C :   -1.124530    0.212987
   7 O :    0.287129    0.191960
   8 Cl:    0.573233    0.026642
   9 H :   -0.278813    0.023190
  10 H :   -0.194583   -0.009067
  11 H :   -0.207228    0.038877
  12 H :   -0.193549   -0.009627
  13 H :   -0.210735    0.024839

----------------------------------------------------
LOEWDIN REDUCED ORBITAL CHARGES AND SPIN POPULATIONS
----------------------------------------------------
CHARGE
  0 C s       :     2.483729  s :     2.483729
      pz      :     0.622804  p :     2.295061
      px      :     0.853601
      py      :     0.818657
      dz2     :     0.070879  d :     0.733469
      dxz     :     0.139064
      dyz     :     0.051467
      dx2y2   :     0.254635
      dxy     :     0.217424
      f0      :     0.022189  f :     0.346005
      f+1     :     0.031462
      f-1     :     0.020030
      f+2     :     0.027362
      f-2     :     0.047399
      f+3     :     0.090293
      f-3     :     0.107269

  1 C s       :     2.491810  s :     2.491810
      pz      :     0.609376  p :     2.298372
      px      :     0.849672
      py      :     0.839324
      dz2     :     0.068048  d :     0.732350
      dxz     :     0.099119
      dyz     :     0.095765
      dx2y2   :     0.174677
      dxy     :     0.294743
      f0      :     0.018478  f :     0.334481
      f+1     :     0.025879
      f-1     :     0.024511
      f+2     :     0.059079
      f-2     :     0.012708
      f+3     :     0.085735
      f-3     :     0.108091

  2 C s       :     2.492672  s :     2.492672
      pz      :     0.646718  p :     2.322177
      px      :     0.831717
      py      :     0.843742
      dz2     :     0.067082  d :     0.701611
      dxz     :     0.053878
      dyz     :     0.118892
      dx2y2   :     0.268727
      dxy     :     0.193033
      f0      :     0.021580  f :     0.329470
      f+1     :     0.020146
      f-1     :     0.029501
      f+2     :     0.017947
      f-2     :     0.050166
      f+3     :     0.083970
      f-3     :     0.106161

  3 C s       :     2.491569  s :     2.491569
      pz      :     0.611251  p :     2.299885
      px      :     0.859970
      py      :     0.828665
      dz2     :     0.068244  d :     0.732917
      dxz     :     0.143614
      dyz     :     0.050738
      dx2y2   :     0.253664
      dxy     :     0.216657
      f0      :     0.018522  f :     0.335336
      f+1     :     0.030187
      f-1     :     0.020404
      f+2     :     0.027698
      f-2     :     0.044035
      f+3     :     0.086138
      f-3     :     0.108352

  4 C s       :     2.487415  s :     2.487415
      pz      :     0.621859  p :     2.311948
      px      :     0.866118
      py      :     0.823971
      dz2     :     0.073492  d :     0.751695
      dxz     :     0.104703
      dyz     :     0.091881
      dx2y2   :     0.199496
      dxy     :     0.282123
      f0      :     0.022055  f :     0.344410
      f+1     :     0.027329
      f-1     :     0.023793
      f+2     :     0.054788
      f-2     :     0.019740
      f+3     :     0.088849
      f-3     :     0.107855

  5 C s       :     2.483044  s :     2.483044
      pz      :     0.674072  p :     2.361204
      px      :     0.844776
      py      :     0.842356
      dz2     :     0.093256  d :     0.985943
      dxz     :     0.170435
      dyz     :     0.124605
      dx2y2   :     0.313623
      dxy     :     0.284024
      f0      :     0.031835  f :     0.504348
      f+1     :     0.036627
      f-1     :     0.033550
      f+2     :     0.048582
      f-2     :     0.070799
      f+3     :     0.126395
      f-3     :     0.156560

  6 C s       :     2.573486  s :     2.573486
      pz      :     0.710248  p :     2.398445
      px      :     0.859498
      py      :     0.828699
      dz2     :     0.124986  d :     1.443739
      dxz     :     0.201640
      dyz     :     0.240498
      dx2y2   :     0.378242
      dxy     :     0.498373
      f0      :     0.052459  f :     0.708860
      f+1     :     0.037786
      f-1     :     0.050024
      f+2     :     0.056647
      f-2     :     0.094348
      f+3     :     0.180420
      f-3     :     0.237177

  7 O s       :     3.235493  s :     3.235493
      pz      :     1.320595  p :     4.143810
      px      :     1.406760
      py      :     1.416455
      dz2     :     0.027364  d :     0.254009
      dxz     :     0.019078
      dyz     :     0.061467
      dx2y2   :     0.066870
      dxy     :     0.079230
      f0      :     0.009229  f :     0.079560
      f+1     :     0.003255
      f-1     :     0.008661
      f+2     :     0.006616
      f-2     :     0.011531
      f+3     :     0.019207
      f-3     :     0.021061

  8 Cls       :     5.460370  s :     5.460370
      pz      :     3.701375  p :    10.700972
      px      :     3.504795
      py      :     3.494803
      dz2     :     0.030299  d :     0.210578
      dxz     :     0.025707
      dyz     :     0.030633
      dx2y2   :     0.059996
      dxy     :     0.063944
      f0      :     0.005125  f :     0.054847
      f+1     :     0.004635
      f-1     :     0.006264
      f+2     :     0.001753
      f-2     :     0.009726
      f+3     :     0.013460
      f-3     :     0.013884

  9 H s       :     0.663877  s :     0.663877
      pz      :     0.093850  p :     0.362063
      px      :     0.150960
      py      :     0.117253
      dz2     :     0.030321  d :     0.252874
      dxz     :     0.035635
      dyz     :     0.033986
      dx2y2   :     0.098427
      dxy     :     0.054505

 10 H s       :     0.666356  s :     0.666356
      pz      :     0.087618  p :     0.309241
      px      :     0.085815
      py      :     0.135808
      dz2     :     0.023007  d :     0.218986
      dxz     :     0.011619
      dyz     :     0.055297
      dx2y2   :     0.057732
      dxy     :     0.071331

 11 H s       :     0.673324  s :     0.673324
      pz      :     0.099374  p :     0.317822
      px      :     0.137292
      py      :     0.081155
      dz2     :     0.022554  d :     0.216082
      dxz     :     0.061142
      dyz     :     0.006145
      dx2y2   :     0.051081
      dxy     :     0.075161

 12 H s       :     0.666291  s :     0.666291
      pz      :     0.086907  p :     0.308583
      px      :     0.107255
      py      :     0.114421
      dz2     :     0.022939  d :     0.218675
      dxz     :     0.032363
      dyz     :     0.034410
      dx2y2   :     0.083375
      dxy     :     0.045588

 13 H s       :     0.657644  s :     0.657644
      pz      :     0.091076  p :     0.326210
      px      :     0.100154
      py      :     0.134980
      dz2     :     0.025737  d :     0.226881
      dxz     :     0.012214
      dyz     :     0.054489
      dx2y2   :     0.062451
      dxy     :     0.071990


SPIN
  0 C s       :     0.004176  s :     0.004176
      pz      :     0.102357  p :     0.106905
      px      :     0.002382
      py      :     0.002166
      dz2     :    -0.001006  d :    -0.001814
      dxz     :    -0.003528
      dyz     :     0.005198
      dx2y2   :    -0.001391
      dxy     :    -0.001087
      f0      :     0.000008  f :    -0.004116
      f+1     :    -0.000079
      f-1     :    -0.000364
      f+2     :    -0.001852
      f-2     :    -0.000426
      f+3     :    -0.000602
      f-3     :    -0.000802

  1 C s       :    -0.002824  s :    -0.002824
      pz      :    -0.050717  p :    -0.057583
      px      :    -0.003472
      py      :    -0.003394
      dz2     :     0.000513  d :     0.060031
      dxz     :     0.027909
      dyz     :     0.028296
      dx2y2   :     0.001621
      dxy     :     0.001691
      f0      :     0.003097  f :     0.019516
      f+1     :    -0.000028
      f-1     :    -0.000084
      f+2     :     0.012147
      f-2     :     0.002860
      f+3     :     0.000775
      f-3     :     0.000749

  2 C s       :     0.006010  s :     0.006010
      pz      :     0.144491  p :     0.152123
      px      :     0.003364
      py      :     0.004268
      dz2     :    -0.001508  d :    -0.009691
      dxz     :     0.008982
      dyz     :    -0.014289
      dx2y2   :    -0.001562
      dxy     :    -0.001313
      f0      :    -0.000440  f :    -0.009239
      f+1     :    -0.000481
      f-1     :    -0.000075
      f+2     :    -0.002436
      f-2     :    -0.004414
      f+3     :    -0.000696
      f-3     :    -0.000697

  3 C s       :    -0.002722  s :    -0.002722
      pz      :    -0.047983  p :    -0.054686
      px      :    -0.004178
      py      :    -0.002525
      dz2     :     0.000482  d :     0.058503
      dxz     :     0.046989
      dyz     :     0.007822
      dx2y2   :     0.001566
      dxy     :     0.001645
      f0      :     0.003025  f :     0.018938
      f+1     :    -0.000162
      f-1     :     0.000046
      f+2     :     0.004124
      f-2     :     0.010414
      f+3     :     0.000779
      f-3     :     0.000712

  4 C s       :     0.003966  s :     0.003966
      pz      :     0.096244  p :     0.100659
      px      :     0.002370
      py      :     0.002045
      dz2     :    -0.000927  d :     0.001001
      dxz     :    -0.004210
      dyz     :     0.008580
      dx2y2   :    -0.001070
      dxy     :    -0.001372
      f0      :     0.000180  f :    -0.003573
      f+1     :    -0.000125
      f-1     :    -0.000315
      f+2     :    -0.004986
      f-2     :     0.003069
      f+3     :    -0.000631
      f-3     :    -0.000764

  5 C s       :    -0.001087  s :    -0.001087
      pz      :     0.014852  p :     0.006018
      px      :    -0.006282
      py      :    -0.002552
      dz2     :     0.000003  d :     0.076162
      dxz     :     0.061164
      dyz     :     0.011094
      dx2y2   :     0.002431
      dxy     :     0.001470
      f0      :     0.004064  f :     0.033527
      f+1     :    -0.000241
      f-1     :    -0.000114
      f+2     :     0.021088
      f-2     :     0.006749
      f+3     :     0.001254
      f-3     :     0.000728

  6 C s       :     0.006905  s :     0.006905
      pz      :     0.151844  p :     0.153906
      px      :     0.000928
      py      :     0.001134
      dz2     :    -0.000584  d :     0.038617
      dxz     :     0.013933
      dyz     :     0.026661
      dx2y2   :    -0.000704
      dxy     :    -0.000689
      f0      :     0.005032  f :     0.013558
      f+1     :    -0.000260
      f-1     :    -0.000328
      f+2     :     0.007314
      f-2     :     0.001785
      f+3     :     0.000163
      f-3     :    -0.000148

  7 O s       :     0.003115  s :     0.003115
      pz      :     0.133444  p :     0.136157
      px      :     0.003574
      py      :    -0.000861
      dz2     :     0.000239  d :     0.041266
      dxz     :     0.008542
      dyz     :     0.031010
      dx2y2   :     0.000798
      dxy     :     0.000677
      f0      :     0.003925  f :     0.011421
      f+1     :    -0.000019
      f-1     :    -0.000055
      f+2     :     0.002331
      f-2     :     0.004893
      f+3     :     0.000206
      f-3     :     0.000141

  8 Cls       :     0.000249  s :     0.000249
      pz      :     0.012697  p :     0.002588
      px      :    -0.004436
      py      :    -0.005672
      dz2     :    -0.000079  d :     0.018135
      dxz     :     0.010346
      dyz     :     0.007569
      dx2y2   :    -0.000352
      dxy     :     0.000651
      f0      :     0.001405  f :     0.005670
      f+1     :    -0.000004
      f-1     :    -0.000006
      f+2     :    -0.000009
      f-2     :     0.003994
      f+3     :     0.000171
      f-3     :     0.000120

  9 H s       :    -0.003515  s :    -0.003515
      pz      :     0.015841  p :     0.017206
      px      :     0.000783
      py      :     0.000583
      dz2     :    -0.000024  d :     0.009498
      dxz     :     0.006302
      dyz     :     0.002587
      dx2y2   :     0.000163
      dxy     :     0.000470

 10 H s       :     0.001827  s :     0.001827
      pz      :    -0.007429  p :    -0.008529
      px      :    -0.000357
      py      :    -0.000744
      dz2     :     0.000006  d :    -0.002365
      dxz     :     0.003133
      dyz     :    -0.004816
      dx2y2   :    -0.000372
      dxy     :    -0.000317

 11 H s       :    -0.005428  s :    -0.005428
      pz      :     0.027181  p :     0.029304
[...]
      8      -0.000000  -0.000002  -0.000001  -0.000002  -0.000004  -0.000000
      9       0.068564  -0.011705  -0.022135   0.002402   0.002539  -0.007755
     10       0.001514   0.037832   0.067973  -0.013332  -0.015399   0.018058
     11       0.000028   0.000016   0.000030  -0.000005  -0.000005   0.000007
     12      -0.094589  -0.003276  -0.005452   0.002126   0.009424   0.055727
     13       0.084522  -0.005305  -0.009336   0.004427   0.011842   0.062263
     14       0.000023  -0.000004  -0.000008   0.000003   0.000009   0.000050
     15       0.328232  -0.000218  -0.000102   0.001751  -0.000716   0.001662
     16      -0.159547   0.000148  -0.000781   0.000705  -0.000809  -0.001808
     17       0.000003   0.000001   0.000002   0.000001  -0.000001   0.000002
     18      -0.521855   0.000088   0.000090   0.000364  -0.000298   0.000356
     19       0.572085  -0.000081  -0.000197  -0.000741   0.000385   0.000668
     20       0.000027  -0.000000   0.000001  -0.000000  -0.000000  -0.000000
     21       0.186877  -0.000167   0.000015   0.000037  -0.000046  -0.000208
     22      -0.373161   0.000104   0.000133   0.000488  -0.000143   0.000068
     23      -0.000011   0.000001   0.000002   0.000000  -0.000001   0.000000
     24       0.013037  -0.000036  -0.000061  -0.000046   0.000115   0.000237
     25       0.007426   0.000001   0.000026  -0.000052  -0.000007  -0.000185
     26      -0.000012  -0.000001  -0.000000  -0.000000  -0.000000  -0.000000
     27       0.119515   0.053214   0.095378  -0.036679  -0.120016  -0.636772
     28      -0.090763   0.061868   0.110588  -0.044890  -0.137880  -0.724096
     29       0.000126   0.000040   0.000074  -0.000035  -0.000108  -0.000614
     30      -0.028872   0.136952   0.245706  -0.040591  -0.045832   0.061048
     31      -0.032974  -0.443507  -0.791516   0.136721   0.158837  -0.191458
     32      -0.000001  -0.000221  -0.000401   0.000071   0.000078  -0.000095
     33      -0.042479  -0.315011  -0.095374  -0.532533  -0.734676   0.129272
     34       0.000221   0.068266   0.024381   0.115083   0.162160  -0.027070
     35      -0.000047   0.000022   0.000000   0.000040   0.000055  -0.000012
     36      -0.061668   0.523890  -0.334918   0.067290  -0.219118   0.031311
     37       0.072548   0.585688  -0.373371   0.069536  -0.246958   0.035756
     38       0.000063   0.000211  -0.000131   0.000023  -0.000088   0.000012
     39       0.103924   0.064936  -0.044516  -0.241655   0.152590  -0.014145
     40       0.083714  -0.212602   0.145725   0.777314  -0.482746   0.048456
     41      -0.000081  -0.000059   0.000040   0.000236  -0.000146   0.000015


-----------
IR SPECTRUM
-----------

 Mode   freq       eps      Int      T**2         TX        TY        TZ
       cm**-1   L/(mol*cm) km/mol    a.u.
----------------------------------------------------------------------------
  6:     83.17   0.000064    0.32  0.000240  (-0.000304 -0.000504 -0.015467)
  7:    136.76   0.000076    0.38  0.000174  (-0.000386 -0.000519  0.013159)
  8:    178.68   0.001018    5.15  0.001778  ( 0.032047  0.027410  0.000129)
  9:    263.68   0.025038  126.53  0.029632  ( 0.125554  0.117762  0.000112)
 10:    342.73   0.000237    1.20  0.000216  (-0.000290  0.000166 -0.014680)
 11:    351.79   0.004090   20.67  0.003628  ( 0.029535  0.052493 -0.000075)
 12:    433.13   0.000103    0.52  0.000074  ( 0.000132  0.000053 -0.008604)
 13:    483.13   0.007128   36.02  0.004604  (-0.065571 -0.017407  0.001174)
 14:    484.36   0.006452   32.61  0.004157  ( 0.000818  0.000299  0.064470)
 15:    610.00   0.050707  256.25  0.025941  (-0.125056 -0.101499 -0.000043)
 16:    627.40   0.002010   10.16  0.001000  ( 0.027327  0.015907 -0.000318)
 17:    684.45   0.023953  121.05  0.010921  ( 0.000081  0.000221 -0.104504)
 18:    714.42   0.014578   73.67  0.006368  ( 0.000081 -0.000065  0.079798)
 19:    811.10   0.000020    0.10  0.000008  (-0.000219 -0.000358  0.002756)
 20:    815.52   0.034112  172.39  0.013053  (-0.069637 -0.090575 -0.000050)
 21:    829.98   0.003156   15.95  0.001186  ( 0.000041 -0.000143 -0.034444)
 22:    979.33   0.000001    0.00  0.000000  ( 0.000094  0.000301  0.000419)
 23:    980.25   0.000005    0.02  0.000002  ( 0.000298 -0.000495 -0.001094)
 24:    992.40   0.005789   29.26  0.001820  ( 0.031640 -0.028623  0.000080)
 25:   1020.67   0.017478   88.33  0.005344  (-0.069718  0.021979  0.000062)
 26:   1098.92   0.002547   12.87  0.000723  ( 0.018836 -0.019194  0.000003)
 27:   1151.04   0.001639    8.28  0.000444  ( 0.007965 -0.019516  0.000025)
 28:   1176.20   0.010918   55.18  0.002897  ( 0.028936 -0.045381  0.000012)
 29:   1238.30   0.028098  142.00  0.007081  (-0.014500 -0.082890 -0.000011)
 30:   1312.83   0.003184   16.09  0.000757  ( 0.027339  0.003081 -0.000020)
 31:   1368.99   0.008209   41.48  0.001871  (-0.021532 -0.037518 -0.000059)
 32:   1450.48   0.002394   12.10  0.000515  (-0.016060  0.016033  0.000023)
 33:   1489.28   0.012477   63.05  0.002614  (-0.037981  0.034232  0.000025)
 34:   1536.44   0.003010   15.21  0.000611  (-0.013973  0.020399 -0.000019)
 35:   1607.54   0.076089  384.52  0.014771  (-0.109718  0.052275  0.000043)
 36:   1743.36   0.195852  989.75  0.035058  (-0.129362  0.135364 -0.000014)
 37:   3167.33   0.002546   12.87  0.000251  (-0.015726 -0.001880 -0.000027)
 38:   3171.03   0.008026   40.56  0.000790  ( 0.002633  0.027981 -0.000078)
 39:   3199.09   0.005659   28.60  0.000552  ( 0.008572 -0.021876  0.000034)
 40:   3205.42   0.007250   36.64  0.000706  ( 0.024531  0.010201  0.000033)
 41:   3219.42   0.001942    9.81  0.000188  (-0.001327  0.013655  0.000039)

* The epsilon (eps) is given for a Dirac delta lineshape.
** The dipole moment derivative (T) already includes vibrational overlap.

The first frequency considered to be a vibration is 6
The total number of vibrations considered is 36


--------------------------
THERMOCHEMISTRY AT 298.15K
--------------------------

Temperature         ...   298.15 K
Pressure            ...     1.00 atm
Total Mass          ...   140.57 AMU
Quasi RRHO          ...     True
Cut-Off Frequency   ...     1.00 cm^-1

Throughout the following assumptions are being made:
  (1) The electronic state is orbitally nondegenerate
      but the spin degeneracy is treated
  (2) There are no thermally accessible electronically excited states
  (3) Hindered rotations indicated by low frequency modes are not
      treated as such but are treated as vibrations and this may
      cause some error
  (4) All equations used are the standard statistical mechanics
      equations for an ideal gas
  (5) All vibrations are strictly harmonic

freq.      83.17  E(vib)   ...       0.48 
freq.     136.76  E(vib)   ...       0.42 
freq.     178.68  E(vib)   ...       0.37 
freq.     263.68  E(vib)   ...       0.29 
freq.     342.73  E(vib)   ...       0.23 
freq.     351.79  E(vib)   ...       0.23 
freq.     433.13  E(vib)   ...       0.17 
freq.     483.13  E(vib)   ...       0.15 
freq.     484.36  E(vib)   ...       0.15 
freq.     610.00  E(vib)   ...       0.10 
freq.     627.40  E(vib)   ...       0.09 
freq.     684.45  E(vib)   ...       0.07 
freq.     714.42  E(vib)   ...       0.07 
freq.     811.10  E(vib)   ...       0.05 
freq.     815.52  E(vib)   ...       0.05 
freq.     829.98  E(vib)   ...       0.04 
freq.     979.33  E(vib)   ...       0.03 
freq.     980.25  E(vib)   ...       0.02 
freq.     992.40  E(vib)   ...       0.02 
freq.    1020.67  E(vib)   ...       0.02 
freq.    1098.92  E(vib)   ...       0.02 
freq.    1151.04  E(vib)   ...       0.01 
freq.    1176.20  E(vib)   ...       0.01 
freq.    1238.30  E(vib)   ...       0.01 
freq.    1312.83  E(vib)   ...       0.01 
freq.    1368.99  E(vib)   ...       0.01 
freq.    1450.48  E(vib)   ...       0.00 
freq.    1489.28  E(vib)   ...       0.00 
freq.    1536.44  E(vib)   ...       0.00 
freq.    1607.54  E(vib)   ...       0.00 
freq.    1743.36  E(vib)   ...       0.00 
freq.    3167.33  E(vib)   ...       0.00 
freq.    3171.03  E(vib)   ...       0.00 
freq.    3199.09  E(vib)   ...       0.00 
freq.    3205.42  E(vib)   ...       0.00 
freq.    3219.42  E(vib)   ...       0.00 

------------
INNER ENERGY
------------

The inner energy is: U= E(el) + E(ZPE) + E(vib) + E(rot) + E(trans)
    E(el)   - is the total energy from the electronic structure calculation
              = E(kin-el) + E(nuc-el) + E(el-el) + E(nuc-nuc)
    E(ZPE)  - the the zero temperature vibrational energy from the frequency calculation
    E(vib)  - the the finite temperature correction to E(ZPE) due to population
              of excited vibrational states
    E(rot)  - is the rotational thermal energy
    E(trans)- is the translational thermal energy

Summary of contributions to the inner energy U:
Electronic energy                ...   -805.21214880 Eh
Zero point energy                ...      0.09786688 Eh      61.41 kcal/mol
Thermal vibrational correction   ...      0.00499154 Eh       3.13 kcal/mol
Thermal rotational correction    ...      0.00141627 Eh       0.89 kcal/mol
Thermal translational correction ...      0.00141627 Eh       0.89 kcal/mol
-----------------------------------------------------------------------
Total thermal energy                   -805.10645783 Eh


Summary of corrections to the electronic energy:
(perhaps to be used in another calculation)
Total thermal correction                  0.00782408 Eh       4.91 kcal/mol
Non-thermal (ZPE) correction              0.09786688 Eh      61.41 kcal/mol
-----------------------------------------------------------------------
Total correction                          0.10569096 Eh      66.32 kcal/mol


--------
ENTHALPY
--------

The enthalpy is H = U + kB*T
                kB is Boltzmann's constant
Total thermal energy              ...   -805.10645783 Eh 
Thermal Enthalpy correction       ...      0.00094421 Eh       0.59 kcal/mol
-----------------------------------------------------------------------
Total Enthalpy                    ...   -805.10551363 Eh


Note: Only C1 symmetry has been detected, increase convergence thresholds 
      if your molecule has a higher symmetry. Symmetry factor of 1.0 is   
      used for the rotational entropy correction. 
 

Note: Rotational entropy computed according to Herzberg 
Infrared and Raman Spectra, Chapter V,1, Van Nostrand Reinhold, 1945 
Point Group:  C1, Symmetry Number:   1  
Rotational constants in cm-1:     0.100750     0.030491     0.023407 

Vibrational entropy computed according to the QRRHO of S. Grimme
Chem.Eur.J. 2012 18 9955 using a reference frequency of 100.0 cm-1


-------
ENTROPY
-------

The entropy contributions are T*S = T*(S(el)+S(vib)+S(rot)+S(trans))
     S(el)   - electronic entropy
     S(vib)  - vibrational entropy
     S(rot)  - rotational entropy
     S(trans)- translational entropy
The entropies will be listed as multiplied by the temperature to get
units of energy

Electronic entropy                ...      0.00065446 Eh      0.41 kcal/mol
Vibrational entropy               ...      0.00825393 Eh      5.18 kcal/mol
Rotational entropy                ...      0.01401461 Eh      8.79 kcal/mol
Translational entropy             ...      0.01935352 Eh     12.14 kcal/mol
-----------------------------------------------------------------------
Final entropy term                ...      0.04227652 Eh     26.53 kcal/mol

In case the symmetry of your molecule has not been determined correctly
or in case you have a reason to use a different symmetry number we print 
out the resulting rotational entropy values for sn=1,12:

 non-linear molecules -----------------------------------
|  sn= 1 | S(rot)=       0.01401461 Eh      8.79 kcal/mol|
|  sn= 2 | S(rot)=       0.01336016 Eh      8.38 kcal/mol|
|  sn= 3 | S(rot)=       0.01297733 Eh      8.14 kcal/mol|
|  sn= 4 | S(rot)=       0.01270570 Eh      7.97 kcal/mol|
|  sn= 5 | S(rot)=       0.01249501 Eh      7.84 kcal/mol|
|  sn= 6 | S(rot)=       0.01232287 Eh      7.73 kcal/mol|
|  sn= 7 | S(rot)=       0.01217732 Eh      7.64 kcal/mol|
|  sn= 8 | S(rot)=       0.01205125 Eh      7.56 kcal/mol|
|  sn= 9 | S(rot)=       0.01194004 Eh      7.49 kcal/mol|
|  sn=10 | S(rot)=       0.01184056 Eh      7.43 kcal/mol|
|  sn=11 | S(rot)=       0.01175057 Eh      7.37 kcal/mol|
|  sn=12 | S(rot)=       0.01166841 Eh      7.32 kcal/mol|
 linear molecules ---------------------------------------
|  Dinfh | S(rot)=       0.00887093 Eh      5.57 kcal/mol|
|  Cinfv | S(rot)=       0.00952538 Eh      5.98 kcal/mol|
 --------------------------------------------------------


-------------------
GIBBS FREE ENERGY
-------------------

The Gibbs free energy is G = H - T*S

Total enthalpy                    ...   -805.10551363 Eh 
Total entropy correction          ...     -0.04227652 Eh    -26.53 kcal/mol
-----------------------------------------------------------------------
Final Gibbs free energy         ...   -805.14779015 Eh

For completeness - the Gibbs free energy minus the electronic energy
G-E(el)                           ...      0.06435865 Eh     40.39 kcal/mol


Maximum memory used throughout the entire PROP-calculation: 260.2 MB

--------------------------------
SUGGESTED CITATIONS FOR THIS RUN
--------------------------------

Below you find a list of papers that are relevant to this ORCA run
We neither can nor want to force you to cite these papers, but we appreciate if you do
You receive ORCA, which is the product of decades of hard work by many enthusiastic individuals, for free
The only thing we kindly ask in return is that you cite our papers,
We deeply appreciate it, if you show your appreciation for ORCA by not just citing the generic ORCA reference.

Please note that relegating all ORCA citations to the supporting information does *not* help us.
SI sections are not indexed - citations you put there will not count into any citation statistics
But we need these citations in order to attract the funding resources that allow us to do what we are doing

Therefore, if you are a happy ORCA user, please consider citing a few of the papers listed below in the main body of your paper

In addition to the list printed below, the program has created the file cs_rporg_169_red_freq_07.bibtex that contains the list in bibtex format
You can import this file easily into all common literature databanks and citation aid programs


List of essential papers. We consider these as the minimum necessary citations

  1. Neese,F.
     Software update: the ORCA program system, version 5.0
     WIRES Comput. Molec. Sci., 2022 12(1)e1606
     doi.org/10.1002/wcms.1606

List of papers to cite with high priority. The work reported in these papers was absolutely
necessary for this run to complete.
Our perspective: the developers of density functionals and basis sets usually get cited in chemistry papers
Good! But without the algorithms to do something with them, the functionals or basis sets would not do anything.
Hence, in our opinion, the algorithm design and method developments papers are equally worthy of getting cited

  1. Neese,F.
     An improvement of the resolution of the identity approximation for the formation of the Coulomb matrix
     J. Comp. Chem., 2003 24(14)1740-1747
     doi.org/10.1002/jcc.10318
  2. Neese,F.; Wennmohs,F.; Hansen,A.; Becker,U.
     Efficient, approximate and parallel Hartree-Fock and hybrid DFT calculations. A 'chain-of-spheres' algorithm for the Hartree-Fock exchange
     Chem. Phys., 2009 356(1-3)98-109
     doi.org/10.1016/j.chemphys.2008.10.036
  3. Bykov,D.; Petrenko,T.; Izsak,R.; Kossmann,S.; Becker,U.; Valeev,E.; Neese,F.
     Efficient implementation of the analytic second derivatives of Hartree-Fock and hybrid DFT energies: a detailed analysis of different approximations
     Molec. Phys., 2015 113 1961-1977
     doi.org/10.1080/00268976.2015.1025114
  4. Garcia-Rates,M.; Neese,F.
     Efficient implementation of the analytical second derivatives of hartree-fock and hybrid DFT energies within the framework of the conductor-like polarizable continuum model
     J. Comput. Chem., 2019 40 1816-1828
     doi.org/10.1002/jcc.25833
  5. Garcia-Rates,M.; Neese,F.
     Effect of the Solute Cavity on the Solvation Energy and its Derivatives within the Framework of the Gaussian Charge Scheme
     J. Comput. Chem., 2020 41 922-939
     doi.org/10.1002/jcc.26139
  6. Helmich-Paris,B.; de Souza,B.; Neese,F.; Izsák,R.
     An improved chain of spheres for exchange algorithm
     J. Chem. Phys., 2021 155 104109
     doi.org/doi: 10.1063/5.0058766.
  7. Neese,F.
     The SHARK Integral Generation and Digestion System
     J. Comp. Chem., 2022  1-16
     doi.org/10.1002/jcc.26942
  8. Lehtola,S.; Steigemann,C.; Oliveira,M.; Marques,M.
     Recent developments in Libxc - A comprehensive library of functionals for density functional theory
     Software X, 2018 7 
     doi.org/10.1016/j.softx.2017.11.002
  9. Grimme,S.; Antony,J.; Ehrlich,S.; Krieg,H.
     A consistent and accurate ab initio parametrization of density functional dispersion correction (DFT-D) for the 94 elements H-Pu
     J. Chem. Phys., 2010 132 154104-XXXX
     doi.org/10.1063/1.3382344
 10. Grimme,S.; Ehrlich,S.; Goerigk,L.
     Effect of the damping function in dispersion corrected density functional theory
     J. Comput. Chem., 2011 32(7)1456-1465
     doi.org/10.1002/jcc.21759
 11. Bursch,M.; Neugebauer,H.; Ehlert,S.; Grimme,S.
     Dispersion corrected r2SCAN based global hybrid functionals: r2SCANh, r2SCAN0, and r2SCAN50
     J. Phys. Chem., 2022 156(13)134105
     doi.org/10.1063/5.0086040

List of suggested additional citations. These are papers that are important in the 'surrounding' of 
of this run, or papers that preceded the highly important papers. If you like your results we are grateful for a citation.

  1. Izsak,R.; Neese,F.
     An overlap fitted chain of spheres exchange method
     J. Chem. Phys., 2011 135 144105
     doi.org/10.1063/1.3646921
  2. Izsak,R.; Hansen,A.; Neese,F.
     The resolution of identity and chain of spheres approximations for the LPNO-CCSD singles Fock term
     Molec. Phys., 2012 110 2413-2417
     doi.org/10.1080/00268976.2012.687466
  3. Neese,F.
     The ORCA program system
     WIRES Comput. Molec. Sci., 2012 2(1)73-78
     doi.org/10.1002/wcms.81
  4. Izsak,R.; Neese,F.; Klopper,W.
     Robust fitting techniques in the chain of spheres approximation to the Fock exchange: The role of the complementary space
     J. Chem. Phys., 2013 139 
     doi.org/10.1063/1.4819264
  5. Neese,F.
     Software update: the ORCA program system, version 4.0
     WIRES Comput. Molec. Sci., 2018 8(1)1-6
     doi.org/10.1002/wcms.1327
  6. Neese,F.; Wennmohs,F.; Becker,U.; Riplinger,C.
     The ORCA quantum chemistry program package
     J. Chem. Phys., 2020 152 Art. No. L224108
     doi.org/10.1063/5.0004608
  7. Wittmann,L.; Neugebauer,H.; Grimme,S.; Bursch,M.
     Dispersion-corrected r2SCAN based double-hybrid functionals
     J. Chem. Phys., 2023 159(22)224103
     doi.org/10.1063/5.0174988

List of optional additional citations

  1. Neese,F.
     Approximate second-order SCF convergence for spin unrestricted wavefunctions
     Chem. Phys. Lett., 2000 325(1-3)93-98
     doi.org/10.1016/s0009-2614(00)00662-x

Timings for individual modules:

Sum of individual times          ...     4544.715 sec (=  75.745 min)
Startup calculation              ...       19.516 sec (=   0.325 min)   0.4 %
SCF iterations                   ...     1086.914 sec (=  18.115 min)  23.9 %
Property integrals               ...      916.454 sec (=  15.274 min)  20.2 %
SCF Response                     ...     1803.088 sec (=  30.051 min)  39.7 %
Property calculations            ...      718.743 sec (=  11.979 min)  15.8 %
                             ****ORCA TERMINATED NORMALLY****
TOTAL RUN TIME: 0 days 1 hours 16 minutes 3 seconds 223 msec
