 vasp.6.3.2 27Jun22 (build Oct 25 2024 11:36:28) complex                        
  
 executed on             LinuxIFC date 2025.01.04  23:32:10
 running on   80 total cores
 distrk:  each k-point on   80 cores,    1 groups
 distr:  one band on NCORE=  10 cores,    8 groups


--------------------------------------------------------------------------------------------------------


 INCAR:
   SYSTEM = 071_red
   ISTART = 1
   ICHARG = 2
   INIWAV = 1
   METAGGA = R2SCAN
   LASPH = .TRUE.
   NELM = 100
   ALGO = fast   	
   ISPIN = 2
   EDIFF = 1E-05
   ISMEAR = 0
   SIGMA = 0.05
   PREC = accurate
   ENCUT = 500
   LREAL = auto  	
   LWAVE = .TRUE.
   LCHARG = .FALSE.
   LAECHG = .FALSE.
   LVHAR = .FALSE.
   LVTOT = .FALSE.
   EDIFFG = -0.02
   IBRION = 2
   NSW = 500
   ISIF = 2
   POTIM = 0.5
   IVDW = 12
   VDW_A1 = 0.49484001
   VDW_S8 = 0.78981345
   VDW_A2 = 5.73083694
   LPLANE = .TRUE.
   NCORE = 10
   LSCALU = .FALSE.
   NSIM = 4
   LSOL = .TRUE.
   ISOL = 2
   EPSILON_INF = 1.8069
   N_MOL = 0.0115
   P_MOL = 0.82
   R_SOLV = 2.1900
   EB_K = 35.6880

 POTCAR:    PAW_PBE C 08Apr2002                   
 POTCAR:    PAW_PBE N 08Apr2002                   
 POTCAR:    PAW_PBE O 08Apr2002                   
 POTCAR:    PAW_PBE H 15Jun2001                   
 -----------------------------------------------------------------------------
|                                                                             |
|           W    W    AA    RRRRR   N    N  II  N    N   GGGG   !!!           |
|           W    W   A  A   R    R  NN   N  II  NN   N  G    G  !!!           |
|           W    W  A    A  R    R  N N  N  II  N N  N  G       !!!           |
|           W WW W  AAAAAA  RRRRR   N  N N  II  N  N N  G  GGG   !            |
|           WW  WW  A    A  R   R   N   NN  II  N   NN  G    G                |
|           W    W  A    A  R    R  N    N  II  N    N   GGGG   !!!           |
|                                                                             |
|     You use a magnetic or noncollinear calculation, but did not specify     |
|     the initial magnetic moment with the MAGMOM tag. Note that a            |
|     default of 1 will be used for all atoms. This ferromagnetic setup       |
|     may break the symmetry of the crystal, in particular it may rule        |
|     out finding an antiferromagnetic solution. Thence, we recommend         |
|     setting the initial magnetic moment manually or verifying carefully     |
|     that this magnetic setup is desired.                                    |
|                                                                             |
 -----------------------------------------------------------------------------

 POTCAR:    PAW_PBE C 08Apr2002                   
   SHA256 =  253f7b50bb8d59471dbedb8285d89021f4a42ed1a2c5d38a03a736e69125dd95 C/POTCAR              
   COPYR  = (c) Copyright 08Apr2002 Georg Kresse                                                    
   COPYR  = This file is part of the software VASP. Any use, copying, and all other rights are regul
   COPYR  = If you do not have a valid VASP license, you may not use, copy or distribute this file. 
   VRHFIN =C: s2p2                                                                                  
   LEXCH  = PE                                                                                      
   EATOM  =   147.1560 eV,   10.8157 Ry                                                             
                                                                                                    
   TITEL  = PAW_PBE C 08Apr2002                                                                     
   LULTRA =        F    use ultrasoft PP ?                                                          
   IUNSCR =        1    unscreen: 0-lin 1-nonlin 2-no                                               
   RPACOR =    1.200    partial core radius                                                         
   POMASS =   12.011; ZVAL   =    4.000    mass and valenz                                          
   RCORE  =    1.500    outmost cutoff radius                                                       
   RWIGS  =    1.630; RWIGS  =    0.863    wigner-seitz radius (au A)                               
   ENMAX  =  400.000; ENMIN  =  300.000 eV                                                          
   ICORE  =        2    local potential                                                             
   LCOR   =        T    correct aug charges                                                         
   LPAW   =        T    paw PP                                                                      
   EAUG   =  644.873                                                                                
   DEXC   =    0.000                                                                                
   RMAX   =    1.529    core radius for proj-oper                                                   
   RAUG   =    1.300    factor for augmentation sphere                                              
   RDEP   =    1.501    radius for radial grids                                                     
   RDEPT  =    1.300    core radius for aug-charge                                                  
                                                                                                    
   Atomic configuration                                                                             
    4 entries                                                                                       
     n  l   j            E        occ.                                                              
     1  0  0.50      -273.3789   2.0000                                                             
     2  0  0.50       -13.7508   2.0000                                                             
     2  1  0.50        -5.2854   2.0000                                                             
     3  2  1.50        -5.4423   0.0000                                                             
   Description                                                                                      
     l       E           TYP  RCUT    TYP  RCUT                                                     
     0    -13.7508458     23  1.200                                                                 
     0     -8.2022199     23  1.200                                                                 
     1     -5.2854383     23  1.500                                                                 
     1     34.0145650     23  1.500                                                                 
     2     -5.4423304      7  1.500                                                                 
  local pseudopotential read in
  partial core-charges read in
  partial kinetic energy density read in
  atomic valenz-charges read in
  non local Contribution for L=           0  read in
    real space projection operators read in
  non local Contribution for L=           0  read in
    real space projection operators read in
  non local Contribution for L=           1  read in
    real space projection operators read in
  non local Contribution for L=           1  read in
    real space projection operators read in
    PAW grid and wavefunctions read in
 
   number of l-projection  operators is LMAX  =           4
   number of lm-projection operators is LMMAX =           8
 
 POTCAR:    PAW_PBE N 08Apr2002                   
   SHA256 =  e053789ff3a61a86a1b75d8a110fcc91f86041011e7b0817c7c99e4e8a6349d7 N/POTCAR              
   COPYR  = (c) Copyright 08Apr2002 Georg Kresse                                                    
   COPYR  = This file is part of the software VASP. Any use, copying, and all other rights are regul
   COPYR  = If you do not have a valid VASP license, you may not use, copy or distribute this file. 
   VRHFIN =N: s2p3                                                                                  
   LEXCH  = PE                                                                                      
   EATOM  =   264.5486 eV,   19.4438 Ry                                                             
                                                                                                    
   TITEL  = PAW_PBE N 08Apr2002                                                                     
   LULTRA =        F    use ultrasoft PP ?                                                          
   IUNSCR =        1    unscreen: 0-lin 1-nonlin 2-no                                               
   RPACOR =    1.200    partial core radius                                                         
   POMASS =   14.001; ZVAL   =    5.000    mass and valenz                                          
   RCORE  =    1.500    outmost cutoff radius                                                       
   RWIGS  =    1.400; RWIGS  =    0.741    wigner-seitz radius (au A)                               
   ENMAX  =  400.000; ENMIN  =  300.000 eV                                                          
   ICORE  =        2    local potential                                                             
   LCOR   =        T    correct aug charges                                                         
   LPAW   =        T    paw PP                                                                      
   EAUG   =  627.112                                                                                
   DEXC   =    0.000                                                                                
   RMAX   =    1.529    core radius for proj-oper                                                   
   RAUG   =    1.300    factor for augmentation sphere                                              
   RDEP   =    1.514    radius for radial grids                                                     
   RDEPT  =    1.338    core radius for aug-charge                                                  
                                                                                                    
   Atomic configuration                                                                             
    4 entries                                                                                       
     n  l   j            E        occ.                                                              
     1  0  0.50      -384.7179   2.0000                                                             
     2  0  0.50       -18.5828   2.0000                                                             
     2  1  0.50        -7.0898   3.0000                                                             
     3  2  1.50        -6.8029   0.0000                                                             
   Description                                                                                      
     l       E           TYP  RCUT    TYP  RCUT                                                     
     0    -18.5828119     23  1.200                                                                 
     0    -13.5018863     23  1.200                                                                 
     1     -7.0897853     23  1.500                                                                 
     1      9.5240782     23  1.500                                                                 
     2     -6.8029130      7  1.500                                                                 
  local pseudopotential read in
  partial core-charges read in
  partial kinetic energy density read in
  atomic valenz-charges read in
  non local Contribution for L=           0  read in
    real space projection operators read in
  non local Contribution for L=           0  read in
    real space projection operators read in
  non local Contribution for L=           1  read in
    real space projection operators read in
  non local Contribution for L=           1  read in
    real space projection operators read in
    PAW grid and wavefunctions read in
 
   number of l-projection  operators is LMAX  =           4
   number of lm-projection operators is LMMAX =           8
 
 POTCAR:    PAW_PBE O 08Apr2002                   
   SHA256 =  818f92134a0a090dccd8ba1447fa70422a3b330e708bb4f08108d8ae51209ddf O/POTCAR              
   COPYR  = (c) Copyright 08Apr2002 Georg Kresse                                                    
   COPYR  = This file is part of the software VASP. Any use, copying, and all other rights are regul
   COPYR  = If you do not have a valid VASP license, you may not use, copy or distribute this file. 
   VRHFIN =O: s2p4                                                                                  
   LEXCH  = PE                                                                                      
   EATOM  =   432.3788 eV,   31.7789 Ry                                                             
                                                                                                    
   TITEL  = PAW_PBE O 08Apr2002                                                                     
   LULTRA =        F    use ultrasoft PP ?                                                          
   IUNSCR =        1    unscreen: 0-lin 1-nonlin 2-no                                               
   RPACOR =    1.200    partial core radius                                                         
   POMASS =   16.000; ZVAL   =    6.000    mass and valenz                                          
   RCORE  =    1.520    outmost cutoff radius                                                       
   RWIGS  =    1.550; RWIGS  =    0.820    wigner-seitz radius (au A)                               
   ENMAX  =  400.000; ENMIN  =  300.000 eV                                                          
   ICORE  =        2    local potential                                                             
   LCOR   =        T    correct aug charges                                                         
   LPAW   =        T    paw PP                                                                      
   EAUG   =  605.392                                                                                
   DEXC   =    0.000                                                                                
   RMAX   =    1.553    core radius for proj-oper                                                   
   RAUG   =    1.300    factor for augmentation sphere                                              
   RDEP   =    1.550    radius for radial grids                                                     
   RDEPT  =    1.329    core radius for aug-charge                                                  
                                                                                                    
   Atomic configuration                                                                             
    4 entries                                                                                       
     n  l   j            E        occ.                                                              
     1  0  0.50      -514.6923   2.0000                                                             
     2  0  0.50       -23.9615   2.0000                                                             
     2  1  0.50        -9.0305   4.0000                                                             
     3  2  1.50        -9.5241   0.0000                                                             
   Description                                                                                      
     l       E           TYP  RCUT    TYP  RCUT                                                     
     0    -23.9615318     23  1.200                                                                 
     0     -9.5240782     23  1.200                                                                 
     1     -9.0304911     23  1.520                                                                 
     1      8.1634956     23  1.520                                                                 
     2     -9.5240782      7  1.500                                                                 
  local pseudopotential read in
  partial core-charges read in
  partial kinetic energy density read in
  kinetic energy density of atom read in
  atomic valenz-charges read in
  non local Contribution for L=           0  read in
    real space projection operators read in
  non local Contribution for L=           0  read in
    real space projection operators read in
  non local Contribution for L=           1  read in
    real space projection operators read in
  non local Contribution for L=           1  read in
    real space projection operators read in
    PAW grid and wavefunctions read in
 
   number of l-projection  operators is LMAX  =           4
   number of lm-projection operators is LMMAX =           8
 
 POTCAR:    PAW_PBE H 15Jun2001                   
   SHA256 =  030f79b5d3ab3cf0e668861823c8fb652ff669f3e15e46930bd03bfd63a607b6 H/POTCAR              
   COPYR  = (c) Copyright 15Jun2001 Georg Kresse                                                    
   COPYR  = This file is part of the software VASP. Any use, copying, and all other rights are regul
   COPYR  = If you do not have a valid VASP license, you may not use, copy or distribute this file. 
   VRHFIN =H: ultrasoft test                                                                        
   LEXCH  = PE                                                                                      
   EATOM  =    12.4884 eV,    0.9179 Ry                                                             
                                                                                                    
   TITEL  = PAW_PBE H 15Jun2001                                                                     
   LULTRA =        F    use ultrasoft PP ?                                                          
   IUNSCR =        0    unscreen: 0-lin 1-nonlin 2-no                                               
   RPACOR =    0.000    partial core radius                                                         
   POMASS =    1.000; ZVAL   =    1.000    mass and valenz                                          
   RCORE  =    1.100    outmost cutoff radius                                                       
   RWIGS  =    0.700; RWIGS  =    0.370    wigner-seitz radius (au A)                               
   ENMAX  =  250.000; ENMIN  =  200.000 eV                                                          
   RCLOC  =    0.701    cutoff for local pot                                                        
   LCOR   =        T    correct aug charges                                                         
   LPAW   =        T    paw PP                                                                      
   EAUG   =  400.000                                                                                
   RMAX   =    1.123    core radius for proj-oper                                                   
   RAUG   =    1.200    factor for augmentation sphere                                              
   RDEP   =    1.112    radius for radial grids                                                     
   RDEPT  =    0.926    core radius for aug-charge                                                  
                                                                                                    
   Atomic configuration                                                                             
    2 entries                                                                                       
     n  l   j            E        occ.                                                              
     1  0  0.50        -6.4927   1.0000                                                             
     2  1  0.50        -3.4015   0.0000                                                             
   Description                                                                                      
     l       E           TYP  RCUT    TYP  RCUT                                                     
     0     -6.4927494     23  1.100                                                                 
     0      6.8029130     23  1.100                                                                 
     1     -4.0817478     23  1.100                                                                 
  local pseudopotential read in
  atomic valenz-charges read in
  non local Contribution for L=           0  read in
    real space projection operators read in
  non local Contribution for L=           0  read in
    real space projection operators read in
  non local Contribution for L=           1  read in
    real space projection operators read in
    PAW grid and wavefunctions read in
 
   number of l-projection  operators is LMAX  =           3
   number of lm-projection operators is LMMAX =           5
 
 Optimization of the real space projectors (new method)

 maximal supplied QI-value         = 25.13
 optimisation between [QCUT,QGAM] = [ 11.31, 22.87] = [ 35.82,146.48] Ry 
 Optimized for a Real-space Cutoff    1.03 Angstroem

   l    n(q)    QCUT    max X(q) W(low)/X(q) W(high)/X(q)  e(spline) 
   0      7    11.310   115.676    0.20E-03    0.90E-03    0.20E-06
   0      7    11.310    87.132    0.20E-03    0.89E-03    0.19E-06
   1      6    11.310     4.429    0.16E-03    0.28E-03    0.12E-06
   1      6    11.310     2.733    0.12E-03    0.21E-03    0.99E-07
 Optimization of the real space projectors (new method)

 maximal supplied QI-value         = 25.13
 optimisation between [QCUT,QGAM] = [ 11.31, 22.87] = [ 35.82,146.48] Ry 
 Optimized for a Real-space Cutoff    1.43 Angstroem

   l    n(q)    QCUT    max X(q) W(low)/X(q) W(high)/X(q)  e(spline) 
   0     10    11.310    79.467    0.42E-04    0.81E-04    0.60E-06
   0     10    11.310    66.151    0.40E-04    0.81E-04    0.60E-06
   1      9    11.310    17.416    0.14E-03    0.88E-04    0.14E-05
   1      9    11.310    12.382    0.15E-03    0.93E-04    0.14E-05
 Optimization of the real space projectors (new method)

 maximal supplied QI-value         = 24.76
 optimisation between [QCUT,QGAM] = [ 11.39, 22.77] = [ 36.31,145.25] Ry 
 Optimized for a Real-space Cutoff    1.10 Angstroem

   l    n(q)    QCUT    max X(q) W(low)/X(q) W(high)/X(q)  e(spline) 
   0      7    11.387    20.381    0.22E-03    0.48E-03    0.18E-06
   0      7    11.387    15.268    0.22E-03    0.52E-03    0.19E-06
   1      7    11.387     5.964    0.22E-03    0.73E-03    0.24E-06
   1      7    11.387     5.382    0.19E-03    0.60E-03    0.21E-06
 Optimization of the real space projectors (new method)

 maximal supplied QI-value         = 34.20
 optimisation between [QCUT,QGAM] = [ 11.29, 22.57] = [ 35.68,142.71] Ry 
 Optimized for a Real-space Cutoff    1.20 Angstroem

   l    n(q)    QCUT    max X(q) W(low)/X(q) W(high)/X(q)  e(spline) 
   0      8    11.287    19.460    0.22E-03    0.50E-03    0.19E-06
   0      8    11.287    12.209    0.21E-03    0.48E-03    0.18E-06
   1      8    11.287     4.655    0.21E-03    0.11E-04    0.26E-06
  PAW_PBE C 08Apr2002                   :
 energy of atom  1       EATOM= -147.1560
 kinetic energy error for atom=    0.0076 (will be added to EATOM!!)
  PAW_PBE N 08Apr2002                   :
 energy of atom  2       EATOM= -264.5486
 kinetic energy error for atom=    0.0138 (will be added to EATOM!!)
  PAW_PBE O 08Apr2002                   :
 energy of atom  3       EATOM= -432.3788
 kinetic energy error for atom=    0.0224 (will be added to EATOM!!)
  PAW_PBE H 15Jun2001                   :
 energy of atom  4       EATOM=  -12.4884
 kinetic energy error for atom=    0.0020 (will be added to EATOM!!)
 
 
 POSCAR: C N O H
  positions in direct lattice
  velocities in cartesian coordinates

 METAGGA = R2SCA    LMAXTAU =  6    LMIXTAU =  F

 exchange correlation table for  LEXCH =        8
   RHO(1)=    0.500       N(1)  =     2000
   RHO(2)=  100.500       N(2)  =     4000
 
 POSCAR: C N O H
  positions in direct lattice
  velocities in cartesian coordinates
 
 POSCAR: C N O H
  positions in direct lattice
  velocities in cartesian coordinates
 


--------------------------------------------------------------------------------------------------------


 ion  position               nearest neighbor table
   1  0.468  0.529  0.502-  25 1.08   2 1.39   6 1.41
   2  0.434  0.533  0.493-  24 1.09   3 1.39   1 1.39
   3  0.413  0.505  0.490-  23 1.08   2 1.39   4 1.39
   4  0.427  0.474  0.496-  22 1.09   5 1.39   3 1.39
   5  0.460  0.470  0.505-  21 1.08   4 1.39   6 1.41
   6  0.482  0.498  0.508-  11 1.39   1 1.41   5 1.41
   7  0.534  0.465  0.508-  14 1.09  13 1.10  11 1.46   8 1.52
   8  0.555  0.475  0.478-  16 1.09  15 1.10  12 1.43   7 1.52
   9  0.557  0.531  0.495-  17 1.09  18 1.10  12 1.43  10 1.52
  10  0.536  0.523  0.526-  19 1.09  20 1.10  11 1.46   9 1.52
  11  0.514  0.494  0.520-   6 1.39  10 1.46   7 1.46
  12  0.576  0.503  0.485-   8 1.43   9 1.43
  13  0.551  0.458  0.529-   7 1.10
  14  0.518  0.444  0.502-   7 1.09
  15  0.539  0.481  0.457-   8 1.10
  16  0.572  0.454  0.471-   8 1.09
  17  0.574  0.551  0.500-   9 1.09
  18  0.540  0.539  0.474-   9 1.10
  19  0.521  0.544  0.534-  10 1.09
  20  0.553  0.516  0.546-  10 1.10
  21  0.470  0.445  0.511-   5 1.08
  22  0.411  0.452  0.495-   4 1.09
  23  0.387  0.508  0.483-   3 1.08
  24  0.425  0.558  0.488-   2 1.09
  25  0.483  0.552  0.503-   1 1.08
 
  LATTYP: Found a simple cubic cell.
 ALAT       =    40.0000000000
  
  Lattice vectors:
  
 A1 = (  40.0000000000,   0.0000000000,   0.0000000000)
 A2 = (   0.0000000000,  40.0000000000,   0.0000000000)
 A3 = (   0.0000000000,   0.0000000000,  40.0000000000)


Analysis of symmetry for initial positions (statically):
=====================================================================
 Subroutine PRICEL returns:
 Original cell was already a primitive cell.
 

 Routine SETGRP: Setting up the symmetry group for a 
 simple cubic supercell.


 Subroutine GETGRP returns: Found  1 space group operations
 (whereof  1 operations were pure point group operations)
 out of a pool of 48 trial point group operations.


The static configuration has the point symmetry C_1 .


Analysis of symmetry for dynamics (positions and initial velocities):
=====================================================================
 Subroutine PRICEL returns:
 Original cell was already a primitive cell.
 

 Routine SETGRP: Setting up the symmetry group for a 
 simple cubic supercell.


 Subroutine GETGRP returns: Found  1 space group operations
 (whereof  1 operations were pure point group operations)
 out of a pool of 48 trial point group operations.


The dynamic configuration has the point symmetry C_1 .


Analysis of constrained symmetry for selective dynamics:
=====================================================================
 Subroutine PRICEL returns:
 Original cell was already a primitive cell.
 

 Routine SETGRP: Setting up the symmetry group for a 
 simple cubic supercell.


 Subroutine GETGRP returns: Found  1 space group operations
 (whereof  1 operations were pure point group operations)
 out of a pool of 48 trial point group operations.


The constrained configuration has the point symmetry C_1 .


Analysis of structural, dynamic, and magnetic symmetry:
=====================================================================
 Subroutine PRICEL returns:
 Original cell was already a primitive cell.
 

 Routine SETGRP: Setting up the symmetry group for a 
 simple cubic supercell.


 Subroutine GETGRP returns: Found  1 space group operations
 (whereof  1 operations were pure point group operations)
 out of a pool of 48 trial point group operations.


The overall configuration has the point symmetry C_1 .


 Subroutine INISYM returns: Found  1 space group operations
 (whereof  1 operations are pure point group operations),
 and found     1 'primitive' translations


----------------------------------------------------------------------------------------

                                     Primitive cell                                     

  volume of cell :   64000.0000

  direct lattice vectors                    reciprocal lattice vectors
    40.000000000  0.000000000  0.000000000     0.025000000  0.000000000  0.000000000
     0.000000000 40.000000000  0.000000000     0.000000000  0.025000000  0.000000000
     0.000000000  0.000000000 40.000000000     0.000000000  0.000000000  0.025000000

  length of vectors
    40.000000000 40.000000000 40.000000000     0.025000000  0.025000000  0.025000000

  position of ions in fractional coordinates (direct lattice)
     0.467736498  0.529495513  0.501712835
     0.434253126  0.532884495  0.492888097
     0.413449332  0.505166827  0.490064928
     0.426970105  0.473640968  0.496343996
     0.460237115  0.469851511  0.505344446
     0.481550335  0.497811098  0.508495357
     0.534237979  0.465179854  0.508411107
     0.555152777  0.474831850  0.478077734
     0.556542101  0.531180562  0.495090589
     0.535781681  0.522546819  0.525759860
     0.514279594  0.493715021  0.519668506
     0.576228037  0.502897127  0.485199124
     0.550761017  0.457512485  0.528854210
     0.518290592  0.444100458  0.502061226
     0.538598362  0.481072738  0.457007040
     0.571706702  0.454412101  0.470768435
     0.574120930  0.551350387  0.500450738
     0.540292045  0.538628522  0.474210241
     0.521079763  0.543895556  0.534086911
     0.552834009  0.515820669  0.546123693
     0.469520214  0.445025299  0.510879347
     0.411324889  0.451542556  0.494573392
     0.387397781  0.507972674  0.483188058
     0.424566320  0.557725476  0.487854184
     0.483085697  0.551740436  0.502886944

  ion indices of the primitive-cell ions
   primitive index   ion index
                 1           1
                 2           2
                 3           3
                 4           4
                 5           5
                 6           6
                 7           7
                 8           8
                 9           9
                10          10
                11          11
                12          12
                13          13
                14          14
                15          15
                16          16
                17          17
                18          18
                19          19
                20          20
                21          21
                22          22
                23          23
                24          24
                25          25

----------------------------------------------------------------------------------------

 
 
 KPOINTS: K-Point Grid                            

Automatic generation of k-mesh.
 Grid dimensions read from file:
 generate k-points for:    1    1    1

 Generating k-lattice:

  Cartesian coordinates                     Fractional coordinates (reciprocal lattice)
     0.025000000  0.000000000  0.000000000     1.000000000  0.000000000  0.000000000
     0.000000000  0.025000000  0.000000000     0.000000000  1.000000000  0.000000000
     0.000000000  0.000000000  0.025000000     0.000000000  0.000000000  1.000000000

  Length of vectors
     0.025000000  0.025000000  0.025000000

  Shift w.r.t. Gamma in fractional coordinates (k-lattice)
     0.000000000  0.000000000  0.000000000

 
 Subroutine IBZKPT returns following result:
 ===========================================
 
 Found      1 irreducible k-points:
 
 Following reciprocal coordinates:
            Coordinates               Weight
  0.000000  0.000000  0.000000      1.000000
 
 Following cartesian coordinates:
            Coordinates               Weight
  0.000000  0.000000  0.000000      1.000000
 


--------------------------------------------------------------------------------------------------------




 Dimension of arrays:
   k-points           NKPTS =      1   k-points in BZ     NKDIM =      1   number of bands    NBANDS=     64
   number of dos      NEDOS =    301   number of ions     NIONS =     25
   non local maximal  LDIM  =      4   non local SUM 2l+1 LMDIM =      8
   total plane-waves  NPLWV = ******
   max r-space proj   IRMAX =   4928   max aug-charges    IRDMAX=   5350
   dimension x,y,z NGX =   294 NGY =  294 NGZ =  294
   dimension x,y,z NGXF=   588 NGYF=  588 NGZF=  588
   support grid    NGXF=   588 NGYF=  588 NGZF=  588
   ions per type =              10   1   1  13
   NGX,Y,Z   is equivalent  to a cutoff of  12.22, 12.22, 12.22 a.u.
   NGXF,Y,Z  is equivalent  to a cutoff of  24.44, 24.44, 24.44 a.u.

 SYSTEM =  071_red                                 
 POSCAR =  C N O H                                 

 Startparameter for this run:
   NWRITE =      2    write-flag & timer
   PREC   = accura    normal or accurate (medium, high low for compatibility)
   ISTART =      1    job   : 0-new  1-cont  2-samecut
   ICHARG =      2    charge: 1-file 2-atom 10-const
   ISPIN  =      2    spin polarized calculation?
   LNONCOLLINEAR =      F non collinear calculations
   LSORBIT =      F    spin-orbit coupling
   INIWAV =      1    electr: 0-lowe 1-rand  2-diag
   LASPH  =      T    aspherical Exc in radial PAW
 Electronic Relaxation 1
   ENCUT  =  500.0 eV  36.75 Ry    6.06 a.u.  72.93 72.93 72.93*2*pi/ulx,y,z
   ENINI  =  500.0     initial cutoff
   ENAUG  =  644.9 eV  augmentation charge cutoff
   NELM   =    100;   NELMIN=  2; NELMDL=  0     # of ELM steps 
   EDIFF  = 0.1E-04   stopping-criterion for ELM
   LREAL  =      T    real-space projection
   NLSPLINE    = F    spline interpolate recip. space projectors
   LCOMPAT=      F    compatible to vasp.4.4
   GGA_COMPAT  = T    GGA compatible to vasp.4.4-vasp.4.6
   LMAXPAW     = -100 max onsite density
   LMAXMIX     =    2 max onsite mixed and CHGCAR
   VOSKOWN=      0    Vosko Wilk Nusair interpolation
   ROPT   =   -0.00025  -0.00025  -0.00025  -0.00025
 Ionic relaxation
   EDIFFG = -.2E-01   stopping-criterion for IOM
   NSW    =    500    number of steps for IOM
   NBLOCK =      1;   KBLOCK =    500    inner block; outer block 
   IBRION =      2    ionic relax: 0-MD 1-quasi-New 2-CG
   NFREE  =      1    steps in history (QN), initial steepest desc. (CG)
   ISIF   =      2    stress and relaxation
   IWAVPR =     11    prediction:  0-non 1-charg 2-wave 3-comb
   ISYM   =      2    0-nonsym 1-usesym 2-fastsym
   LCORR  =      T    Harris-Foulkes like correction to forces

   POTIM  = 0.5000    time-step for ionic-motion
   TEIN   =    0.0    initial temperature
   TEBEG  =    0.0;   TEEND  =   0.0 temperature during run
   SMASS  =  -3.00    Nose mass-parameter (am)
   estimated Nose-frequenzy (Omega)   =  0.10E-29 period in steps = 0.13E+47 mass=  -0.366E-25a.u.
   SCALEE = 1.0000    scale energy and forces
   NPACO  =    256;   APACO  = 10.0  distance and # of slots for P.C.
   PSTRESS=    0.0 pullay stress

  Mass of Ions in am
   POMASS =  12.01 14.00 16.00  1.00
  Ionic Valenz
   ZVAL   =   4.00  5.00  6.00  1.00
  Atomic Wigner-Seitz radii
   RWIGS  =  -1.00 -1.00 -1.00 -1.00
  virtual crystal weights 
   VCA    =   1.00  1.00  1.00  1.00
   NELECT =      64.0000    total number of electrons
   NUPDOWN=      -1.0000    fix difference up-down

 DOS related values:
   EMIN   =  10.00;   EMAX   =-10.00  energy-range for DOS
   EFERMI =   0.00
   ISMEAR =     0;   SIGMA  =   0.05  broadening in eV -4-tet -1-fermi 0-gaus

 Electronic relaxation 2 (details)
   IALGO  =     68    algorithm
   LDIAG  =      T    sub-space diagonalisation (order eigenvalues)
   LSUBROT=      F    optimize rotation matrix (better conditioning)
   TURBO    =      0    0=normal 1=particle mesh
   IRESTART =      0    0=no restart 2=restart with 2 vectors
   NREBOOT  =      0    no. of reboots
   NMIN     =      0    reboot dimension
   EREF     =   0.00    reference energy to select bands
   IMIX   =      4    mixing-type and parameters
     AMIX     =   0.40;   BMIX     =  1.00
     AMIX_MAG =   1.60;   BMIX_MAG =  1.00
     AMIN     =   0.10
     WC   =   100.;   INIMIX=   1;  MIXPRE=   1;  MAXMIX= -45

 Intra band minimization:
   WEIMIN = 0.0010     energy-eigenvalue tresh-hold
   EBREAK =  0.39E-07  absolut break condition
   DEPER  =   0.30     relativ break condition  

   TIME   =   0.40     timestep for ELM

  volume/ion in A,a.u.               =    2560.00     17275.73
  Fermi-wavevector in a.u.,A,eV,Ry     =   0.163710  0.309367  0.364649  0.026801
  Thomas-Fermi vector in A             =   0.862763
 
 Write flags
   LWAVE        =      T    write WAVECAR
   LDOWNSAMPLE  =      F    k-point downsampling of WAVECAR
   LCHARG       =      F    write CHGCAR
   LVTOT        =      F    write LOCPOT, total local potential
   LVHAR        =      F    write LOCPOT, Hartree potential only
   LELF         =      F    write electronic localiz. function (ELF)
   LORBIT       =      0    0 simple, 1 ext, 2 COOP (PROOUT), +10 PAW based schemes


 Dipole corrections
   LMONO  =      F    monopole corrections only (constant potential shift)
   LDIPOL =      F    correct potential (dipole corrections)
   IDIPOL =      0    1-x, 2-y, 3-z, 4-all directions 
   EPSILON=  1.0000000 bulk dielectric constant

 Exchange correlation treatment:
   GGA     =    --    GGA type
   LEXCH   =     8    internal setting for exchange type
   LIBXC   =     F    Libxc                    
   VOSKOWN =     0    Vosko Wilk Nusair interpolation
   LHFCALC =     F    Hartree Fock is set to
   LHFONE  =     F    Hartree Fock one center treatment
   AEXX    =    0.0000 exact exchange contribution

 Linear response parameters
   LEPSILON=     F    determine dielectric tensor
   LRPA    =     F    only Hartree local field effects (RPA)
   LNABLA  =     F    use nabla operator in PAW spheres
   LVEL    =     F    velocity operator in full k-point grid
   CSHIFT  =0.1000    complex shift for real part using Kramers Kronig
   OMEGAMAX=  -1.0    maximum frequency
   DEG_THRESHOLD= 0.2000000E-02 threshold for treating states as degnerate
   RTIME   =   -0.100 relaxation time in fs
  (WPLASMAI=    0.000 imaginary part of plasma frequency in eV, 0.658/RTIME)
   DFIELD  = 0.0000000 0.0000000 0.0000000 field for delta impulse in time
 
  Optional k-point grid parameters
   LKPOINTS_OPT  =     F    use optional k-point grid
   KPOINTS_OPT_MODE=     1    mode for optional k-point grid
 
 Orbital magnetization related:
   ORBITALMAG=     F  switch on orbital magnetization
   LCHIMAG   =     F  perturbation theory with respect to B field
   DQ        =  0.001000  dq finite difference perturbation B field
   LLRAUG    =     F  two centre corrections for induced B field

 Solvation model:
   LSOL             =     T         switch on solvation model
   LSOL_SCF         =     T         include solvation in SCF
   ISOL             =     2         solvation model type
   EFERMI_ref       =  0.000000         reference Fermi level
   capacitance_init =  1.000000         initial capacitance
 Nonlinear solvation model:
   LNLDIEL     =     T         switch on non-linear dielectric mode
   LNLION      =     T         switch on non-linear ionic mode
   LNLTEST     =     F         test non-linear model in linear regime
   I_NLOC_SOL  =     1         type of nonlocal dielectric response
   NC_K        =  0.015000     cutoff charge density for cavities (1/Angstrom**3)
   TAU         =  0.000879     cavity formation energy (eV/Angstrom**2)
   SIGMA_K     =  0.600000     cavity width
   A_K         =  0.125000     smoothing length (Angstrom)
   R_SOLV      =  2.190000     solvent radius (Angstrom)
   R_CAV       =  0.000000     cavity radius (Angstrom)
   R_DIEL      =  1.000000     dielectric radius (Angstrom)
   R_ION       =  0.000000     ionic radius (Angstrom)
   R_B         =  0.000000     bound charge radius (Angstrom)
   SOLTEMP     =298.000000     solvent temperature (K)
   EB_K        = 35.688000     relative permittivity of the bulk solvent
   EPSILON_INF =  1.806900     optical relative permittivity of bulk solvent
   N_MOL       =  0.011500     molar density of solvent (1/Angstrom**3)
   P_MOL       =  0.820000     solvent dipole moment (e*Angstrom)
   C_MOLAR     =  0.000000     electrolyte concentration (mol/L)
   LAMBDA_D_K  =  0.000000     Debye length (Angstrom)
   ZION        =  1.000000     charge of ions in electrolyte (e)
   D_ION       = -1.000000     minimum ion packing diameter (Angstrom)



--------------------------------------------------------------------------------------------------------


 conjugate gradient relaxation of ions
   using selective dynamics as specified on POSCAR
 charge density and potential will be updated during run
 spin polarized calculation
 RMM-DIIS sequential band-by-band and
  variant of blocked Davidson during initial phase
 perform sub-space diagonalisation
    before iterative eigenvector-optimisation
 modified Broyden-mixing scheme, WC =      100.0
 initial mixing is a Kerker type mixing with AMIX =  0.4000 and BMIX =      1.0000
 Hartree-type preconditioning will be used
 using additional bands           32
 real space projection scheme for non local part
 use partial core corrections
 calculate Harris-corrections to forces 
   (improved forces if not selfconsistent)
 use gradient corrections 
 use of overlap-Matrix (Vanderbilt PP)
 Gauss-broadening in eV      SIGMA  =   0.05


--------------------------------------------------------------------------------------------------------


  energy-cutoff  :      500.00
  volume of cell :    64000.00
      direct lattice vectors                 reciprocal lattice vectors
    40.000000000  0.000000000  0.000000000     0.025000000  0.000000000  0.000000000
     0.000000000 40.000000000  0.000000000     0.000000000  0.025000000  0.000000000
     0.000000000  0.000000000 40.000000000     0.000000000  0.000000000  0.025000000

  length of vectors
    40.000000000 40.000000000 40.000000000     0.025000000  0.025000000  0.025000000


 
 old parameters found on file WAVECAR:
  energy-cutoff  :      500.00
  volume of cell :    64000.00
      direct lattice vectors                 reciprocal lattice vectors
    40.000000000  0.000000000  0.000000000     0.025000000  0.000000000  0.000000000
     0.000000000 40.000000000  0.000000000     0.000000000  0.025000000  0.000000000
     0.000000000  0.000000000 40.000000000     0.000000000  0.000000000  0.025000000

  length of vectors

 
 k-points in units of 2pi/SCALE and weight: K-Point Grid                            
   0.00000000  0.00000000  0.00000000       1.000
 
 k-points in reciprocal lattice and weights: K-Point Grid                            
   0.00000000  0.00000000  0.00000000       1.000
 
 position of ions in fractional coordinates (direct lattice) 
   0.46773650  0.52949551  0.50171283
   0.43425313  0.53288449  0.49288810
   0.41344933  0.50516683  0.49006493
   0.42697010  0.47364097  0.49634400
   0.46023712  0.46985151  0.50534445
   0.48155034  0.49781110  0.50849536
   0.53423798  0.46517985  0.50841111
   0.55515278  0.47483185  0.47807773
   0.55654210  0.53118056  0.49509059
   0.53578168  0.52254682  0.52575986
   0.51427959  0.49371502  0.51966851
   0.57622804  0.50289713  0.48519912
   0.55076102  0.45751248  0.52885421
   0.51829059  0.44410046  0.50206123
   0.53859836  0.48107274  0.45700704
   0.57170670  0.45441210  0.47076843
   0.57412093  0.55135039  0.50045074
   0.54029204  0.53862852  0.47421024
   0.52107976  0.54389556  0.53408691
   0.55283401  0.51582067  0.54612369
   0.46952021  0.44502530  0.51087935
   0.41132489  0.45154256  0.49457339
   0.38739778  0.50797267  0.48318806
   0.42456632  0.55772548  0.48785418
   0.48308570  0.55174044  0.50288694
 
 position of ions in cartesian coordinates  (Angst):
  18.70945994 21.17982051 20.06851340
  17.37012505 21.31537979 19.71552386
  16.53797326 20.20667310 19.60259710
  17.07880419 18.94563872 19.85375982
  18.40948462 18.79406043 20.21377785
  19.26201342 19.91244390 20.33981429
  21.36951914 18.60719418 20.33644429
  22.20611109 18.99327402 19.12310937
  22.26168405 21.24722250 19.80362357
  21.43126723 20.90187275 21.03039440
  20.57118377 19.74860084 20.78674023
  23.04912147 20.11588506 19.40796497
  22.03044067 18.30049938 21.15416842
  20.73162369 17.76401831 20.08244905
  21.54393447 19.24290952 18.28028161
  22.86826808 18.17648402 18.83073739
  22.96483718 22.05401550 20.01802952
  21.61168180 21.54514088 18.96840965
  20.84319051 21.75582225 21.36347643
  22.11336034 20.63282674 21.84494773
  18.78080856 17.80101195 20.43517388
  16.45299557 18.06170222 19.78293569
  15.49591122 20.31890697 19.32752232
  16.98265278 22.30901902 19.51416738
  19.32342790 22.06961746 20.11547775
 


--------------------------------------------------------------------------------------------------------


 k-point   1 :   0.0000 0.0000 0.0000  plane waves: 1624525

 maximum and minimum number of plane-waves per node :    162473   162437

 maximum number of plane-waves:   1624525
 maximum index in each direction: 
   IXMAX=   72   IYMAX=   72   IZMAX=   72
   IXMIN=  -72   IYMIN=  -72   IZMIN=  -72


 real space projection operators:
  total allocation   :       2952.30 KBytes
  max/ min on nodes  :        302.78        284.77


 parallel 3D FFT for wavefunctions:
    minimum data exchange during FFTs selected (reduces bandwidth)
 parallel 3D FFT for charge:
    minimum data exchange during FFTs selected (reduces bandwidth)


 total amount of memory used by VASP MPI-rank0   926118. kBytes
=======================================================================

   base      :      30000. kBytes
   nonlr-proj:       2436. kBytes
   fftplans  :     167689. kBytes
   grid      :     684374. kBytes
   one-center:         18. kBytes
   wavefun   :      41601. kBytes
 
     INWAV:  cpu time     11.3988: real time     11.4246
 Broyden mixing: mesh for mixing (old mesh)
   NGX =145   NGY =145   NGZ =145
  (NGX  =588   NGY  =588   NGZ  =588)
  gives a total of ****** points

 initial charge density was supplied:
 charge density of overlapping atoms calculated
 number of electron      64.0000000 magnetization      25.0000000
 keeping initial charge density in first step


--------------------------------------------------------------------------------------------------------


 Maximum index for non-local projection operator          435
 Maximum index for augmentation-charges          297 (set IRDMAX)


--------------------------------------------------------------------------------------------------------


 First call to EWALD:  gamma=   0.044
 Maximum number of real-space cells 3x 3x 3
 Maximum number of reciprocal cells 3x 3x 3

    FEWALD:  cpu time      0.0021: real time      0.0021


--------------------------------------- Iteration      1(   1)  ---------------------------------------


    POTLOK:  cpu time      9.6872: real time      9.7090
    SETDIJ:  cpu time      0.4257: real time      0.4266
     EDDAV:  cpu time     75.9991: real time     76.1591
       DOS:  cpu time      0.0066: real time      0.0067
    CHARGE:  cpu time      8.4729: real time      8.4910
    MIXING:  cpu time      0.2368: real time      0.2370
    --------------------------------------------
      LOOP:  cpu time     94.8285: real time     95.0294

 eigenvalue-minimisations  :   344
 total energy-change (2. order) :-0.1554013E+03  (-0.9664259E+01)
 number of electron      64.0000000 magnetization      24.0368054
 augmentation part        2.2076884 magnetization      24.0840490

 Broyden mixing:
  rms(total) = 0.31828E+01    rms(broyden)= 0.31822E+01
  rms(prec ) = 0.32099E+01
  weight for this iteration     100.00

 Free energy of the ion-electron system (eV)
  ---------------------------------------------------
  alpha Z        PSCENC =         0.28174524
  Ewald energy   TEWEN  =      7966.73419944
  -Hartree energ DENC   =     -9545.50248143
  -exchange      EXHF   =         0.00000000
  -V(xc)+E(xc)   XCENC  =       254.50112071
  PAW double counting   =      1620.74719502    -1647.25146049
  entropy T*S    EENTRO =        -0.00000000
  eigenvalues    EBANDS =     -1135.61067493
  atomic energy  EATOM  =      2330.69908919
  Solvation  Ecorr_sol  =         0.00000000
  ---------------------------------------------------
  free energy    TOTEN  =      -155.40126726 eV

  energy without entropy =     -155.40126726  energy(sigma->0) =     -155.40126726


--------------------------------------------------------------------------------------------------------




--------------------------------------- Iteration      1(   2)  ---------------------------------------


    --------------------------------------------
      INIT:  cpu time      0.2449: real time      0.2455
  FINALIZE:  cpu time     22.6855: real time     22.7171
    --------------------------------------------
    POTLOK:  cpu time     32.6576: real time     32.7234
    SETDIJ:  cpu time      0.4242: real time      0.4250
    EDDIAG:  cpu time     15.2099: real time     15.2414
  RMM-DIIS:  cpu time     89.0251: real time     89.2165
    ORTHCH:  cpu time      0.2276: real time      0.2281
       DOS:  cpu time      0.0003: real time      0.0003
    CHARGE:  cpu time      8.4170: real time      8.4343
    MIXING:  cpu time      0.1739: real time      0.1739
    --------------------------------------------
      LOOP:  cpu time    146.1354: real time    146.4428

 eigenvalue-minimisations  :   259
 total energy-change (2. order) : 0.2460335E+02  (-0.1145891E+02)
 number of electron      63.9999999 magnetization      22.9792046
 augmentation part        2.2123042 magnetization      22.8976383

 Broyden mixing:
  rms(total) = 0.15991E+01    rms(broyden)= 0.15990E+01
  rms(prec ) = 0.16206E+01
  weight for this iteration     100.00

 eigenvalues of (default mixing * dielectric matrix)
  average eigenvalue GAMMA=   0.9596
  0.9596

 Free energy of the ion-electron system (eV)
  ---------------------------------------------------
  alpha Z        PSCENC =         0.28174524
  Ewald energy   TEWEN  =      7966.73419944
  -Hartree energ DENC   =     -9667.82935230
  -exchange      EXHF   =         0.00000000
  -V(xc)+E(xc)   XCENC  =       280.08500862
  PAW double counting   =      2777.43738769    -2805.24858758
  entropy T*S    EENTRO =        -0.00000000
  eigenvalues    EBANDS =     -1007.12114059
  atomic energy  EATOM  =      2330.69908919
  Solvation  Ecorr_sol  =        -5.83626527
  ---------------------------------------------------
  free energy    TOTEN  =      -130.79791557 eV

  energy without entropy =     -130.79791557  energy(sigma->0) =     -130.79791557


--------------------------------------------------------------------------------------------------------




--------------------------------------- Iteration      1(   3)  ---------------------------------------


    --------------------------------------------
      INIT:  cpu time      0.2546: real time      0.2551
  FINALIZE:  cpu time     26.9799: real time     27.0158
    --------------------------------------------
    POTLOK:  cpu time     36.9170: real time     36.9816
    SETDIJ:  cpu time      0.4241: real time      0.4250
    EDDIAG:  cpu time     15.2449: real time     15.2797
  RMM-DIIS:  cpu time     91.0612: real time     91.2557
    ORTHCH:  cpu time      0.2176: real time      0.2182
       DOS:  cpu time      0.0008: real time      0.0008
    CHARGE:  cpu time      8.4074: real time      8.4251
    MIXING:  cpu time      0.1745: real time      0.1747
    --------------------------------------------
      LOOP:  cpu time    152.4475: real time    152.7608

 eigenvalue-minimisations  :   275
 total energy-change (2. order) :-0.2742627E+02  (-0.4202268E+01)
 number of electron      63.9999999 magnetization      21.6322725
 augmentation part        2.1667170 magnetization      21.5183463

 Broyden mixing:
  rms(total) = 0.98715E+00    rms(broyden)= 0.98711E+00
  rms(prec ) = 0.99562E+00
  weight for this iteration     100.00

 eigenvalues of (default mixing * dielectric matrix)
  average eigenvalue GAMMA=   1.1530
  0.7829  1.5232

 Free energy of the ion-electron system (eV)
  ---------------------------------------------------
  alpha Z        PSCENC =         0.28174524
  Ewald energy   TEWEN  =      7966.73419944
  -Hartree energ DENC   =     -9763.55324563
  -exchange      EXHF   =         0.00000000
  -V(xc)+E(xc)   XCENC  =       263.43071860
  PAW double counting   =      3851.39669417    -3880.01055921
  entropy T*S    EENTRO =        -0.00000000
  eigenvalues    EBANDS =      -916.82756259
  atomic energy  EATOM  =      2330.69908919
  Solvation  Ecorr_sol  =       -10.37526832
  ---------------------------------------------------
  free energy    TOTEN  =      -158.22418911 eV

  energy without entropy =     -158.22418911  energy(sigma->0) =     -158.22418911


--------------------------------------------------------------------------------------------------------




--------------------------------------- Iteration      1(   4)  ---------------------------------------


    --------------------------------------------
      INIT:  cpu time      0.2471: real time      0.2474
  FINALIZE:  cpu time     26.9778: real time     27.0173
    --------------------------------------------
    POTLOK:  cpu time     36.9296: real time     36.9943
    SETDIJ:  cpu time      0.4228: real time      0.4237
    EDDIAG:  cpu time     15.1952: real time     15.2280
  RMM-DIIS:  cpu time    107.7264: real time    107.9569
    ORTHCH:  cpu time      0.2123: real time      0.2129
       DOS:  cpu time      0.0023: real time      0.0023
    CHARGE:  cpu time      8.4191: real time      8.4371
    MIXING:  cpu time      0.1829: real time      0.1830
    --------------------------------------------
      LOOP:  cpu time    169.0906: real time    169.4381

 eigenvalue-minimisations  :   337
 total energy-change (2. order) :-0.9034045E+01  (-0.2047048E+01)
 number of electron      63.9999999 magnetization      20.4429301
 augmentation part        2.1158174 magnetization      20.3393794

 Broyden mixing:
  rms(total) = 0.64343E+00    rms(broyden)= 0.64338E+00
  rms(prec ) = 0.64748E+00
  weight for this iteration     100.00

 eigenvalues of (default mixing * dielectric matrix)
  average eigenvalue GAMMA=   1.2312
  1.8675  1.1264  0.6997

 Free energy of the ion-electron system (eV)
  ---------------------------------------------------
  alpha Z        PSCENC =         0.28174524
  Ewald energy   TEWEN  =      7966.73419944
  -Hartree energ DENC   =     -9833.02118443
  -exchange      EXHF   =         0.00000000
  -V(xc)+E(xc)   XCENC  =       261.13426847
  PAW double counting   =      4893.47167203    -4922.25201285
  entropy T*S    EENTRO =        -0.00000000
  eigenvalues    EBANDS =      -850.04441437
  atomic energy  EATOM  =      2330.69908919
  Solvation  Ecorr_sol  =       -14.26159714
  ---------------------------------------------------
  free energy    TOTEN  =      -167.25823442 eV

  energy without entropy =     -167.25823442  energy(sigma->0) =     -167.25823442


--------------------------------------------------------------------------------------------------------




--------------------------------------- Iteration      1(   5)  ---------------------------------------


    --------------------------------------------
      INIT:  cpu time      0.2590: real time      0.2592
  FINALIZE:  cpu time     29.9517: real time     29.9592
    --------------------------------------------
    POTLOK:  cpu time     39.8851: real time     39.9205
    SETDIJ:  cpu time      0.4213: real time      0.4222
    EDDIAG:  cpu time     15.1578: real time     15.1886
  RMM-DIIS:  cpu time    113.5122: real time    113.7523
    ORTHCH:  cpu time      0.2118: real time      0.2124
       DOS:  cpu time      0.0016: real time      0.0016
    CHARGE:  cpu time      8.4224: real time      8.4379
    MIXING:  cpu time      0.1852: real time      0.1840
    --------------------------------------------
      LOOP:  cpu time    177.7974: real time    178.1195

 eigenvalue-minimisations  :   378
 total energy-change (2. order) :-0.4245224E+01  (-0.5766092E+00)
 number of electron      63.9999999 magnetization      18.5166425
 augmentation part        2.1006348 magnetization      18.4339507

 Broyden mixing:
  rms(total) = 0.44749E+00    rms(broyden)= 0.44746E+00
  rms(prec ) = 0.45025E+00
  weight for this iteration     100.00

 eigenvalues of (default mixing * dielectric matrix)
  average eigenvalue GAMMA=   1.4133
  2.2808  1.8469  0.8623  0.6631

 Free energy of the ion-electron system (eV)
  ---------------------------------------------------
  alpha Z        PSCENC =         0.28174524
  Ewald energy   TEWEN  =      7966.73419944
  -Hartree energ DENC   =     -9842.13922419
  -exchange      EXHF   =         0.00000000
  -V(xc)+E(xc)   XCENC  =       258.56215687
  PAW double counting   =      5293.66215333    -5322.28698014
  entropy T*S    EENTRO =        -0.00000000
  eigenvalues    EBANDS =      -842.25061469
  atomic energy  EATOM  =      2330.69908919
  Solvation  Ecorr_sol  =       -14.76598382
  ---------------------------------------------------
  free energy    TOTEN  =      -171.50345878 eV

  energy without entropy =     -171.50345878  energy(sigma->0) =     -171.50345878


--------------------------------------------------------------------------------------------------------




--------------------------------------- Iteration      1(   6)  ---------------------------------------


    --------------------------------------------
      INIT:  cpu time      0.2551: real time      0.2552
  FINALIZE:  cpu time     29.9866: real time     29.9867
    --------------------------------------------
    POTLOK:  cpu time     39.9166: real time     39.9427
    SETDIJ:  cpu time      0.4203: real time      0.4212
    EDDIAG:  cpu time     15.2727: real time     15.3062
  RMM-DIIS:  cpu time    110.0805: real time    110.3243
    ORTHCH:  cpu time      0.2047: real time      0.2050
       DOS:  cpu time      0.0005: real time      0.0005
    CHARGE:  cpu time      8.4141: real time      8.4299
    MIXING:  cpu time      0.1919: real time      0.1914
    --------------------------------------------
      LOOP:  cpu time    174.5013: real time    174.8212

 eigenvalue-minimisations  :   361
 total energy-change (2. order) :-0.4060305E+01  (-0.3227168E+00)
 number of electron      63.9999999 magnetization      17.6886352
 augmentation part        2.1053325 magnetization      17.6240356

 Broyden mixing:
  rms(total) = 0.26154E+00    rms(broyden)= 0.26153E+00
  rms(prec ) = 0.26252E+00
  weight for this iteration     100.00

 eigenvalues of (default mixing * dielectric matrix)
  average eigenvalue GAMMA=   1.4122
  2.8363  1.7112  1.1083  0.7626  0.6427

 Free energy of the ion-electron system (eV)
  ---------------------------------------------------
  alpha Z        PSCENC =         0.28174524
  Ewald energy   TEWEN  =      7966.73419944
  -Hartree energ DENC   =     -9843.17562565
  -exchange      EXHF   =         0.00000000
  -V(xc)+E(xc)   XCENC  =       255.21923523
  PAW double counting   =      5650.64961000    -5678.87159648
  entropy T*S    EENTRO =        -0.00000000
  eigenvalues    EBANDS =      -844.01806387
  atomic energy  EATOM  =      2330.69908919
  Solvation  Ecorr_sol  =       -13.08235653
  ---------------------------------------------------
  free energy    TOTEN  =      -175.56376343 eV

  energy without entropy =     -175.56376343  energy(sigma->0) =     -175.56376343


--------------------------------------------------------------------------------------------------------




--------------------------------------- Iteration      1(   7)  ---------------------------------------


    --------------------------------------------
      INIT:  cpu time      0.2470: real time      0.2474
  FINALIZE:  cpu time     31.3842: real time     31.3960
    --------------------------------------------
    POTLOK:  cpu time     41.3291: real time     41.3685
    SETDIJ:  cpu time      0.4211: real time      0.4220
    EDDIAG:  cpu time     15.2902: real time     15.3223
  RMM-DIIS:  cpu time    114.8781: real time    115.1246
    ORTHCH:  cpu time      0.2080: real time      0.2085
       DOS:  cpu time      0.0004: real time      0.0004
    CHARGE:  cpu time      8.4084: real time      8.4261
    MIXING:  cpu time      0.1845: real time      0.1845
    --------------------------------------------
      LOOP:  cpu time    180.7197: real time    181.0569

 eigenvalue-minimisations  :   384
 total energy-change (2. order) : 0.2190272E+00  (-0.8786994E-01)
 number of electron      63.9999999 magnetization      16.5912573
 augmentation part        2.0986119 magnetization      16.5333704

 Broyden mixing:
  rms(total) = 0.21772E+00    rms(broyden)= 0.21771E+00
  rms(prec ) = 0.21850E+00
  weight for this iteration     100.00

 eigenvalues of (default mixing * dielectric matrix)
  average eigenvalue GAMMA=   1.3423
  2.9407  1.8272  1.0124  0.9365  0.6397  0.6971

 Free energy of the ion-electron system (eV)
  ---------------------------------------------------
  alpha Z        PSCENC =         0.28174524
  Ewald energy   TEWEN  =      7966.73419944
  -Hartree energ DENC   =     -9851.78968425
  -exchange      EXHF   =         0.00000000
  -V(xc)+E(xc)   XCENC  =       255.98643966
  PAW double counting   =      5707.35711183    -5735.61065477
  entropy T*S    EENTRO =        -0.00000000
  eigenvalues    EBANDS =      -837.38259252
  atomic energy  EATOM  =      2330.69908919
  Solvation  Ecorr_sol  =       -11.62039007
  ---------------------------------------------------
  free energy    TOTEN  =      -175.34473625 eV

  energy without entropy =     -175.34473625  energy(sigma->0) =     -175.34473625


--------------------------------------------------------------------------------------------------------




--------------------------------------- Iteration      1(   8)  ---------------------------------------


    --------------------------------------------
      INIT:  cpu time      0.2485: real time      0.2489
  FINALIZE:  cpu time     28.4687: real time     28.5325
    --------------------------------------------
    POTLOK:  cpu time     38.4153: real time     38.5103
    SETDIJ:  cpu time      0.4238: real time      0.4247
    EDDIAG:  cpu time     15.2748: real time     15.3082
  RMM-DIIS:  cpu time    114.7702: real time    115.0243
    ORTHCH:  cpu time      0.2143: real time      0.2149
       DOS:  cpu time      0.0014: real time      0.0014
    CHARGE:  cpu time      8.4177: real time      8.4337
    MIXING:  cpu time      0.1945: real time      0.1945
    --------------------------------------------
      LOOP:  cpu time    177.7120: real time    178.1120

 eigenvalue-minimisations  :   384
 total energy-change (2. order) : 0.1720195E+01  (-0.6662653E-01)
 number of electron      63.9999999 magnetization      12.9549692
 augmentation part        2.0943658 magnetization      12.9037667

 Broyden mixing:
  rms(total) = 0.17360E+00    rms(broyden)= 0.17360E+00
  rms(prec ) = 0.17410E+00
  weight for this iteration     100.00

 eigenvalues of (default mixing * dielectric matrix)
  average eigenvalue GAMMA=   1.7485
  4.5930  2.6345  1.6601  1.2053  0.8109  0.7110  0.6244

 Free energy of the ion-electron system (eV)
  ---------------------------------------------------
  alpha Z        PSCENC =         0.28174524
  Ewald energy   TEWEN  =      7966.73419944
  -Hartree energ DENC   =     -9856.41203373
  -exchange      EXHF   =         0.00000000
  -V(xc)+E(xc)   XCENC  =       257.65865536
  PAW double counting   =      5653.86553920    -5682.13647696
  entropy T*S    EENTRO =        -0.00000000
  eigenvalues    EBANDS =      -834.89614782
  atomic energy  EATOM  =      2330.69908919
  Solvation  Ecorr_sol  =        -9.41911152
  ---------------------------------------------------
  free energy    TOTEN  =      -173.62454160 eV

  energy without entropy =     -173.62454160  energy(sigma->0) =     -173.62454160


--------------------------------------------------------------------------------------------------------




--------------------------------------- Iteration      1(   9)  ---------------------------------------


    --------------------------------------------
      INIT:  cpu time      0.2485: real time      0.2483
  FINALIZE:  cpu time     30.0812: real time     30.0829
    --------------------------------------------
    POTLOK:  cpu time     40.0260: real time     40.0540
    SETDIJ:  cpu time      0.4214: real time      0.4222
    EDDIAG:  cpu time     15.2981: real time     15.3290
  RMM-DIIS:  cpu time    114.8762: real time    115.1181
    ORTHCH:  cpu time      0.2138: real time      0.2143
       DOS:  cpu time      0.0014: real time      0.0014
    CHARGE:  cpu time      8.4217: real time      8.4363
    MIXING:  cpu time      0.2058: real time      0.2022
    --------------------------------------------
      LOOP:  cpu time    179.4642: real time    179.7776

 eigenvalue-minimisations  :   384
 total energy-change (2. order) : 0.3036296E+01  (-0.1231795E+00)
 number of electron      63.9999999 magnetization      12.2687240
 augmentation part        2.0885226 magnetization      12.2295050

 Broyden mixing:
  rms(total) = 0.92145E-01    rms(broyden)= 0.92137E-01
  rms(prec ) = 0.92589E-01
  weight for this iteration     100.00

 eigenvalues of (default mixing * dielectric matrix)
  average eigenvalue GAMMA=   1.7873
  5.9062  2.6198  1.7737  1.0207  0.8408  0.7560  0.7560  0.6251

 Free energy of the ion-electron system (eV)
  ---------------------------------------------------
  alpha Z        PSCENC =         0.28174524
  Ewald energy   TEWEN  =      7966.73419944
  -Hartree energ DENC   =     -9868.84352579
  -exchange      EXHF   =         0.00000000
  -V(xc)+E(xc)   XCENC  =       260.66046684
  PAW double counting   =      5544.52903175    -5572.80366387
  entropy T*S    EENTRO =        -0.00000000
  eigenvalues    EBANDS =      -829.22019221
  atomic energy  EATOM  =      2330.69908919
  Solvation  Ecorr_sol  =        -2.62539645
  ---------------------------------------------------
  free energy    TOTEN  =      -170.58824586 eV

  energy without entropy =     -170.58824586  energy(sigma->0) =     -170.58824586


--------------------------------------------------------------------------------------------------------




--------------------------------------- Iteration      1(  10)  ---------------------------------------


    --------------------------------------------
      INIT:  cpu time      0.2467: real time      0.2469
  FINALIZE:  cpu time     29.9939: real time     30.0016
    --------------------------------------------
    POTLOK:  cpu time     39.9466: real time     39.9821
    SETDIJ:  cpu time      0.4259: real time      0.4268
    EDDIAG:  cpu time     15.2778: real time     15.3107
  RMM-DIIS:  cpu time    115.1840: real time    115.4332
    ORTHCH:  cpu time      0.2043: real time      0.2049
       DOS:  cpu time      0.0004: real time      0.0004
    CHARGE:  cpu time      8.4138: real time      8.4315
    MIXING:  cpu time      0.2071: real time      0.2073
    --------------------------------------------
      LOOP:  cpu time    179.6597: real time    179.9967

 eigenvalue-minimisations  :   384
 total energy-change (2. order) : 0.4385846E+00  (-0.2895486E-01)
 number of electron      63.9999999 magnetization      11.0833712
 augmentation part        2.0856454 magnetization      11.0497221

 Broyden mixing:
  rms(total) = 0.75069E-01    rms(broyden)= 0.75066E-01
  rms(prec ) = 0.75434E-01
  weight for this iteration     100.00

 eigenvalues of (default mixing * dielectric matrix)
  average eigenvalue GAMMA=   1.7866
  6.6234  2.5349  1.5354  1.5354  1.0053  0.7643  0.7287  0.7287  0.6229

 Free energy of the ion-electron system (eV)
  ---------------------------------------------------
  alpha Z        PSCENC =         0.28174524
  Ewald energy   TEWEN  =      7966.73419944
  -Hartree energ DENC   =     -9870.19435316
  -exchange      EXHF   =         0.00000000
  -V(xc)+E(xc)   XCENC  =       261.16628293
  PAW double counting   =      5566.43131351    -5594.69717609
  entropy T*S    EENTRO =        -0.00000000
  eigenvalues    EBANDS =      -828.88711133
  atomic energy  EATOM  =      2330.69908919
  Solvation  Ecorr_sol  =        -1.68365101
  ---------------------------------------------------
  free energy    TOTEN  =      -170.14966129 eV

  energy without entropy =     -170.14966129  energy(sigma->0) =     -170.14966129


--------------------------------------------------------------------------------------------------------




--------------------------------------- Iteration      1(  11)  ---------------------------------------


    --------------------------------------------
      INIT:  cpu time      0.2541: real time      0.2546
  FINALIZE:  cpu time     28.5910: real time     28.6356
    --------------------------------------------
    POTLOK:  cpu time     38.5121: real time     38.5867
    SETDIJ:  cpu time      0.4240: real time      0.4249
    EDDIAG:  cpu time     15.2578: real time     15.2898
  RMM-DIIS:  cpu time    115.0295: real time    115.2765
    ORTHCH:  cpu time      0.2040: real time      0.2046
       DOS:  cpu time      0.0011: real time      0.0011
    CHARGE:  cpu time      8.4122: real time      8.4300
    MIXING:  cpu time      0.2138: real time      0.2141
    --------------------------------------------
      LOOP:  cpu time    178.0545: real time    178.4276

 eigenvalue-minimisations  :   384
 total energy-change (2. order) : 0.1316160E+01  (-0.2927377E-01)
 number of electron      63.9999998 magnetization       9.4897383
 augmentation part        2.0862978 magnetization       9.4619436

 Broyden mixing:
  rms(total) = 0.58352E-01    rms(broyden)= 0.58348E-01
  rms(prec ) = 0.58498E-01
  weight for this iteration     100.00

 eigenvalues of (default mixing * dielectric matrix)
  average eigenvalue GAMMA=   1.9421
  7.7406  2.5942  2.3732  1.8947  0.9686  0.9686  0.7778  0.7778  0.6261  0.6998

 Free energy of the ion-electron system (eV)
  ---------------------------------------------------
  alpha Z        PSCENC =         0.28174524
  Ewald energy   TEWEN  =      7966.73419944
  -Hartree energ DENC   =     -9868.42377682
  -exchange      EXHF   =         0.00000000
  -V(xc)+E(xc)   XCENC  =       262.38631139
  PAW double counting   =      5574.78683081    -5603.01672663
  entropy T*S    EENTRO =        -0.00000000
  eigenvalues    EBANDS =      -832.05453170
  atomic energy  EATOM  =      2330.69908919
  Solvation  Ecorr_sol  =        -0.22664174
  ---------------------------------------------------
  free energy    TOTEN  =      -168.83350081 eV

  energy without entropy =     -168.83350081  energy(sigma->0) =     -168.83350081


--------------------------------------------------------------------------------------------------------




--------------------------------------- Iteration      1(  12)  ---------------------------------------


    --------------------------------------------
      INIT:  cpu time      0.2536: real time      0.2540
  FINALIZE:  cpu time     27.1470: real time     27.1868
    --------------------------------------------
    POTLOK:  cpu time     37.0547: real time     37.1260
    SETDIJ:  cpu time      0.4209: real time      0.4218
    EDDIAG:  cpu time     15.2953: real time     15.3282
  RMM-DIIS:  cpu time    115.1257: real time    115.3815
    ORTHCH:  cpu time      0.2013: real time      0.2018
       DOS:  cpu time      0.0021: real time      0.0021
    CHARGE:  cpu time      8.4292: real time      8.4458
    MIXING:  cpu time      0.2254: real time      0.2254
    --------------------------------------------
      LOOP:  cpu time    176.7546: real time    177.1326

 eigenvalue-minimisations  :   384
 total energy-change (2. order) : 0.1603550E+01  (-0.1466676E-01)
 number of electron      63.9999998 magnetization       8.6569323
 augmentation part        2.0857765 magnetization       8.6329502

 Broyden mixing:
  rms(total) = 0.44420E-01    rms(broyden)= 0.44417E-01
  rms(prec ) = 0.44578E-01
  weight for this iteration     100.00

 eigenvalues of (default mixing * dielectric matrix)
  average eigenvalue GAMMA=   1.9324
  8.2674  3.1866  2.2729  1.7073  1.0818  1.0818  0.7847  0.7847  0.7770  0.6292
  0.6832

 Free energy of the ion-electron system (eV)
  ---------------------------------------------------
  alpha Z        PSCENC =         0.28174524
  Ewald energy   TEWEN  =      7966.73419944
  -Hartree energ DENC   =     -9868.46257387
  -exchange      EXHF   =         0.00000000
  -V(xc)+E(xc)   XCENC  =       263.95392389
  PAW double counting   =      5560.05953617    -5588.30097993
  entropy T*S    EENTRO =        -0.00000000
  eigenvalues    EBANDS =      -833.79282800
  atomic energy  EATOM  =      2330.69908919
  Solvation  Ecorr_sol  =         1.59793667
  ---------------------------------------------------
  free energy    TOTEN  =      -167.22995119 eV

  energy without entropy =     -167.22995119  energy(sigma->0) =     -167.22995119


--------------------------------------------------------------------------------------------------------




--------------------------------------- Iteration      1(  13)  ---------------------------------------


    --------------------------------------------
      INIT:  cpu time      0.2578: real time      0.2572
  FINALIZE:  cpu time     28.5880: real time     28.5866
    --------------------------------------------
    POTLOK:  cpu time     38.4897: real time     38.5138
    SETDIJ:  cpu time      0.4228: real time      0.4237
    EDDIAG:  cpu time     15.3124: real time     15.3443
  RMM-DIIS:  cpu time    115.0844: real time    115.3337
    ORTHCH:  cpu time      0.2058: real time      0.2064
       DOS:  cpu time      0.0011: real time      0.0011
    CHARGE:  cpu time      8.4240: real time      8.4389
    MIXING:  cpu time      0.2302: real time      0.2302
    --------------------------------------------
      LOOP:  cpu time    178.1706: real time    178.4921

 eigenvalue-minimisations  :   384
 total energy-change (2. order) : 0.6850422E+00  (-0.9128285E-02)
 number of electron      63.9999998 magnetization       7.0493013
 augmentation part        2.0853098 magnetization       7.0281753

 Broyden mixing:
  rms(total) = 0.38498E-01    rms(broyden)= 0.38496E-01
  rms(prec ) = 0.38565E-01
  weight for this iteration     100.00

 eigenvalues of (default mixing * dielectric matrix)
  average eigenvalue GAMMA=   2.0125
  8.8055  3.7144  2.2259  1.8974  1.8974  1.1530  0.9745  0.7327  0.7327  0.7431
  0.6364  0.6364

 Free energy of the ion-electron system (eV)
  ---------------------------------------------------
  alpha Z        PSCENC =         0.28174524
  Ewald energy   TEWEN  =      7966.73419944
  -Hartree energ DENC   =     -9868.86531475
  -exchange      EXHF   =         0.00000000
  -V(xc)+E(xc)   XCENC  =       264.65807783
  PAW double counting   =      5556.60044304    -5584.85602821
  entropy T*S    EENTRO =        -0.00000000
  eigenvalues    EBANDS =      -833.86236130
  atomic energy  EATOM  =      2330.69908919
  Solvation  Ecorr_sol  =         2.06524056
  ---------------------------------------------------
  free energy    TOTEN  =      -166.54490897 eV

  energy without entropy =     -166.54490897  energy(sigma->0) =     -166.54490897


--------------------------------------------------------------------------------------------------------




--------------------------------------- Iteration      1(  14)  ---------------------------------------


    --------------------------------------------
      INIT:  cpu time      0.2489: real time      0.2491
  FINALIZE:  cpu time     28.6233: real time     28.6221
    --------------------------------------------
    POTLOK:  cpu time     38.5376: real time     38.5598
    SETDIJ:  cpu time      0.4204: real time      0.4213
    EDDIAG:  cpu time     15.3016: real time     15.3333
  RMM-DIIS:  cpu time    115.2676: real time    115.5207
    ORTHCH:  cpu time      0.2077: real time      0.2082
       DOS:  cpu time      0.0008: real time      0.0008
    CHARGE:  cpu time      8.4224: real time      8.4403
    MIXING:  cpu time      0.2367: real time      0.2370
    --------------------------------------------
      LOOP:  cpu time    178.3948: real time    178.7214

 eigenvalue-minimisations  :   384
 total energy-change (2. order) : 0.1248630E+01  ( 0.4790217E-02)
 number of electron      63.9999998 magnetization       6.1954264
 augmentation part        2.0839795 magnetization       6.1762691

 Broyden mixing:
  rms(total) = 0.30894E-01    rms(broyden)= 0.30892E-01
  rms(prec ) = 0.30961E-01
  weight for this iteration     100.00

 eigenvalues of (default mixing * dielectric matrix)
  average eigenvalue GAMMA=   2.0969
  9.6524  4.8172  2.5273  2.0414  1.6567  1.1336  1.1336  0.8997  0.7137  0.7137
  0.7318  0.6228  0.6166

 Free energy of the ion-electron system (eV)
  ---------------------------------------------------
  alpha Z        PSCENC =         0.28174524
  Ewald energy   TEWEN  =      7966.73419944
  -Hartree energ DENC   =     -9868.40967729
  -exchange      EXHF   =         0.00000000
  -V(xc)+E(xc)   XCENC  =       265.88984629
  PAW double counting   =      5566.67959478    -5594.93851549
  entropy T*S    EENTRO =        -0.00000000
  eigenvalues    EBANDS =      -834.75968619
  atomic energy  EATOM  =      2330.69908919
  Solvation  Ecorr_sol  =         2.52712524
  ---------------------------------------------------
  free energy    TOTEN  =      -165.29627880 eV

  energy without entropy =     -165.29627880  energy(sigma->0) =     -165.29627880


--------------------------------------------------------------------------------------------------------




--------------------------------------- Iteration      1(  15)  ---------------------------------------


    --------------------------------------------
      INIT:  cpu time      0.2480: real time      0.2483
  FINALIZE:  cpu time     27.0152: real time     27.0522
    --------------------------------------------
    POTLOK:  cpu time     36.9473: real time     37.0104
    SETDIJ:  cpu time      0.4227: real time      0.4236
    EDDIAG:  cpu time     15.3045: real time     15.3360
  RMM-DIIS:  cpu time    115.1574: real time    115.4036
    ORTHCH:  cpu time      0.2167: real time      0.2173
       DOS:  cpu time      0.0029: real time      0.0029
    CHARGE:  cpu time      8.4253: real time      8.4432
    MIXING:  cpu time      0.2452: real time      0.2455
    --------------------------------------------
      LOOP:  cpu time    176.7220: real time    177.0825

 eigenvalue-minimisations  :   384
 total energy-change (2. order) : 0.4902490E+00  (-0.3784311E-02)
 number of electron      63.9999998 magnetization       5.2493519
 augmentation part        2.0828016 magnetization       5.2321134

 Broyden mixing:
  rms(total) = 0.26913E-01    rms(broyden)= 0.26912E-01
  rms(prec ) = 0.26967E-01
  weight for this iteration     100.00

 eigenvalues of (default mixing * dielectric matrix)
  average eigenvalue GAMMA=   2.0869
 10.0691  5.2177  2.6206  2.1301  1.4172  1.4172  1.2620  0.8453  0.8453  0.7549
  0.6984  0.6984  0.6276  0.6121

 Free energy of the ion-electron system (eV)
  ---------------------------------------------------
  alpha Z        PSCENC =         0.28174524
  Ewald energy   TEWEN  =      7966.73419944
[...]


--------------------------------------------------------------------------------------------------------




 average (electrostatic) potential at core
  the test charge radii are     0.6991  0.7089  0.7215  0.5201
  (the norm of the test charge is              1.0000)
       1 -60.6676       2 -60.7607       3 -60.5166       4 -60.7617       5 -60.6756
       6 -61.7950       7 -61.4795       8 -61.7518       9 -61.7574      10 -61.4584
      11 -76.8241      12 -84.1856      13 -44.2746      14 -44.6348      15 -44.1744
      16 -44.3727      17 -44.3751      18 -44.2083      19 -44.5933      20 -44.2780
      21 -44.4062      22 -44.2501      23 -44.1580      24 -44.2469      25 -44.4267
 
 
 
 E-fermi :  -4.4343     XC(G=0):  -0.0433     alpha+bet : -0.0238

 Fermi energy:        -4.4343376183

 spin component 1

 k-point     1 :       0.0000    0.0000    0.0000
  band No.  band energies     occupation 
      1     -27.3955      1.00000
      2     -24.9257      1.00000
      3     -22.0987      1.00000
      4     -20.3583      1.00000
      5     -19.6302      1.00000
      6     -19.3427      1.00000
      7     -17.8094      1.00000
      8     -17.1779      1.00000
      9     -15.8891      1.00000
     10     -15.4468      1.00000
     11     -14.5892      1.00000
     12     -13.6976      1.00000
     13     -12.5790      1.00000
     14     -12.2560      1.00000
     15     -12.1913      1.00000
     16     -11.9518      1.00000
     17     -11.8178      1.00000
     18     -11.1239      1.00000
     19     -10.8574      1.00000
     20     -10.5949      1.00000
     21     -10.2890      1.00000
     22     -10.0057      1.00000
     23      -9.4110      1.00000
     24      -9.2502      1.00000
     25      -9.0382      1.00000
     26      -8.8313      1.00000
     27      -8.2223      1.00000
     28      -8.0653      1.00000
     29      -7.2710      1.00000
     30      -6.4279      1.00000
     31      -6.3899      1.00000
     32      -4.7050      1.00000
     33      -0.9299      0.00000
     34      -0.5547      0.00000
     35      -0.0570      0.00000
     36       0.0244      0.00000
     37       0.0914      0.00000
     38       0.0939      0.00000
     39       0.0948      0.00000
     40       0.1011      0.00000
     41       0.1014      0.00000
     42       0.1407      0.00000
     43       0.1669      0.00000
     44       0.1746      0.00000
     45       0.1768      0.00000
     46       0.1905      0.00000
     47       0.1906      0.00000
     48       0.1915      0.00000
     49       0.1942      0.00000
     50       0.1950      0.00000
     51       0.1952      0.00000
     52       0.1954      0.00000
     53       0.1961      0.00000
     54       0.2625      0.00000
     55       0.2656      0.00000
     56       0.2722      0.00000
     57       0.2741      0.00000
     58       0.2844      0.00000
     59       0.2846      0.00000
     60       0.2848      0.00000
     61       0.2865      0.00000
     62       0.3533      0.00000
     63       0.3621      0.00000
     64       0.3655      0.00000
 Fermi energy:        -4.4343376183

 spin component 2

 k-point     1 :       0.0000    0.0000    0.0000
  band No.  band energies     occupation 
      1     -27.3955      1.00000
      2     -24.9257      1.00000
      3     -22.0987      1.00000
      4     -20.3583      1.00000
      5     -19.6302      1.00000
      6     -19.3427      1.00000
      7     -17.8094      1.00000
      8     -17.1779      1.00000
      9     -15.8891      1.00000
     10     -15.4468      1.00000
     11     -14.5892      1.00000
     12     -13.6976      1.00000
     13     -12.5790      1.00000
     14     -12.2560      1.00000
     15     -12.1913      1.00000
     16     -11.9518      1.00000
     17     -11.8178      1.00000
     18     -11.1239      1.00000
     19     -10.8574      1.00000
     20     -10.5949      1.00000
     21     -10.2890      1.00000
     22     -10.0057      1.00000
     23      -9.4110      1.00000
     24      -9.2502      1.00000
     25      -9.0382      1.00000
     26      -8.8313      1.00000
     27      -8.2223      1.00000
     28      -8.0653      1.00000
     29      -7.2710      1.00000
     30      -6.4279      1.00000
     31      -6.3899      1.00000
     32      -4.7050      1.00000
     33      -0.9299      0.00000
     34      -0.5547      0.00000
     35      -0.0557      0.00000
     36       0.0328      0.00000
     37       0.0983      0.00000
     38       0.1010      0.00000
     39       0.1018      0.00000
     40       0.1076      0.00000
     41       0.1079      0.00000
     42       0.1489      0.00000
     43       0.1732      0.00000
     44       0.1813      0.00000
     45       0.1836      0.00000
     46       0.1991      0.00000
     47       0.1994      0.00000
     48       0.1998      0.00000
     49       0.2013      0.00000
     50       0.2018      0.00000
     51       0.2018      0.00000
     52       0.2020      0.00000
     53       0.2020      0.00000
     54       0.2695      0.00000
     55       0.2727      0.00000
     56       0.2792      0.00000
     57       0.2810      0.00000
     58       0.2925      0.00000
     59       0.2928      0.00000
     60       0.2933      0.00000
     61       0.2943      0.00000
     62       0.3577      0.00000
     63       0.3672      0.00000
     64       0.3759      0.00000


--------------------------------------------------------------------------------------------------------


 soft charge-density along one line, spin component           1
         0         1         2         3         4         5         6         7         8         9
 total charge-density along one line
 
 soft charge-density along one line, spin component           2
         0         1         2         3         4         5         6         7         8         9
 total charge-density along one line
 
 pseudopotential strength for first ion, spin component:           1
 10.435  13.875  -0.000   0.002   0.002   0.003  -0.004  -0.003
 13.875  18.448  -0.000   0.003   0.003   0.004  -0.005  -0.003
 -0.000  -0.000  -4.349   0.004   0.001   8.436  -0.006  -0.002
  0.002   0.003   0.004  -4.305  -0.012  -0.006   8.369   0.019
  0.002   0.003   0.001  -0.012  -4.353  -0.002   0.019   8.443
  0.003   0.004   8.436  -0.006  -0.002 -18.634   0.008   0.003
 -0.004  -0.005  -0.006   8.369   0.019   0.008 -18.544  -0.026
 -0.003  -0.003  -0.002   0.019   8.443   0.003  -0.026 -18.643
 pseudopotential strength for first ion, spin component:           2
 10.435  13.875  -0.000   0.002   0.002   0.003  -0.004  -0.003
 13.875  18.448  -0.000   0.003   0.003   0.004  -0.005  -0.003
 -0.000  -0.000  -4.349   0.004   0.001   8.436  -0.006  -0.002
  0.002   0.003   0.004  -4.305  -0.012  -0.006   8.369   0.019
  0.002   0.003   0.001  -0.012  -4.353  -0.002   0.019   8.443
  0.003   0.004   8.436  -0.006  -0.002 -18.634   0.008   0.003
 -0.004  -0.005  -0.006   8.369   0.019   0.008 -18.544  -0.026
 -0.003  -0.003  -0.002   0.019   8.443   0.003  -0.026 -18.643
 total augmentation occupancy for first ion, spin component:           1
  8.944  -4.064  -0.184  -0.021  -0.149  -0.039  -0.004  -0.029
 -4.064   1.887   0.126   0.004   0.089   0.024   0.002   0.017
 -0.184   0.126   1.779  -0.055  -0.028   0.172  -0.012  -0.007
 -0.021   0.004  -0.055   1.285   0.142  -0.012   0.087   0.025
 -0.149   0.089  -0.028   0.142   1.821  -0.007   0.024   0.174
 -0.039   0.024   0.172  -0.012  -0.007   0.018  -0.002  -0.001
 -0.004   0.002  -0.012   0.087   0.024  -0.002   0.006   0.003
 -0.029   0.017  -0.007   0.025   0.174  -0.001   0.003   0.018
 total augmentation occupancy for first ion, spin component:           2
  0.000  -0.000  -0.000  -0.000  -0.000  -0.000   0.000  -0.000
 -0.000   0.000   0.000   0.000   0.000   0.000  -0.000   0.000
 -0.000   0.000  -0.000   0.000  -0.000   0.000  -0.000  -0.000
 -0.000   0.000   0.000  -0.000   0.000  -0.000  -0.000   0.000
 -0.000   0.000  -0.000   0.000  -0.000  -0.000   0.000  -0.000
 -0.000   0.000   0.000  -0.000  -0.000   0.000  -0.000  -0.000
  0.000  -0.000  -0.000  -0.000   0.000  -0.000  -0.000   0.000
 -0.000   0.000  -0.000   0.000  -0.000  -0.000   0.000  -0.000


------------------------ aborting loop because EDIFF is reached ----------------------------------------


    CHARGE:  cpu time      1.6744: real time      1.6780
    FORLOC:  cpu time      0.4549: real time      0.4552
    FORNL :  cpu time      5.9112: real time      5.9238
    STRESS:  cpu time    151.2857: real time    151.5534
    FORCOR:  cpu time      7.9823: real time      7.9992
    FORHAR:  cpu time      0.9525: real time      0.9608
    MIXING:  cpu time      0.1195: real time      0.1197
    OFIELD:  cpu time      0.0000: real time      0.0000

 ---------------------------------------------------------------------------------------------

         DFTD3 V3.0 Rev 1        
 Edisp (eV)   -0.24062

 E6    (eV) :    -0.1902
 E8    (eV) :    -0.0504
 % E8        : 20.96
    FORVDW:  cpu time      0.0070: real time      0.0070

  FORCE on cell =-STRESS in cart. coord.  units (eV):
  Direction    XX          YY          ZZ          XY          YZ          ZX
  --------------------------------------------------------------------------------------
  Alpha Z     0.28175     0.28175     0.28175
  Ewald    4540.46925  2830.97324   602.73127    66.66819   105.79007    93.76380
  Hartree  4852.01416  3216.13116  1800.85497    44.20437    74.11202   -13.30543
  E(xc)    -245.06447  -245.70323  -245.73047     0.04424    -0.48324     0.16915
  Local  -10008.99109 -6647.81035 -3107.80901  -111.74379  -170.22966   -56.27283
  n-local  -104.52715  -103.25333  -106.96379     0.00731     2.49569    -0.98020
  augment     4.80924     3.87547     6.96244     0.00595    -0.86034    -0.24314
  Kinetic   960.77127   945.37133  1049.32508     0.81099   -10.80252   -23.07660
  Fock        0.00000     0.00000     0.00000     0.00000     0.00000     0.00000
  vdW        -0.13500    -0.05305    -0.02029     0.00198    -0.00423     0.00149
  -------------------------------------------------------------------------------------
  Total      -0.37204    -0.18700    -0.36804    -0.00076     0.01779     0.05625
  in kB      -0.00931    -0.00468    -0.00921    -0.00002     0.00045     0.00141
  external pressure =       -0.01 kB  Pullay stress =        0.00 kB


 VOLUME and BASIS-vectors are now :
 -----------------------------------------------------------------------------
  energy-cutoff  :      500.00
  volume of cell :    64000.00
      direct lattice vectors                 reciprocal lattice vectors
    40.000000000  0.000000000  0.000000000     0.025000000  0.000000000  0.000000000
     0.000000000 40.000000000  0.000000000     0.000000000  0.025000000  0.000000000
     0.000000000  0.000000000 40.000000000     0.000000000  0.000000000  0.025000000

  length of vectors
    40.000000000 40.000000000 40.000000000     0.025000000  0.025000000  0.025000000


 FORCES acting on ions
    electron-ion (+dipol)            ewald-force                    non-local-force                 convergence-correction
 -----------------------------------------------------------------------------------------------
   0.304E+02 -.191E+03 0.211E+01   -.304E+02 0.192E+03 -.272E+01   -.448E-01 -.113E+01 0.605E+00   -.597E-03 -.404E-03 -.331E-03
   0.143E+03 -.186E+03 0.415E+02   -.144E+03 0.186E+03 -.416E+02   0.623E+00 -.355E+00 0.107E+00   -.550E-03 -.688E-03 0.811E-04
   0.238E+03 -.223E+02 0.547E+02   -.239E+03 0.225E+02 -.549E+02   0.103E+01 -.135E+00 0.244E+00   -.432E-04 0.145E-03 0.950E-03
   0.181E+03 0.157E+03 0.222E+02   -.181E+03 -.157E+03 -.224E+02   0.674E+00 0.220E+00 0.189E+00   -.629E-03 0.198E-03 0.598E-03
   0.640E+02 0.194E+03 -.253E+02   -.645E+02 -.195E+03 0.257E+02   0.447E+00 0.101E+01 -.432E+00   -.450E-03 0.401E-03 -.129E-03
   0.699E+02 0.562E+01 -.235E+02   -.739E+02 -.516E+01 0.218E+02   0.391E+01 -.450E+00 0.172E+01   -.602E-03 -.572E-04 -.379E-04
   -.653E+02 0.241E+03 -.534E+02   0.679E+02 -.245E+03 0.521E+02   -.259E+01 0.340E+01 0.129E+01   0.693E-03 0.901E-03 -.382E-03
   -.830E+02 0.178E+03 0.171E+03   0.797E+02 -.183E+03 -.173E+03   0.326E+01 0.460E+01 0.135E+01   0.155E-02 0.125E-02 0.121E-02
   -.965E+02 -.237E+03 0.437E+02   0.935E+02 0.242E+03 -.422E+02   0.299E+01 -.475E+01 -.145E+01   0.188E-02 -.148E-02 0.546E-03
   -.748E+02 -.165E+03 -.185E+03   0.775E+02 0.168E+03 0.185E+03   -.269E+01 -.346E+01 -.776E+00   0.839E-03 -.649E-03 -.512E-03
   0.138E+02 0.544E+02 -.186E+03   -.158E+02 -.587E+02 0.200E+03   0.202E+01 0.424E+01 -.141E+02   -.106E-02 0.638E-03 -.937E-03
   -.414E+03 -.247E+02 0.120E+03   0.458E+03 0.248E+02 -.123E+03   -.444E+02 -.100E+00 0.371E+01   0.875E-02 -.787E-03 0.417E-02
   -.539E+02 0.588E+02 -.677E+02   0.574E+02 -.605E+02 0.721E+02   -.351E+01 0.169E+01 -.435E+01   0.177E-03 -.181E-04 0.900E-04
   0.201E+02 0.943E+02 0.108E+02   -.235E+02 -.990E+02 -.122E+02   0.345E+01 0.469E+01 0.136E+01   -.405E-04 -.464E-04 -.139E-03
   0.215E+02 0.106E+02 0.915E+02   -.249E+02 -.941E+01 -.959E+02   0.343E+01 -.122E+01 0.445E+01   0.249E-03 0.421E-03 0.126E-03
   -.585E+02 0.747E+02 0.400E+02   0.621E+02 -.792E+02 -.417E+02   -.364E+01 0.445E+01 0.165E+01   0.226E-03 0.140E-03 0.198E-03
   -.630E+02 -.813E+02 -.868E+01   0.668E+02 0.857E+02 0.980E+01   -.386E+01 -.443E+01 -.112E+01   0.236E-03 -.219E-03 0.155E-03
   0.168E+02 -.595E+02 0.705E+02   -.202E+02 0.612E+02 -.749E+02   0.337E+01 -.164E+01 0.438E+01   0.288E-03 -.324E-03 -.966E-04
   0.166E+02 -.819E+02 -.529E+02   -.198E+02 0.865E+02 0.549E+02   0.316E+01 -.466E+01 -.193E+01   0.435E-04 0.106E-03 -.334E-04
   -.566E+02 -.644E+01 -.883E+02   0.603E+02 0.507E+01 0.927E+02   -.362E+01 0.137E+01 -.436E+01   0.183E-03 -.690E-04 0.631E-04
   0.204E+01 0.913E+02 -.183E+02   -.831E-01 -.968E+02 0.196E+02   -.196E+01 0.551E+01 -.126E+01   -.181E-03 0.184E-03 -.137E-03
   0.607E+02 0.699E+02 0.681E+01   -.642E+02 -.748E+02 -.722E+01   0.347E+01 0.488E+01 0.396E+00   -.454E-05 0.215E-03 0.165E-03
   0.888E+02 -.915E+01 0.222E+02   -.946E+02 0.977E+01 -.238E+02   0.576E+01 -.623E+00 0.152E+01   -.293E-06 -.255E-04 0.243E-03
   0.433E+02 -.803E+02 0.171E+02   -.454E+02 0.858E+02 -.182E+02   0.215E+01 -.548E+01 0.111E+01   -.124E-03 -.179E-03 -.311E-05
   -.144E+02 -.890E+02 0.352E+00   0.178E+02 0.940E+02 -.131E+00   -.333E+01 -.498E+01 -.216E+00   -.306E-03 -.192E-03 -.861E-04
 -----------------------------------------------------------------------------------------------
   0.299E+02 -.268E+01 0.585E+01   -.568E-13 -.142E-13 -.114E-13   -.300E+02 0.264E+01 -.587E+01   0.105E-01 -.528E-03 0.577E-02
 
 
 POSITION                                       TOTAL-FORCE (eV/Angst)
 -----------------------------------------------------------------------------------
     18.70898     21.17784     20.06919        -0.005651     -0.001588      0.000475
     17.37090     21.31427     19.71596         0.011463      0.000387      0.001178
     16.54036     20.20656     19.60212         0.000311     -0.003346     -0.003789
     17.08006     18.94681     19.85270         0.009428      0.002890      0.000250
     18.40949     18.79604     20.21397        -0.010632     -0.008937     -0.001774
     19.26110     19.91233     20.34005        -0.013684      0.006409      0.001870
     21.36925     18.60960     20.33722         0.006849     -0.007381     -0.004883
     22.20642     18.99586     19.12335         0.000169     -0.000596     -0.019740
     22.26141     21.24430     19.80213        -0.001926      0.012293     -0.013515
     21.43061     20.89990     21.02998         0.007190      0.011724     -0.004694
     20.57194     19.74863     20.78712        -0.012603     -0.001042      0.001201
     23.04524     20.11613     19.40700        -0.010773     -0.000025     -0.004222
     22.03177     18.30315     21.15392         0.010862      0.001640      0.009033
     20.72964     17.76614     20.08685        -0.001685     -0.005956      0.009002
     21.54179     19.23927     18.27938        -0.000541     -0.009950      0.005772
     22.87123     18.18133     18.83021        -0.002706     -0.000878      0.002192
     22.96699     22.04953     20.01429        -0.003188      0.001461     -0.000551
     21.60937     21.54754     18.96891        -0.003614      0.003268      0.006923
     20.84038     21.75150     21.36638        -0.001514     -0.001176      0.008832
     22.11479     20.63199     21.84333         0.009350     -0.005034      0.004895
     18.77993     17.80351     20.43743         0.000812     -0.002232      0.007529
     16.45376     18.06401     19.78136         0.001075     -0.003442     -0.004592
     15.49900     20.31898     19.32606         0.000994      0.001142     -0.007983
     16.98302     22.30723     19.51455         0.002822      0.003416      0.001602
     19.32245     22.06758     20.11658         0.007192      0.006954      0.004988
 -----------------------------------------------------------------------------------
    total drift:                               -0.033757     -0.040773     -0.010325


--------------------------------------------------------------------------------------------------------



  FREE ENERGIE OF THE ION-ELECTRON SYSTEM (eV)
  ---------------------------------------------------
  free  energy   TOTEN  =      -161.75201732 eV

  energy  without entropy=     -161.75201732  energy(sigma->0) =     -161.75201732
 
 d Force = 0.8089026E-04[ 0.591E-04, 0.103E-03]  d Energy = 0.8111105E-04-0.221E-06
 d Force = 0.2994241E-02[ 0.318E-02, 0.280E-02]  d Ewald  = 0.2994241E-02-0.106E-09


--------------------------------------------------------------------------------------------------------


    --------------------------------------------
      INIT:  cpu time      0.2484: real time      0.2488
  FINALIZE:  cpu time     29.9673: real time     30.0078
    --------------------------------------------
    POTLOK:  cpu time     40.4310: real time     40.4917


--------------------------------------------------------------------------------------------------------


 Conjugate gradient step on ions:
 trial-energy change:   -0.000081  1 .order   -0.000081   -0.000103   -0.000059
  (g-gl).g = 0.342E-03      g.g   = 0.337E-03  gl.gl    = 0.260E-03
 g(Force)  = 0.337E-03   g(Stress)= 0.000E+00 ortho     = 0.385E-05
 gamma     =   1.31735
 trial     =   0.30055
 opt step  =   0.70694  (harmonic =   0.70694) maximal distance =0.00144836
 next E    =  -161.752057   (d E  =  -0.00012)


--------------------------------------------------------------------------------------------------------


  
 reached required accuracy - stopping structural energy minimisation
 writing wavefunctions
     LOOP+:  cpu time    772.7863: real time    775.2497
    4ORBIT:  cpu time      0.0000: real time      0.0000

 total amount of memory used by VASP MPI-rank0   926118. kBytes
=======================================================================

   base      :      30000. kBytes
   nonlr-proj:       2436. kBytes
   fftplans  :     167689. kBytes
   grid      :     684374. kBytes
   one-center:         18. kBytes
   wavefun   :      41601. kBytes
 
  
  
 General timing and accounting informations for this job:
 ========================================================
  
                  Total CPU time used (sec):    16090.546
                            User time (sec):    15308.083
                          System time (sec):      782.463
                         Elapsed time (sec):    16121.932
  
                   Maximum memory used (kb):     2537280.
                   Average memory used (kb):          N/A
  
                          Minor page faults:    133071201
                          Major page faults:            0
                 Voluntary context switches:       380111
