
                                 *****************
                                 * O   R   C   A *
                                 *****************

                                            #,                                       
                                            ###                                      
                                            ####                                     
                                            #####                                    
                                            ######                                   
                                           ########,                                 
                                     ,,################,,,,,                         
                               ,,#################################,,                 
                          ,,##########################################,,             
                       ,#########################################, ''#####,          
                    ,#############################################,,   '####,        
                  ,##################################################,,,,####,       
                ,###########''''           ''''###############################       
              ,#####''   ,,,,##########,,,,          '''####'''          '####       
            ,##' ,,,,###########################,,,                        '##       
           ' ,,###''''                  '''############,,,                           
         ,,##''                                '''############,,,,        ,,,,,,###''
      ,#''                                            '''#######################'''  
     '                                                          ''''####''''         
             ,#######,   #######,   ,#######,      ##                                
            ,#'     '#,  ##    ##  ,#'     '#,    #''#        ,####,   ,####,        
            ##       ##  ##   ,#'  ##            #'  '#       #'       #'  '#        
            ##       ##  #######   ##           ,######,      #####,   #    #        
            '#,     ,#'  ##    ##  '#,     ,#' ,#      #,     #,   #   #,  ,#        
             '#######'   ##     ##  '#######'  #'      '#     '####' # '####'        



                #########################################################
                #                        -***-                          #
                #          Department of theory and spectroscopy        #
                #                                                       #
                #                      Frank Neese                      #
                #                                                       #
                #     Directorship, Architecture, Infrastructure        #
                #                    SHARK, DRIVERS                     #
                #        Core code/Algorithms in most modules           #
                #                                                       #
                #        Max Planck Institute fuer Kohlenforschung      #
                #                Kaiser Wilhelm Platz 1                 #
                #                 D-45470 Muelheim/Ruhr                 #
                #                      Germany                          #
                #                                                       #
                #                  All rights reserved                  #
                #                        -***-                          #
                #########################################################


                         Program Version 6.0.0  -   RELEASE  -


 With contributions from (in alphabetic order):
   Daniel Aravena         : Magnetic Suceptibility
   Michael Atanasov       : Ab Initio Ligand Field Theory (pilot matlab implementation)
   Alexander A. Auer      : GIAO ZORA, VPT2 properties, NMR spectrum
   Ute Becker             : All parallelization in ORCA, NUMFREQ, NUMCALC
   Giovanni Bistoni       : ED, misc. LED, open-shell LED, HFLD
   Martin Brehm           : Molecular dynamics
   Dmytro Bykov           : pre 5.0 version of the SCF Hessian
   Marcos Casanova-Páez   : Triplet and SCS-CIS(D). UHF-(DLPNO)-IP/EA/STEOM-CCSD. UHF-CVS-IP/STEOM-CCSD
   Vijay G. Chilkuri      : MRCI spin determinant printing, contributions to CSF-ICE
   Pauline Colinet        : FMM embedding
   Dipayan Datta          : RHF DLPNO-CCSD density
   Achintya Kumar Dutta   : EOM-CC, STEOM-CC
   Nicolas Foglia         : Exact transition moments, OPA infrastructure, MCD improvements
   Dmitry Ganyushin       : Spin-Orbit,Spin-Spin,Magnetic field MRCI
   Miquel Garcia          : C-PCM and meta-GGA Hessian, CCSD/C-PCM, Gaussian charge scheme
   Tiago L. C. Gouveia    : GS-ROHF, GS-ROCIS
   Yang Guo               : DLPNO-NEVPT2, F12-NEVPT2, CIM, IAO-localization
   Andreas Hansen         : Spin unrestricted coupled pair/coupled cluster methods
   Ingolf Harden          : AUTO-CI MPn and infrastructure 
   Benjamin Helmich-Paris : MC-RPA, TRAH-(SCF,CASSCF), AVAS, COSX integrals, SCF dyn. polar.
   Lee Huntington         : MR-EOM, pCC
   Robert Izsak           : Overlap fitted RIJCOSX, COSX-SCS-MP3, EOM
   Riya Kayal             : Wick's Theorem for AUTO-CI, AUTO-CI UHF-CCSDT
   Emily Kempfer          : AUTO-CI, RHF CISDT and CCSDT
   Christian Kollmar      : KDIIS, OOCD, Brueckner-CCSD(T), CCSD density, CASPT2, CASPT2-K, improved NEVPT2
   Axel Koslowski         : Symmetry handling
   Simone Kossmann        : Meta GGA functionals, TD-DFT gradient, OOMP2, (MP2 Hessian; deprecated post 5.0)
   Lucas Lang             : DCDCAS
   Marvin Lechner         : AUTO-CI (C++ implementation), FIC-MRCC
   Spencer Leger          : CASSCF response
   Dagmar Lenk            : GEPOL surface, SMD, ORCA-2-JSON
   Dimitrios Liakos       : Extrapolation schemes; Compound Job, initial MDCI parallelization
   Dimitrios Manganas     : Further ROCIS development; embedding schemes. LFT, Crystal Embedding
   Dimitrios Pantazis     : SARC Basis sets
   Anastasios Papadopoulos: AUTO-CI, single reference methods and gradients
   Taras Petrenko         : pre 6.0 DFT Hessian and TD-DFT gradient, (ASA, deprecated), ECA, 1-Electron XAS/XES, NRVS
   Peter Pinski           : DLPNO-MP2, DLPNO-MP2 Gradient
   Christoph Reimann      : Effective Core Potentials
   Marius Retegan         : Local ZFS, SOC
   Christoph Riplinger    : Optimizer, TS searches, QM/MM, DLPNO-CCSD(T), (RO)-DLPNO pert. Triples
   Michael Roemelt        : Original ROCIS implementation
   Masaaki Saitow         : Open-shell DLPNO-CCSD energy and density
   Barbara Sandhoefer     : DKH picture change effects
   Kantharuban Sivalingam : CASSCF convergence/infrastructure, NEVPT2 and variants, FIC-MRCI
   Bernardo de Souza      : ESD, SOC TD-DFT
   Georgi Stoychev        : AutoAux, RI-MP2 NMR, DLPNO-MP2 response, X2C
   Van Anh Tran           : RI-MP2 g-tensors
   Willem Van den Heuvel  : Paramagnetic NMR
   Zikuan Wang            : NOTCH, Electric field optimization 
   Frank Wennmohs         : Technical directorship and infrastructure
   Hang Xu                : AUTO-CI-Response properties 


 We gratefully acknowledge several colleagues who have allowed us to
 interface, adapt or use parts of their codes:
   Stefan Grimme, W. Hujo, H. Kruse, P. Pracht,  : VdW corrections, initial TS optimization,
                  C. Bannwarth, S. Ehlert,         DFT functionals, gCP, sTDA/sTD-DF
                  L. Wittmann, M. Mueller
   Ed Valeev, F. Pavosevic, A. Kumar             : LibInt (2-el integral package), F12 methods
   Garnet Chan, S. Sharma, J. Yang, R. Olivares  : DMRG
   Ulf Ekstrom                                   : XCFun DFT Library
   Mihaly Kallay                                 : mrcc  (arbitrary order and MRCC methods)
   Frank Weinhold                                : gennbo (NPA and NBO analysis)
   Simon Mueller                                 : openCOSMO-RS
   Christopher J. Cramer and Donald G. Truhlar   : smd solvation model
   Lars Goerigk                                  : TD-DFT with DH, B97 family of functionals
   V. Asgeirsson, H. Jonsson                     : NEB implementation
   FAccTs GmbH                                   : IRC, NEB, NEB-TS, DLPNO-Multilevel, CI-OPT
                                                   MM, QMMM, 2- and 3-layer-ONIOM, Crystal-QMMM,
                                                   LR-CPCM, SF, NACMEs, symmetry and pop. for TD-DFT,
                                                   nearIR, NL-DFT gradient (VV10), updates on ESD,
                                                   ML-optimized integration grids, MBIS, APM,
                                                   GOAT, DOCKER, SOLVATOR, interface openCOSMO-RS
   S Lehtola, MJT Oliveira, MAL Marques          : LibXC Library
   Liviu Ungur et al                             : ANISO software


 Your calculation uses the libint2 library for the computation of 2-el integrals
 For citations please refer to: http://libint.valeyev.net

 Your ORCA version has been built with support for libXC version: 6.2.2
 For citations please refer to: https://libxc.gitlab.io

 This ORCA versions uses:
   CBLAS   interface :  Fast vector & matrix operations
   LAPACKE interface :  Fast linear algebra routines
   SCALAPACK package :  Parallel linear algebra routines
   Shared memory     :  Shared parallel matrices
   BLAS/LAPACK       :  OpenBLAS 0.3.27  USE64BITINT DYNAMIC_ARCH NO_AFFINITY SkylakeX SINGLE_THREADED
        Core in use  :  SkylakeX
   Copyright (c) 2011-2014, The OpenBLAS Project


NOTE: MaxCore=3000 MB was set to SCF,MP2,MDCI,CIPSI,MRCI and CIS
      => If you want to overwrite this, your respective input block should be placed after the MaxCore statement
Your calculation utilizes the atom-pairwise dispersion correction
with the Becke-Johnson damping scheme (D3BJ)


Your calculation utilizes the SMD solvation module
Please cite in your paper:
A.V. Marenich, C.J. Cramer, D.G. Truhlar J. Phys. Chem. B, 113, (2009), 6378 

Warning: RI is on but no J-basis has been assigned. Assigning Def2/J (nothing to worry about!)
================================================================================

----- Orbital basis set information -----
Your calculation utilizes the basis: aug-cc-pVTZ 
    H, B-Ne : Obtained from the ccRepo (grant-hill.group.shef.ac.uk/ccrepo) Feb. 2017
              R. A. Kendall, T. H. Dunning, Jr., R. J. Harrison, J. Chem. Phys. 96, 6796 (1992)
         He : Obtained from the ccRepo (grant-hill.group.shef.ac.uk/ccrepo) Feb. 2017
              D. E. Woon, T. H. Dunning, Jr., J. Chem. Phys. 100, 2975 (1994)
  Li-Be, Na : Obtained from the ccRepo (grant-hill.group.shef.ac.uk/ccrepo) Feb. 2017
              B. P. Prascher, D. E. Woon, K. A. Peterson, T. H. Dunning, Jr., A. K. Wilson, Theor. Chem. Acc. 128, 69 (2011)
         Mg : Obtained from the Peterson Research Group Website (tyr0.chem.wsu.edu/~kipeters) Feb. 2017
              B. P. Prascher, D. E. Woon, K. A. Peterson, T. H. Dunning, Jr., A. K. Wilson, Theor. Chem. Acc. 128, 69 (2011)
      Al-Ar : Obtained from the ccRepo (grant-hill.group.shef.ac.uk/ccrepo) Feb. 2017
              D. E. Woon, T. H. Dunning, Jr., J. Chem. Phys. 98, 1358 (1993)
      Sc-Zn : Obtained from the ccRepo (grant-hill.group.shef.ac.uk/ccrepo) Feb. 2017
              N. B. Balabanov, K. A. Peterson, J. Chem. Phys. 123, 064107 (2005)
              N. B. Balabanov, K. A. Peterson, J. Chem. Phys. 125, 074110 (2006)
      Ga-Kr : Obtained from the ccRepo (grant-hill.group.shef.ac.uk/ccrepo) Feb. 2017
              A. K. Wilson, D. E. Woon, K. A. Peterson, T. H. Dunning, Jr., J. Chem. Phys. 110, 7667 (1999)
     Ag, Au : Obtained from the Peterson Research Group Website (tyr0.chem.wsu.edu/~kipeters) Feb. 2017
              K. A. Peterson, C. Puzzarini, Theor. Chem. Acc. 114, 283 (2005)

----- AuxJ basis set information -----
Your calculation utilizes the auxiliary basis: def2/J
   F. Weigend, Phys. Chem. Chem. Phys. 8, 1057 (2006).

================================================================================
                                        WARNINGS
                       Please study these warnings very carefully!
================================================================================

Using LibXC functional ID 497 : Re-regularized SCAN exchange by Furness et al
[ 1]  J. W. Furness, A. D. Kaplan, J. Ning, J. P. Perdew, and J. Sun.,  J. Phys. Chem. Lett. 11, 8208-8215 (2020)
[ 2]  J. W. Furness, A. D. Kaplan, J. Ning, J. P. Perdew, and J. Sun.,  J. Phys. Chem. Lett. 11, 9248-9248 (2020)
Using LibXC functional ID 498 : Re-regularized SCAN correlation by Furness et al
[ 1]  J. W. Furness, A. D. Kaplan, J. Ning, J. P. Perdew, and J. Sun.,  J. Phys. Chem. Lett. 11, 8208-8215 (2020)
[ 2]  J. W. Furness, A. D. Kaplan, J. Ning, J. P. Perdew, and J. Sun.,  J. Phys. Chem. Lett. 11, 9248-9248 (2020)
Using LibXC functional ID 497 : Re-regularized SCAN exchange by Furness et al
[ 1]  J. W. Furness, A. D. Kaplan, J. Ning, J. P. Perdew, and J. Sun.,  J. Phys. Chem. Lett. 11, 8208-8215 (2020)
[ 2]  J. W. Furness, A. D. Kaplan, J. Ning, J. P. Perdew, and J. Sun.,  J. Phys. Chem. Lett. 11, 9248-9248 (2020)
Using LibXC functional ID 498 : Re-regularized SCAN correlation by Furness et al
[ 1]  J. W. Furness, A. D. Kaplan, J. Ning, J. P. Perdew, and J. Sun.,  J. Phys. Chem. Lett. 11, 8208-8215 (2020)
[ 2]  J. W. Furness, A. D. Kaplan, J. Ning, J. P. Perdew, and J. Sun.,  J. Phys. Chem. Lett. 11, 9248-9248 (2020)


WARNING: Found flag for RIJCOSX approximation but no HF exchange needed!
  ===> : RIJCOSX  will be disabled and Split-RI-J is turned on

WARNING: your system is open-shell and RHF/RKS was chosen
  ===> : WILL SWITCH to UHF/UKS


================================================================================
                                       INPUT FILE
================================================================================
NAME = cs_rporg_075_ox_solv_03.inp
|  1> !r2SCAN aug-cc-pVTZ d3 TightSCF SlowConv RIJCOSX defgrid2
|  2>  
|  3> %pal
|  4> nprocs 4
|  5> end
|  6>  
|  7> %scf
|  8> MaxIter 1500
|  9> end
| 10>  
| 11> %maxcore 3000
| 12>  
| 13> !CPCM
| 14> %cpcm smd true
| 15> SMDsolvent "MeCN"
| 16> surfacetype gepol_ses
| 17> rsolv 2.19
| 18> end 
| 19>  
| 20> * xyz 1 2
| 21> C          -0.22428548195010     -1.24213438922305     -0.03849982740281
| 22> C           1.14800811610277     -1.22870080724969      0.00227297677880
| 23> C           1.84566180598227     -0.00004019353139      0.02297012210753
| 24> C           1.14805042698559      1.22864411313713      0.00227054482980
| 25> C          -0.22424154749405      1.24212983950181     -0.03850931873892
| 26> C          -0.94084900168795      0.00001024661649     -0.05989305493678
| 27> N          -2.26985305582395      0.00003075135377     -0.09979281491323
| 28> H          -2.80165535396914      0.86997483968693     -0.11591197867223
| 29> H          -2.80167508667297     -0.86990117124685     -0.11590823438470
| 30> H          -0.77890173993705      2.18488554366972     -0.05504522287995
| 31> H           1.70373713208460      2.16980587419055      0.01885237386387
| 32> H           2.93889913121278     -0.00005967561260      0.05550059305168
| 33> H           1.70365895934134     -2.16988118368011      0.01885253182221
| 34> H          -0.77898600417414     -2.18486378761269     -0.05503389052528
| 35> *
| 36> 
| 37>                          ****END OF INPUT****
================================================================================

                       ****************************
                       * Single Point Calculation *
                       ****************************

---------------------------------
CARTESIAN COORDINATES (ANGSTROEM)
---------------------------------
  C     -0.224285   -1.242134   -0.038500
  C      1.148008   -1.228701    0.002273
  C      1.845662   -0.000040    0.022970
  C      1.148050    1.228644    0.002271
  C     -0.224242    1.242130   -0.038509
  C     -0.940849    0.000010   -0.059893
  N     -2.269853    0.000031   -0.099793
  H     -2.801655    0.869975   -0.115912
  H     -2.801675   -0.869901   -0.115908
  H     -0.778902    2.184886   -0.055045
  H      1.703737    2.169806    0.018852
  H      2.938899   -0.000060    0.055501
  H      1.703659   -2.169881    0.018853
  H     -0.778986   -2.184864   -0.055034

----------------------------
CARTESIAN COORDINATES (A.U.)
----------------------------
  NO LB      ZA    FRAG     MASS         X           Y           Z
   0 C     6.0000    0    12.011   -0.423838   -2.347294   -0.072754
   1 C     6.0000    0    12.011    2.169421   -2.321908    0.004295
   2 C     6.0000    0    12.011    3.487795   -0.000076    0.043407
   3 C     6.0000    0    12.011    2.169501    2.321801    0.004291
   4 C     6.0000    0    12.011   -0.423755    2.347285   -0.072772
   5 C     6.0000    0    12.011   -1.777947    0.000019   -0.113181
   6 N     7.0000    0    14.007   -4.289401    0.000058   -0.188581
   7 H     1.0000    0     1.008   -5.294361    1.644014   -0.219042
   8 H     1.0000    0     1.008   -5.294399   -1.643875   -0.219035
   9 H     1.0000    0     1.008   -1.471911    4.128835   -0.104020
  10 H     1.0000    0     1.008    3.219597    4.100339    0.035626
  11 H     1.0000    0     1.008    5.553714   -0.000113    0.104881
  12 H     1.0000    0     1.008    3.219449   -4.100481    0.035626
  13 H     1.0000    0     1.008   -1.472070   -4.128794   -0.103999

--------------------------------
INTERNAL COORDINATES (ANGSTROEM)
--------------------------------
 C      0   0   0     0.000000000000     0.00000000     0.00000000
 C      1   0   0     1.372964894650     0.00000000     0.00000000
 C      2   1   0     1.413066150798   120.16005644     0.00000000
 C      3   2   1     1.413065898696   120.80307296     0.00000000
 C      4   3   2     1.372963992721   120.16026996     0.00000000
 C      1   2   3     1.434170228511   119.43005570     0.00000000
 N      6   1   2     1.329602860698   119.99155062   179.97950645
 H      7   6   1     1.019743216981   121.45029771   180.01560481
 H      7   6   1     1.019743070190   121.44982721     0.00000000
 H      5   4   3     1.093942266734   121.04388261   180.00471216
 H      4   3   2     1.093091090325   119.83263199   179.99418184
 H      3   2   1     1.093721208168   119.59842431   179.99707600
 H      2   1   3     1.093088853760   120.00715744   179.99720197
 H      1   2   3     1.093940018094   121.04422205   179.99529444

---------------------------
INTERNAL COORDINATES (A.U.)
---------------------------
 C      0   0   0     0.000000000000     0.00000000     0.00000000
 C      1   0   0     2.594527642377     0.00000000     0.00000000
 C      2   1   0     2.670308034122   120.16005644     0.00000000
 C      3   2   1     2.670307557719   120.80307296     0.00000000
 C      4   3   2     2.594525937979   120.16026996     0.00000000
 C      1   2   3     2.710188961310   119.43005570     0.00000000
 N      6   1   2     2.512585273598   119.99155062   179.97950645
 H      7   6   1     1.927035407018   121.45029771   180.01560481
 H      7   6   1     1.927035129623   121.44982721     0.00000000
 H      5   4   3     2.067251290449   121.04388261   180.00471216
 H      4   3   2     2.065642800143   119.83263199   179.99418184
 H      3   2   1     2.066833550299   119.59842431   179.99707600
 H      2   1   3     2.065638573649   120.00715744   179.99720197
 H      1   2   3     2.067247041134   121.04422205   179.99529444

---------------------
BASIS SET INFORMATION
---------------------
There are 3 groups of distinct atoms

 Group   1 Type C   : 19s6p3d2f contracted to 5s4p3d2f pattern {88111/3111/111/11}
 Group   2 Type N   : 19s6p3d2f contracted to 5s4p3d2f pattern {88111/3111/111/11}
 Group   3 Type H   : 6s3p2d contracted to 4s3p2d pattern {3111/111/11}

Atom   0C    basis set group =>   1
Atom   1C    basis set group =>   1
Atom   2C    basis set group =>   1
Atom   3C    basis set group =>   1
Atom   4C    basis set group =>   1
Atom   5C    basis set group =>   1
Atom   6N    basis set group =>   2
Atom   7H    basis set group =>   3
Atom   8H    basis set group =>   3
Atom   9H    basis set group =>   3
Atom  10H    basis set group =>   3
Atom  11H    basis set group =>   3
Atom  12H    basis set group =>   3
Atom  13H    basis set group =>   3
---------------------------------
AUXILIARY/J BASIS SET INFORMATION
---------------------------------
There are 3 groups of distinct atoms

 Group   1 Type C   : 12s5p4d2f1g contracted to 6s4p3d1f1g pattern {711111/2111/211/2/1}
 Group   2 Type N   : 12s5p4d2f1g contracted to 6s4p3d1f1g pattern {711111/2111/211/2/1}
 Group   3 Type H   : 5s2p1d contracted to 3s1p1d pattern {311/2/1}

Atom   0C    basis set group =>   1
Atom   1C    basis set group =>   1
Atom   2C    basis set group =>   1
Atom   3C    basis set group =>   1
Atom   4C    basis set group =>   1
Atom   5C    basis set group =>   1
Atom   6N    basis set group =>   2
Atom   7H    basis set group =>   3
Atom   8H    basis set group =>   3
Atom   9H    basis set group =>   3
Atom  10H    basis set group =>   3
Atom  11H    basis set group =>   3
Atom  12H    basis set group =>   3
Atom  13H    basis set group =>   3


           ************************************************************
           *        Program running with 4 parallel MPI-processes     *
           *              working on a common directory               *
           ************************************************************
------------------------------------------------------------------------------
                             ORCA STARTUP CALCULATIONS
                           -- RI-GTO INTEGRALS CHOSEN --
------------------------------------------------------------------------------
------------------------------------------------------------------------------
                   ___                                                        
                  /   \      - P O W E R E D   B Y -                         
                 /     \                                                     
                 |  |  |   _    _      __       _____    __    __             
                 |  |  |  | |  | |    /  \     |  _  \  |  |  /  |          
                  \  \/   | |  | |   /    \    | | | |  |  | /  /          
                 / \  \   | |__| |  /  /\  \   | |_| |  |  |/  /          
                |  |  |   |  __  | /  /__\  \  |    /   |      \           
                |  |  |   | |  | | |   __   |  |    \   |  |\   \          
                \     /   | |  | | |  |  |  |  | |\  \  |  | \   \       
                 \___/    |_|  |_| |__|  |__|  |_| \__\ |__|  \__/        
                                                                              
                      - O R C A' S   B I G   F R I E N D -                    
                                      &                                       
                       - I N T E G R A L  F E E D E R -                       
                                                                              
 v1 FN, 2020, v2 2021, v3 2022-2024                                           
------------------------------------------------------------------------------


----------------------
SHARK INTEGRAL PACKAGE
----------------------

Number of atoms                             ...     14
Number of basis functions                   ...    525
Number of shells                            ...    203
Maximum angular momentum                    ...      3
Integral batch strategy                     ... SHARK/LIBINT Hybrid
RI-J (if used) integral strategy            ... SPLIT-RIJ (Revised 2003 algorithm where possible)
Printlevel                                  ...      1
Contraction scheme used                     ... PARTIAL GENERAL contraction
Prescreening option                         ... SCHWARTZ
   Thresh                                   ... 2.500e-11
   Tcut                                     ... 2.500e-12
   Tpresel                                  ... 2.500e-12 
Coulomb Range Separation                    ... NOT USED
Exchange Range Separation                   ... NOT USED
Multipole approximations                    ... NOT USED
Finite Nucleus Model                        ... NOT USED
CABS basis                                  ... NOT available
Auxiliary Coulomb fitting basis             ... AVAILABLE
   # of basis functions in Aux-J            ...    420
   # of shells in Aux-J                     ...    140
   Maximum angular momentum in Aux-J        ...      4
Auxiliary J/K fitting basis                 ... NOT available
Auxiliary Correlation fitting basis         ... NOT available
Auxiliary 'external' fitting basis          ... NOT available

Checking pre-screening integrals            ... done (  0.0 sec) Dimension = 203
Save PGC pre-screening integrals            ... done (  0.1 sec) Dimension = 203
Calculate PGC overlap integrals             ... done (  0.2 sec) Dimension = 161
Calculating pre-screening integrals (ORCA)  ... done (  0.3 sec) Dimension = 161
Check shell pair data                       ... done (  0.0 sec)
Shell pair information
Shell pair cut-off parameter TPreSel        ...   2.5e-12
Total number of shell pairs                 ...     20706
Shell pairs after pre-screening             ...     18485
Total number of primitive shell pairs       ...     26838
Primitive shell pairs kept                  ...     22469
          la=0 lb=0:   4267 shell pairs
          la=1 lb=0:   4716 shell pairs
          la=1 lb=1:   1184 shell pairs
          la=2 lb=0:   3357 shell pairs
          la=2 lb=1:   1660 shell pairs
          la=2 lb=2:    610 shell pairs
          la=3 lb=0:   1423 shell pairs
          la=3 lb=1:    678 shell pairs
          la=3 lb=2:    485 shell pairs
          la=3 lb=3:    105 shell pairs

Calculating one electron integrals          ... done (  0.0 sec)
Calculating RI/J V-Matrix + Cholesky decomp.... done (  0.0 sec)
Calculating Nuclear repulsion               ... done (  0.0 sec) ENN=    271.305350082486 Eh

Diagonalization of the overlap matrix:
Smallest eigenvalue                        ... 6.965e-07
Time for diagonalization                   ...    0.035 sec
Threshold for overlap eigenvalues          ... 1.000e-07
Number of eigenvalues below threshold      ... 0

IMPORTANT:
Smallest eigenvalue of S below the DiffSThresh (1.000e-06) while
Thresh>1e-12 and/or TCut>1e-13! In order to avoid SCF convergence issues,
Thresh will be set to at least 1e-12 and TCut to at least 1e-13.
This can be turned off by adding %SCF DiffSThresh -1 END to the input.

Time for construction of square roots      ...    0.033 sec
Total time needed                          ...    0.092 sec

-------------------
DFT GRID GENERATION
-------------------

General Integration Accuracy     IntAcc      ... 4.388
Radial Grid Type                 RadialGrid  ... OptM3 with GC (2021)
Angular Grid (max. ang.)         AngularGrid ... 4 (Lebedev-302)
Angular grid pruning method      GridPruning ... 4 (adaptive)
Weight generation scheme         WeightScheme... mBecke (2022)
Basis function cutoff            BFCut       ... 1.0000e-11
Integration weight cutoff        WCut        ... 1.0000e-14
Partially contracted basis set               ... off
Rotationally invariant grid construction     ... off
Angular grids for H and He will be reduced by one unit
Diffuse basis detected: some atoms will have their outermost
                        angular grid increased by 1.

Total number of grid points                  ...    67963
Total number of batches                      ...     1068
Average number of points per batch           ...       63
Average number of grid points per atom       ...     4854

---------------------
SHARK GRID GENERATION
---------------------

General Integration Accuracy     IntAcc      ... 4.388
Radial Grid Type                 RadialGrid  ... OptM3 with GC (2021)
Angular Grid (max. ang.)         AngularGrid ... 4 (Lebedev-302)
Angular grid pruning method      GridPruning ... 4 (adaptive)
Weight generation scheme         WeightScheme... mBecke (2022)
Basis function cutoff            BFCut       ... 1.0000e-11
Integration weight cutoff        WCut        ... 1.0000e-14
Partially contracted basis set               ... off
Rotationally invariant grid construction     ... off
Angular grids for H and He will be reduced by one unit
Diffuse basis detected: some atoms will have their outermost
                        angular grid increased by 1.
Steep s-basis detected: some atoms will have their radial
                        grid points doubled.

Total number of grid points                  ...   112247
Total number of batches                      ...     1760
Average number of points per batch           ...       63
Average number of grid points per atom       ...     8018
Initializing property integral containers    ... done (  0.1 sec)

SHARK setup successfully completed in   4.3 seconds

Maximum memory used throughout the entire STARTUP-calculation: 51.7 MB


           ************************************************************
           *        Program running with 4 parallel MPI-processes     *
           *              working on a common directory               *
           ************************************************************
-------------------------------------------------------------------------------
                                 ORCA GUESS
                   Start orbitals & Density for SCF / CASSCF
-------------------------------------------------------------------------------

------------
SCF SETTINGS
------------
Hamiltonian:
 Density Functional     Method          .... DFT(GTOs)
  Functional kind                       .... Exchange
  Functional name                       .... Re-regularized SCAN exchange by Furness et al
  Functional family                     .... MGGA
  Functional refs                              
    [ 0] J. W. Furness, A. D. Kaplan, J. Ning, J. P. Perdew, and J. Sun.,  J. Phys. Chem. Lett. 11, 8208-8215 (2020), doi: 10.1021/acs.jpclett.0c02405
    [ 1] J. W. Furness, A. D. Kaplan, J. Ning, J. P. Perdew, and J. Sun.,  J. Phys. Chem. Lett. 11, 9248-9248 (2020), doi: 10.1021/acs.jpclett.0c03077
  Functional external parameters        .... 6
    Parameter  0 _c1        =  6.670000e-01 : c1 parameter        
    Parameter  1 _c2        =  8.000000e-01 : c2 parameter        
    Parameter  2 _d         =  1.240000e+00 : d parameter         
    Parameter  3 _k1        =  6.500000e-02 : k1 parameter        
    Parameter  4 _eta       =  1.000000e-03 : eta parameter       
    Parameter  5 _dp2       =  3.610000e-01 : dp2 parameter       
  Functional kind                       .... Correlation
  Functional name                       .... Re-regularized SCAN correlation by Furness et al
  Functional family                     .... MGGA
  Functional refs                              
    [ 0] J. W. Furness, A. D. Kaplan, J. Ning, J. P. Perdew, and J. Sun.,  J. Phys. Chem. Lett. 11, 8208-8215 (2020), doi: 10.1021/acs.jpclett.0c02405
    [ 1] J. W. Furness, A. D. Kaplan, J. Ning, J. P. Perdew, and J. Sun.,  J. Phys. Chem. Lett. 11, 9248-9248 (2020), doi: 10.1021/acs.jpclett.0c03077
  Functional external parameters        .... 1
    Parameter  0 _eta       =  1.000000e-03 : Regularization parameter
 Gradients option       PostSCFGGA      .... off
   NL short-range parameter             .... 12.300000
 RI-approximation to the Coulomb term is turned on
   Number of AuxJ basis functions       .... 420


General Settings:
 Integral files         IntName         .... cs_rporg_075_ox_solv_03
 Hartree-Fock type      HFTyp           .... UHF
 Total Charge           Charge          ....    1
 Multiplicity           Mult            ....    2
 Number of Electrons    NEL             ....   49
 Basis Dimension        Dim             ....  483
 Nuclear Repulsion      ENuc            ....    271.3053500825 Eh

Convergence Acceleration:
 AO-DIIS                CNVDIIS         .... on
   Start iteration      DIISMaxIt       ....     0
   Startup error        DIISStart       ....  0.200000
   # of expansion vecs  DIISMaxEq       ....     5
   Bias factor          DIISBfac        ....   1.050
   Max. coefficient     DIISMaxC        ....  10.000
 MO-DIIS                CNVKDIIS        .... off
 Trust-Rad. Augm. Hess. CNVTRAH         .... auto
   Auto Start mean grad. ratio tolernc. ....  1.125000
   Auto Start start iteration           ....    50
   Auto Start num. interpolation iter.  ....    10
   Max. Number of Micro iterations      ....    24
   Max. Number of Macro iterations      .... Maxiter - #DIIS iter
   Number of Davidson start vectors     ....     2
   Converg. threshold    (grad. norm)   ....   1.000e-05
   Grad. Scal. Fac. for Micro threshold ....   0.100
   Minimum threshold for Micro iter.    ....   1.000e-02
   NR start threshold (gradient norm)   ....   1.000e-04
   Initial trust radius                 ....   0.400
   Minimum AH scaling param. (alpha)    ....   1.000
   Maximum AH scaling param. (alpha)    .... 1000.000
   Quad. conv. algorithm                .... NR
   White noise on init. David. guess    .... on
   Maximum white noise                  ....   0.010
   Pseudo random numbers                .... off
   Inactive MOs                         .... canonical
   Orbital update algorithm             .... Taylor
   Preconditioner                       .... Diag
   Full preconditioner red. dimension   ....   250
 SOSCF                  CNVSOSCF        .... on
   Start iteration      SOSCFMaxIt      ....   150
   Startup grad/error   SOSCFStart      ....  0.001000
   Hessian update       SOSCFHessUp     .... L-BFGS
 Level Shifting         CNVShift        .... on
   Level shift para.    LevelShift      ....    0.2500
   Turn off err/grad.   ShiftErr        ....    0.0000
 Zerner damping         CNVZerner       .... off
 Static damping         CNVDamp         .... on
   Fraction old density DampFac         ....    0.8500
   Max. Damping (<1)    DampMax         ....    0.9800
   Min. Damping (>=0)   DampMin         ....    0.0000
   Turn off err/grad.   DampErr         ....    0.0300

SCF Procedure:
 Maximum # iterations   MaxIter         ....  1500
 SCF integral mode      SCFMode         .... Direct
   Integral package                     .... SHARK and LIBINT hybrid scheme
 Reset frequency        DirectResetFreq ....    20
 Integral Threshold     Thresh          ....  1.000e-12 Eh
 Primitive CutOff       TCut            ....  1.000e-13 Eh

Convergence Tolerance:
 Convergence Check Mode ConvCheckMode   .... Total+1el-Energy
 Convergence forced     ConvForced      .... 0
 Energy Change          TolE            ....  1.000e-08 Eh
 1-El. energy change                    ....  1.000e-05 Eh
 Orbital Gradient       TolG            ....  1.000e-05
 Orbital Rotation angle TolX            ....  1.000e-05
 DIIS Error             TolErr          ....  5.000e-07

------------------------------
INITIAL GUESS: MODEL POTENTIAL
------------------------------
Loading Hartree-Fock densities                     ... done
Calculating cut-offs                               ... done
Initializing the effective Hamiltonian             ... done
Setting up the integral package (SHARK)            ... done
Starting the Coulomb interaction                   ... done (   0.4 sec)
Making the grid                                    ... done (   0.4 sec)
Mapping shells                                     ... done
Starting the XC term evaluation                    ... done (   0.5 sec)
  promolecular density results
     # of electrons  =     49.998429352
     EX              =    -39.278084902
     EC              =     -1.642632468
     EX+EC           =    -40.920717371
Transforming the Hamiltonian                       ... done (   0.0 sec)
Diagonalizing the Hamiltonian                      ... done (   0.0 sec)
Back transforming the eigenvectors                 ... done (   0.1 sec)
Now organizing SCF variables                       ... done
                      ------------------
                      INITIAL GUESS DONE (   1.6 sec)
                      ------------------
             **** ENERGY FILE WAS UPDATED (cs_rporg_075_ox_solv_03.en.tmp) ****
Finished Guess after   2.6 sec
Maximum memory used throughout the entire GUESS-calculation: 35.9 MB


           ************************************************************
           *        Program running with 4 parallel MPI-processes     *
           *              working on a common directory               *
           ************************************************************

-------------------------------------------------------------------------------------------
                                      ORCA LEAN-SCF
                              memory conserving SCF solver
-------------------------------------------------------------------------------------------

--------------------
CPCM SOLVATION MODEL
--------------------
CPCM parameters:
  Epsilon                                         ...      35.6880
  Refrac                                          ...       1.3442
  Rsolv                                           ...       2.1900
  Surface type                                    ...    GEPOL SES
  Discretization scheme                           ... Constant num. charges
  Epsilon function type                           ...         CPCM
Solvent:                                          ... ACETONITRILE
SMD-CDS solvent descriptors:
  Soln                                            ...       1.3442
  Soln25                                          ...       1.3416
  Sola                                            ...       0.0700
  Solb                                            ...       0.3200
  Solg                                            ...      41.2500
  Solc                                            ...       0.0000
  Solh                                            ...       0.0000
Radii:
  Scheme                                          ... Element-dependent radii
  Radius for C  used is    3.4960 Bohr (=   1.8500 Ang.)
  Radius for N  used is    3.5716 Bohr (=   1.8900 Ang.)
  Radius for H  used is    2.2677 Bohr (=   1.2000 Ang.)
Calculating surface                               ...        done! (  0.0s)
Cavity surface points                             ...          454
Cavity Volume                                     ...     748.4690
Cavity Surface-area                               ...     457.0339
Calculating surface distance matrix               ...        done! (  0.0s)
Performing Cholesky decomposition & store         ...        done! (  0.0s)
Overall time for CPCM initialization              ...                 0.0s

----------------------------------------D-I-I-S--------------------------------------------
Iteration    Energy (Eh)           Delta-E    RMSDP     MaxDP     DIISErr   Damp  Time(sec)
-------------------------------------------------------------------------------------------
               ***  Starting incremental Fock matrix formation  ***
    1    -287.2637259475944234     0.00e+00  3.83e-04  1.51e-02  8.03e-02  0.850   9.7
Warning: op=1 Small HOMO/LUMO gap (   0.057) - skipping pre-diagonalization
         Will do a full diagonalization
    2    -287.2883509657008858    -2.46e-02  3.64e-04  1.31e-02  5.98e-02  0.850   9.9
                               ***Turning on AO-DIIS***
    3    -287.3051919454841823    -1.68e-02  2.86e-04  1.01e-02  4.14e-02  0.850   9.7
    4    -287.3164392256155111    -1.12e-02  2.37e-04  8.35e-03  3.35e-02  0.850   9.1
    5    -287.3247166469934086    -8.28e-03  1.99e-04  7.15e-03  2.84e-02  0.850   9.2
    6    -287.3312783580485643    -6.56e-03  1.12e-03  4.13e-02  2.44e-02  0.000   8.8
    7    -287.3644615966351807    -3.32e-02  7.56e-05  7.81e-03  3.25e-03  0.000   9.6
    8    -287.3646093827808841    -1.48e-04  2.29e-05  1.46e-03  2.16e-03  0.000   8.2
    9    -287.3646921032395198    -8.27e-05  3.37e-05  2.71e-03  1.23e-03  0.000   8.3
                              *** Initializing SOSCF ***
---------------------------------------S-O-S-C-F--------------------------------------
Iteration    Energy (Eh)           Delta-E    RMSDP     MaxDP     MaxGrad    Time(sec)
--------------------------------------------------------------------------------------
   10    -287.3647659798049858    -7.39e-05  1.91e-05  1.17e-03  7.69e-04     8.7
               *** Restarting incremental Fock matrix formation ***
   11    -287.3648023579746109    -3.64e-05  1.00e-05  8.77e-04  1.09e-03     9.3
   12    -287.3648218530368581    -1.95e-05  2.79e-05  1.84e-03  7.30e-04     7.6
   13    -287.3648285581522828    -6.71e-06  1.18e-05  9.27e-04  8.46e-04     7.7
   14    -287.3648349348167699    -6.38e-06  6.65e-06  5.80e-04  2.60e-04     8.5
   15    -287.3648356226785268    -6.88e-07  1.99e-06  1.20e-04  5.31e-05     7.5
   16    -287.3648357567347489    -1.34e-07  1.24e-06  8.05e-05  5.83e-05     7.2
   17    -287.3648357879912396    -3.13e-08  4.93e-07  1.40e-05  3.18e-05     7.6
   18    -287.3648357975417298    -9.55e-09  4.59e-07  3.11e-05  1.21e-05     7.1
                 **** Energy Check signals convergence ****

               *****************************************************
               *                     SUCCESS                       *
               *           SCF CONVERGED AFTER  18 CYCLES          *
               *****************************************************


SMD CDS free energy correction energy :                -0.91223     Kcal/mol
Total Energy after SMD CDS correction =              -287.366289536 Eh
             **** ENERGY FILE WAS UPDATED (cs_rporg_075_ox_solv_03.en.tmp) ****

----------------
TOTAL SCF ENERGY
----------------

Total Energy       :       -287.36628953556328 Eh           -7819.63428 eV

Components:
Nuclear Repulsion  :        271.30535008248552 Eh            7382.59390 eV
Electronic Energy  :       -558.57296158590555 Eh          -15199.54301 eV
One Electron Energy:       -913.87792921446658 Eh          -24867.88271 eV
Two Electron Energy:        355.30496762856103 Eh            9668.33970 eV
CPCM Dielectric    :         -0.09722429412173 Eh              -2.64561 eV
SMD CDS (Gcds)     :         -0.00145373802153 Eh              -0.03956 eV

Virial components:
Potential Energy   :       -572.92937880674731 Eh          -15590.20099 eV
Kinetic Energy     :        285.56308927118408 Eh            7770.56671 eV
Virial Ratio       :          2.00631454250261

DFT components:
N(Alpha)           :       24.999976463450 electrons
N(Beta)            :       23.999980838314 electrons
N(Total)           :       48.999957301765 electrons
E(X)               :      -40.071140858788 Eh       
E(C)               :       -1.563346639235 Eh       
E(XC)              :      -41.634487498023 Eh       

CPCM Solvation Model Properties:
Surface-charge          :         -1.02948348373255
Corrected charge        :         -1.00000000000000
Outlying charge corr.   :          0.00007128745965 Eh               0.00194 eV
Free-energy (cav+disp)  :         -0.00145373802153 Eh              -0.03956 eV

---------------
SCF CONVERGENCE
---------------

  Last Energy change         ...    9.5505e-09  Tolerance :   1.0000e-08
  Last MAX-Density change    ...    3.1074e-05  Tolerance :   1.0000e-07
  Last RMS-Density change    ...    4.5934e-07  Tolerance :   5.0000e-09
  Last DIIS Error            ...    7.6933e-04  Tolerance :   5.0000e-07
  Last Orbital Gradient      ...    1.2088e-05  Tolerance :   1.0000e-05
  Last Orbital Rotation      ...    6.1114e-05  Tolerance :   1.0000e-05


----------------------
UHF SPIN CONTAMINATION
----------------------

Warning: in a DFT calculation there is little theoretical justification to 
         calculate <S**2> as in Hartree-Fock theory. We will do it anyways
         but you should keep in mind that the values have only limited relevance

Expectation value of <S**2>     :     0.788130
Ideal value S*(S+1) for S=0.5   :     0.750000
Deviation                       :     0.038130

----------------
ORBITAL ENERGIES
----------------
                 SPIN UP ORBITALS
  NO   OCC          E(Eh)            E(eV) 
   0   1.0000     -14.259798      -388.0288 
   1   1.0000     -10.145411      -276.0707 
   2   1.0000     -10.090120      -274.5661 
   3   1.0000     -10.085959      -274.4529 
   4   1.0000     -10.085954      -274.4528 
   5   1.0000     -10.073730      -274.1201 
   6   1.0000     -10.073728      -274.1201 
   7   1.0000      -0.965079       -26.2611 
   8   1.0000      -0.849037       -23.1035 
   9   1.0000      -0.756631       -20.5890 
  10   1.0000      -0.737599       -20.0711 
  11   1.0000      -0.620403       -16.8820 
  12   1.0000      -0.619096       -16.8465 
  13   1.0000      -0.538448       -14.6519 
  14   1.0000      -0.530730       -14.4419 
  15   1.0000      -0.487437       -13.2638 
  16   1.0000      -0.438178       -11.9234 
  17   1.0000      -0.429521       -11.6879 
  18   1.0000      -0.425545       -11.5797 
  19   1.0000      -0.421828       -11.4785 
  20   1.0000      -0.361286        -9.8311 
  21   1.0000      -0.350870        -9.5477 
  22   1.0000      -0.340836        -9.2746 
  23   1.0000      -0.281026        -7.6471 
  24   1.0000      -0.247191        -6.7264 
  25   0.0000      -0.068560        -1.8656 
  26   0.0000      -0.067888        -1.8473 
  27   0.0000       0.004251         0.1157 
  28   0.0000       0.017609         0.4792 
  29   0.0000       0.024143         0.6570 
  30   0.0000       0.039239         1.0677 
  31   0.0000       0.043217         1.1760 
  32   0.0000       0.048578         1.3219 
  33   0.0000       0.050322         1.3693 
  34   0.0000       0.063008         1.7145 
  35   0.0000       0.067809         1.8452 

                 SPIN DOWN ORBITALS
  NO   OCC          E(Eh)            E(eV) 
   0   1.0000     -14.250043      -387.7634 
   1   1.0000     -10.144990      -276.0592 
   2   1.0000     -10.083163      -274.3768 
   3   1.0000     -10.081874      -274.3417 
   4   1.0000     -10.081870      -274.3416 
   5   1.0000     -10.075949      -274.1805 
   6   1.0000     -10.075946      -274.1804 
   7   1.0000      -0.950816       -25.8730 
   8   1.0000      -0.840362       -22.8674 
   9   1.0000      -0.752765       -20.4838 
  10   1.0000      -0.722460       -19.6591 
  11   1.0000      -0.617667       -16.8076 
  12   1.0000      -0.611499       -16.6397 
  13   1.0000      -0.536477       -14.5983 
  14   1.0000      -0.525537       -14.3006 
  15   1.0000      -0.482603       -13.1323 
  16   1.0000      -0.434959       -11.8358 
  17   1.0000      -0.426964       -11.6183 
  18   1.0000      -0.421456       -11.4684 
  19   1.0000      -0.398769       -10.8511 
  20   1.0000      -0.359366        -9.7788 
  21   1.0000      -0.339251        -9.2315 
  22   1.0000      -0.322937        -8.7876 
  23   1.0000      -0.271419        -7.3857 
  24   0.0000      -0.195941        -5.3318 
  25   0.0000      -0.056914        -1.5487 
  26   0.0000      -0.040829        -1.1110 
  27   0.0000       0.006190         0.1684 
  28   0.0000       0.020066         0.5460 
  29   0.0000       0.024695         0.6720 
  30   0.0000       0.042675         1.1612 
  31   0.0000       0.043586         1.1860 
  32   0.0000       0.050661         1.3786 
  33   0.0000       0.052295         1.4230 
  34   0.0000       0.064288         1.7494 
*Only the first 10 virtual orbitals were printed.

                    ********************************
                    * MULLIKEN POPULATION ANALYSIS *
                    ********************************

--------------------------------------------
MULLIKEN ATOMIC CHARGES AND SPIN POPULATIONS
--------------------------------------------
   0 C :   -0.654617    0.247319
   1 C :   -0.310970   -0.171907
   2 C :   -0.347275    0.429411
   3 C :   -0.310963   -0.171907
   4 C :   -0.654615    0.247318
   5 C :    1.148659    0.048441
   6 N :   -0.336204    0.411268
   7 H :    0.065189   -0.009429
   8 H :    0.065188   -0.009429
   9 H :    0.580182   -0.008139
  10 H :    0.331850   -0.010425
  11 H :    0.511540    0.016041
  12 H :    0.331854   -0.010426
  13 H :    0.580182   -0.008137
Sum of atomic charges         :    1.0000000
Sum of atomic spin populations:    1.0000000

-----------------------------------------------------
MULLIKEN REDUCED ORBITAL CHARGES AND SPIN POPULATIONS
-----------------------------------------------------
CHARGE
  0 C s       :     3.978347  s :     3.978347
      pz      :     0.903764  p :     2.660927
      px      :     0.814256
      py      :     0.942908
      dz2     :     0.003459  d :     0.035764
      dxz     :     0.012944
      dyz     :    -0.000727
      dx2y2   :    -0.002240
      dxy     :     0.022327
      f0      :     0.000487  f :    -0.020422
      f+1     :    -0.000275
      f-1     :    -0.000058
      f+2     :     0.001466
      f-2     :    -0.000101
      f+3     :     0.000785
      f-3     :    -0.022725

  1 C s       :     3.560317  s :     3.560317
      pz      :     0.909828  p :     2.747036
      px      :     0.951422
      py      :     0.885786
      dz2     :    -0.016355  d :     0.011634
      dxz     :     0.015061
      dyz     :     0.011031
      dx2y2   :    -0.001793
      dxy     :     0.003690
      f0      :     0.000529  f :    -0.008017
      f+1     :     0.000605
      f-1     :     0.000250
      f+2     :     0.000494
      f-2     :     0.000632
      f+3     :     0.000000
      f-3     :    -0.010527

  2 C s       :     3.700236  s :     3.700236
      pz      :     0.825023  p :     2.637071
      px      :     0.968016
      py      :     0.844031
      dz2     :    -0.001428  d :     0.016379
      dxz     :     0.003581
      dyz     :     0.019924
      dx2y2   :     0.019852
      dxy     :    -0.025550
      f0      :     0.000891  f :    -0.006410
      f+1     :     0.000149
      f-1     :     0.000210
      f+2     :     0.000477
      f-2     :     0.000594
      f+3     :     0.000903
      f-3     :    -0.009635

  3 C s       :     3.560302  s :     3.560302
      pz      :     0.909826  p :     2.747045
      px      :     0.951428
      py      :     0.885791
      dz2     :    -0.016355  d :     0.011632
      dxz     :     0.015060
      dyz     :     0.011030
      dx2y2   :    -0.001796
      dxy     :     0.003692
      f0      :     0.000529  f :    -0.008016
      f+1     :     0.000605
      f-1     :     0.000250
      f+2     :     0.000494
      f-2     :     0.000632
      f+3     :     0.000001
      f-3     :    -0.010527

  4 C s       :     3.978352  s :     3.978352
      pz      :     0.903762  p :     2.660926
      px      :     0.814262
      py      :     0.942902
      dz2     :     0.003459  d :     0.035760
      dxz     :     0.012945
      dyz     :    -0.000726
      dx2y2   :    -0.002238
      dxy     :     0.022320
      f0      :     0.000487  f :    -0.020423
      f+1     :    -0.000275
      f-1     :    -0.000058
      f+2     :     0.001466
      f-2     :    -0.000101
      f+3     :     0.000787
      f-3     :    -0.022727

  5 C s       :     3.145231  s :     3.145231
      pz      :     0.812773  p :     1.774463
      px      :     0.330614
      py      :     0.631076
      dz2     :    -0.034444  d :    -0.020008
      dxz     :     0.040832
      dyz     :    -0.009824
      dx2y2   :    -0.007591
      dxy     :    -0.008981
      f0      :     0.003384  f :    -0.048345
      f+1     :    -0.003735
      f-1     :    -0.000324
      f+2     :     0.001779
      f-2     :     0.002335
      f+3     :    -0.009555
      f-3     :    -0.042229

  6 N s       :     3.865648  s :     3.865648
      pz      :     1.343505  p :     3.406985
      px      :     0.995296
      py      :     1.068183
      dz2     :    -0.006026  d :     0.055458
      dxz     :     0.031223
      dyz     :     0.001745
      dx2y2   :     0.015326
      dxy     :     0.013191
      f0      :     0.000665  f :     0.008114
      f+1     :     0.000627
      f-1     :    -0.000914
      f+2     :     0.001225
      f-2     :     0.000330
      f+3     :    -0.000895
      f-3     :     0.007075

  7 H s       :     0.818089  s :     0.818089
      pz      :     0.040975  p :     0.085517
      px      :     0.034523
      py      :     0.010019
      dz2     :     0.002380  d :     0.031205
      dxz     :     0.003885
      dyz     :     0.008308
      dx2y2   :     0.010437
      dxy     :     0.006195

  8 H s       :     0.818090  s :     0.818090
      pz      :     0.040975  p :     0.085517
      px      :     0.034523
      py      :     0.010019
      dz2     :     0.002380  d :     0.031205
      dxz     :     0.003886
      dyz     :     0.008308
      dx2y2   :     0.010437
      dxy     :     0.006195

  9 H s       :     0.441285  s :     0.441285
      pz      :     0.013357  p :    -0.028609
      px      :    -0.004525
      py      :    -0.037442
      dz2     :    -0.000580  d :     0.007142
      dxz     :     0.001472
      dyz     :     0.004055
      dx2y2   :     0.002178
      dxy     :     0.000017

 10 H s       :     0.647072  s :     0.647072
      pz      :     0.016989  p :     0.012056
      px      :    -0.000223
      py      :    -0.004711
      dz2     :    -0.000277  d :     0.009022
      dxz     :     0.001302
      dyz     :     0.004281
      dx2y2   :     0.002021
      dxy     :     0.001695

 11 H s       :     0.507599  s :     0.507599
      pz      :     0.012724  p :    -0.028458
      px      :    -0.035550
      py      :    -0.005633
      dz2     :     0.000086  d :     0.009319
      dxz     :     0.004780
      dyz     :    -0.000158
      dx2y2   :     0.001907
      dxy     :     0.002704

 12 H s       :     0.647068  s :     0.647068
      pz      :     0.016990  p :     0.012056
      px      :    -0.000223
      py      :    -0.004712
      dz2     :    -0.000278  d :     0.009022
      dxz     :     0.001302
      dyz     :     0.004282
      dx2y2   :     0.002020
      dxy     :     0.001695

 13 H s       :     0.441284  s :     0.441284
      pz      :     0.013357  p :    -0.028609
      px      :    -0.004526
      py      :    -0.037440
      dz2     :    -0.000580  d :     0.007143
      dxz     :     0.001472
      dyz     :     0.004055
      dx2y2   :     0.002178
      dxy     :     0.000017


SPIN
  0 C s       :     0.019358  s :     0.019358
      pz      :     0.222237  p :     0.229042
      px      :     0.004914
      py      :     0.001891
      dz2     :    -0.000866  d :     0.000996
      dxz     :    -0.000375
      dyz     :     0.001729
      dx2y2   :     0.001292
      dxy     :    -0.000784
      f0      :    -0.000691  f :    -0.002077
      f+1     :    -0.000365
      f-1     :    -0.000243
      f+2     :    -0.000810
      f-2     :    -0.000407
      f+3     :    -0.000075
      f-3     :     0.000515

  1 C s       :    -0.026743  s :    -0.026743
      pz      :    -0.124256  p :    -0.157862
      px      :    -0.027739
      py      :    -0.005867
      dz2     :    -0.000087  d :     0.013102
      dxz     :     0.004894
      dyz     :    -0.001014
      dx2y2   :     0.007172
      dxy     :     0.002137
      f0      :     0.000127  f :    -0.000404
      f+1     :     0.000202
      f-1     :     0.000205
      f+2     :     0.000178
      f-2     :     0.000523
      f+3     :    -0.000873
      f-3     :    -0.000767

  2 C s       :     0.001582  s :     0.001582
      pz      :     0.374388  p :     0.414437
      px      :     0.004713
      py      :     0.035336
      dz2     :    -0.002111  d :     0.016489
      dxz     :     0.003511
      dyz     :    -0.002461
      dx2y2   :     0.014952
      dxy     :     0.002598
      f0      :    -0.000801  f :    -0.003098
      f+1     :    -0.000627
      f-1     :    -0.000480
      f+2     :     0.000184
      f-2     :    -0.000293
      f+3     :     0.000186
      f-3     :    -0.001267

  3 C s       :    -0.026743  s :    -0.026743
      pz      :    -0.124256  p :    -0.157862
      px      :    -0.027739
      py      :    -0.005868
      dz2     :    -0.000087  d :     0.013102
      dxz     :     0.004893
      dyz     :    -0.001014
      dx2y2   :     0.007171
      dxy     :     0.002138
      f0      :     0.000127  f :    -0.000404
      f+1     :     0.000202
      f-1     :     0.000205
      f+2     :     0.000178
      f-2     :     0.000523
      f+3     :    -0.000873
      f-3     :    -0.000767

  4 C s       :     0.019358  s :     0.019358
      pz      :     0.222236  p :     0.229040
      px      :     0.004914
      py      :     0.001890
      dz2     :    -0.000866  d :     0.000997
      dxz     :    -0.000375
      dyz     :     0.001729
      dx2y2   :     0.001292
      dxy     :    -0.000783
      f0      :    -0.000691  f :    -0.002077
      f+1     :    -0.000365
      f-1     :    -0.000243
      f+2     :    -0.000810
      f-2     :    -0.000407
      f+3     :    -0.000075
      f-3     :     0.000515

  5 C s       :     0.047984  s :     0.047984
      pz      :     0.033871  p :    -0.006564
      px      :    -0.016798
      py      :    -0.023637
      dz2     :    -0.001706  d :     0.007324
      dxz     :     0.013000
      dyz     :     0.002430
      dx2y2   :    -0.001140
      dxy     :    -0.005260
      f0      :    -0.000278  f :    -0.000302
      f+1     :    -0.000016
      f-1     :     0.000000
      f+2     :     0.000381
      f-2     :    -0.000191
      f+3     :    -0.000324
      f-3     :     0.000125

  6 N s       :     0.032041  s :     0.032041
      pz      :     0.344116  p :     0.376844
      px      :     0.009089
      py      :     0.023639
      dz2     :    -0.001912  d :     0.003348
      dxz     :     0.004234
      dyz     :     0.000128
      dx2y2   :    -0.000175
      dxy     :     0.001073
      f0      :     0.000041  f :    -0.000965
      f+1     :    -0.000337
      f-1     :    -0.000253
      f+2     :    -0.000010
      f-2     :    -0.000021
      f+3     :     0.000107
      f-3     :    -0.000491

  7 H s       :    -0.015685  s :    -0.015685
      pz      :     0.004754  p :     0.004427
      px      :     0.000426
      py      :    -0.000753
      dz2     :     0.000185  d :     0.001829
      dxz     :     0.000388
      dyz     :     0.001593
      dx2y2   :    -0.000379
      dxy     :     0.000042

  8 H s       :    -0.015684  s :    -0.015684
      pz      :     0.004754  p :     0.004427
      px      :     0.000426
      py      :    -0.000753
      dz2     :     0.000185  d :     0.001829
      dxz     :     0.000388
      dyz     :     0.001593
      dx2y2   :    -0.000379
      dxy     :     0.000042

  9 H s       :    -0.012147  s :    -0.012147
      pz      :     0.004202  p :     0.003135
      px      :     0.000145
      py      :    -0.001212
      dz2     :     0.000098  d :     0.000873
      dxz     :     0.000032
      dyz     :     0.000792
      dx2y2   :    -0.000025
      dxy     :    -0.000023

 10 H s       :    -0.007967  s :    -0.007967
      pz      :    -0.005293  p :    -0.002090
      px      :     0.000115
      py      :     0.003087
      dz2     :    -0.000015  d :    -0.000369
      dxz     :    -0.000223
      dyz     :    -0.000310
      dx2y2   :    -0.000003
      dxy     :     0.000184

 11 H s       :     0.004752  s :     0.004752
      pz      :     0.008990  p :     0.009858
      px      :     0.001591
      py      :    -0.000723
      dz2     :     0.000183  d :     0.001432
      dxz     :     0.001630
      dyz     :    -0.000024
      dx2y2   :    -0.000155
      dxy     :    -0.000203

 12 H s       :    -0.007967  s :    -0.007967
      pz      :    -0.005293  p :    -0.002090
      px      :     0.000115
      py      :     0.003087
      dz2     :    -0.000015  d :    -0.000369
      dxz     :    -0.000223
      dyz     :    -0.000310
      dx2y2   :    -0.000003
      dxy     :     0.000184

 13 H s       :    -0.012145  s :    -0.012145
      pz      :     0.004202  p :     0.003135
      px      :     0.000145
      py      :    -0.001212
      dz2     :     0.000098  d :     0.000873
      dxz     :     0.000032
      dyz     :     0.000791
      dx2y2   :    -0.000025
      dxy     :    -0.000023



                     *******************************
                     * LOEWDIN POPULATION ANALYSIS *
                     *******************************

-------------------------------------------
LOEWDIN ATOMIC CHARGES AND SPIN POPULATIONS
-------------------------------------------
   0 C :    0.279505    0.116621
   1 C :    0.243208    0.030778
   2 C :    0.261591    0.184734
   3 C :    0.243206    0.030778
   4 C :    0.279506    0.116620
   5 C :   -0.162738    0.130449
   6 N :    0.965981    0.255890
   7 H :   -0.192420    0.033248
   8 H :   -0.192422    0.033248
   9 H :   -0.139318    0.021891
  10 H :   -0.150708   -0.010513
  11 H :   -0.145360    0.044877
  12 H :   -0.150710   -0.010514
  13 H :   -0.139321    0.021892

----------------------------------------------------
LOEWDIN REDUCED ORBITAL CHARGES AND SPIN POPULATIONS
----------------------------------------------------
CHARGE
  0 C s       :     2.490962  s :     2.490962
      pz      :     0.580886  p :     2.249499
      px      :     0.852977
      py      :     0.815636
      dz2     :     0.067513  d :     0.654058
      dxz     :     0.095505
      dyz     :     0.050496
      dx2y2   :     0.191948
      dxy     :     0.248596
      f0      :     0.021772  f :     0.325976
      f+1     :     0.029318
      f-1     :     0.022267
      f+2     :     0.037706
      f-2     :     0.026452
      f+3     :     0.059251
      f-3     :     0.129210

  1 C s       :     2.496268  s :     2.496268
      pz      :     0.582005  p :     2.272291
      px      :     0.853886
      py      :     0.836399
      dz2     :     0.067380  d :     0.662953
      dxz     :     0.080796
      dyz     :     0.054150
      dx2y2   :     0.197990
      dxy     :     0.262638
      f0      :     0.020604  f :     0.325280
      f+1     :     0.028482
      f-1     :     0.022491
      f+2     :     0.041147
      f-2     :     0.018474
      f+3     :     0.056247
      f-3     :     0.137836

  2 C s       :     2.501479  s :     2.501479
      pz      :     0.535583  p :     2.232380
      px      :     0.844312
      py      :     0.852485
      dz2     :     0.067560  d :     0.677354
      dxz     :     0.039563
      dyz     :     0.113283
      dx2y2   :     0.285192
      dxy     :     0.171757
      f0      :     0.020648  f :     0.327195
      f+1     :     0.019514
      f-1     :     0.030467
      f+2     :     0.008263
      f-2     :     0.058031
      f+3     :     0.054921
      f-3     :     0.135350

  3 C s       :     2.496268  s :     2.496268
      pz      :     0.582005  p :     2.272291
      px      :     0.853887
      py      :     0.836398
      dz2     :     0.067380  d :     0.662954
      dxz     :     0.080794
      dyz     :     0.054152
      dx2y2   :     0.197983
      dxy     :     0.262646
      f0      :     0.020604  f :     0.325281
      f+1     :     0.028481
      f-1     :     0.022491
      f+2     :     0.041149
      f-2     :     0.018472
      f+3     :     0.056248
      f-3     :     0.137836

  4 C s       :     2.490963  s :     2.490963
      pz      :     0.580886  p :     2.249500
      px      :     0.852976
      py      :     0.815638
      dz2     :     0.067513  d :     0.654057
      dxz     :     0.095506
      dyz     :     0.050494
      dx2y2   :     0.191953
      dxy     :     0.248591
      f0      :     0.021772  f :     0.325975
      f+1     :     0.029318
      f-1     :     0.022266
      f+2     :     0.037704
      f-2     :     0.026454
      f+3     :     0.059251
      f-3     :     0.129210

  5 C s       :     2.458957  s :     2.458957
      pz      :     0.555727  p :     2.174316
      px      :     0.774328
      py      :     0.844261
      dz2     :     0.093909  d :     0.980161
      dxz     :     0.161392
      dyz     :     0.118708
      dx2y2   :     0.324996
      dxy     :     0.281156
      f0      :     0.033709  f :     0.549304
      f+1     :     0.042327
      f-1     :     0.034402
      f+2     :     0.056187
      f-2     :     0.061919
      f+3     :     0.081287
      f-3     :     0.239473

  6 N s       :     2.639769  s :     2.639769
      pz      :     0.915101  p :     2.883178
      px      :     0.992683
      py      :     0.975394
      dz2     :     0.037993  d :     0.380541
      dxz     :     0.064181
      dyz     :     0.004089
      dx2y2   :     0.092046
      dxy     :     0.182232
      f0      :     0.009014  f :     0.130532
      f+1     :     0.015767
      f-1     :     0.007983
      f+2     :     0.018821
      f-2     :     0.001959
      f+3     :     0.026063
      f-3     :     0.050924

  7 H s       :     0.559598  s :     0.559598
      pz      :     0.096286  p :     0.363405
      px      :     0.107086
      py      :     0.160033
      dz2     :     0.029324  d :     0.269417
      dxz     :     0.027718
      dyz     :     0.055397
      dx2y2   :     0.089977
      dxy     :     0.067001

  8 H s       :     0.559598  s :     0.559598
      pz      :     0.096286  p :     0.363406
      px      :     0.107088
      py      :     0.160032
      dz2     :     0.029324  d :     0.269418
      dxz     :     0.027720
      dyz     :     0.055395
      dx2y2   :     0.089978
      dxy     :     0.067000

  9 H s       :     0.642745  s :     0.642745
      pz      :     0.071302  p :     0.287328
      px      :     0.093801
      py      :     0.122224
      dz2     :     0.022940  d :     0.209245
      dxz     :     0.019484
      dyz     :     0.040797
      dx2y2   :     0.070762
      dxy     :     0.055262

 10 H s       :     0.652548  s :     0.652548
      pz      :     0.072500  p :     0.289128
      px      :     0.091606
      py      :     0.125022
      dz2     :     0.022559  d :     0.209031
      dxz     :     0.018782
      dyz     :     0.041547
      dx2y2   :     0.072370
      dxy     :     0.053773

 11 H s       :     0.655268  s :     0.655268
      pz      :     0.066225  p :     0.285991
      px      :     0.144308
      py      :     0.075458
      dz2     :     0.022659  d :     0.204101
      dxz     :     0.051739
      dyz     :     0.002958
      dx2y2   :     0.045332
      dxy     :     0.081414

 12 H s       :     0.652549  s :     0.652549
      pz      :     0.072500  p :     0.289129
      px      :     0.091604
      py      :     0.125025
      dz2     :     0.022559  d :     0.209032
      dxz     :     0.018781
      dyz     :     0.041549
      dx2y2   :     0.072368
      dxy     :     0.053775

 13 H s       :     0.642745  s :     0.642745
      pz      :     0.071302  p :     0.287329
      px      :     0.093805
      py      :     0.122222
      dz2     :     0.022940  d :     0.209246
      dxz     :     0.019487
      dyz     :     0.040795
      dx2y2   :     0.070765
      dxy     :     0.055260


SPIN
  0 C s       :     0.004540  s :     0.004540
      pz      :     0.117024  p :     0.120814
      px      :     0.002432
      py      :     0.001359
      dz2     :    -0.001328  d :    -0.009978
      dxz     :    -0.007947
      dyz     :     0.001719
      dx2y2   :    -0.001023
      dxy     :    -0.001400
      f0      :    -0.002451  f :     0.001245
      f+1     :    -0.000167
      f-1     :    -0.000387
      f+2     :     0.005144
      f-2     :     0.000465
      f+3     :    -0.000403
      f-3     :    -0.000956

  1 C s       :    -0.002861  s :    -0.002861
      pz      :    -0.053634  p :    -0.061052
      px      :    -0.003683
      py      :    -0.003735
      dz2     :     0.000654  d :     0.061770
      dxz     :     0.044016
      dyz     :     0.013498
      dx2y2   :     0.001699
      dxy     :     0.001903
      f0      :     0.003863  f :     0.032921
      f+1     :    -0.000124
      f-1     :     0.000009
      f+2     :     0.016194
      f-2     :     0.011166
      f+3     :     0.001142
      f-3     :     0.000671

  2 C s       :     0.008015  s :     0.008015
      pz      :     0.197786  p :     0.206061
      px      :     0.003988
      py      :     0.004287
      dz2     :    -0.002144  d :    -0.018336
      dxz     :     0.000716
      dyz     :    -0.014191
      dx2y2   :    -0.001500
      dxy     :    -0.001216
      f0      :    -0.004143  f :    -0.011006
      f+1     :    -0.000506
      f-1     :    -0.000218
      f+2     :     0.000894
      f-2     :    -0.005566
      f+3     :    -0.000826
      f-3     :    -0.000641

  3 C s       :    -0.002861  s :    -0.002861
      pz      :    -0.053634  p :    -0.061052
      px      :    -0.003683
      py      :    -0.003735
      dz2     :     0.000654  d :     0.061770
      dxz     :     0.044015
      dyz     :     0.013499
      dx2y2   :     0.001699
      dxy     :     0.001903
      f0      :     0.003863  f :     0.032921
      f+1     :    -0.000124
      f-1     :     0.000009
      f+2     :     0.016196
      f-2     :     0.011164
      f+3     :     0.001142
      f-3     :     0.000671

  4 C s       :     0.004540  s :     0.004540
      pz      :     0.117023  p :     0.120814
      px      :     0.002431
      py      :     0.001359
      dz2     :    -0.001328  d :    -0.009978
      dxz     :    -0.007947
      dyz     :     0.001719
      dx2y2   :    -0.001023
      dxy     :    -0.001400
      f0      :    -0.002451  f :     0.001245
      f+1     :    -0.000167
      f-1     :    -0.000387
      f+2     :     0.005143
      f-2     :     0.000466
      f+3     :    -0.000403
      f-3     :    -0.000956

  5 C s       :    -0.000721  s :    -0.000721
      pz      :     0.027531  p :     0.018674
      px      :    -0.005044
      py      :    -0.003813
      dz2     :    -0.000016  d :     0.064557
      dxz     :     0.046630
      dyz     :     0.014358
      dx2y2   :     0.001903
      dxy     :     0.001681
      f0      :     0.002475  f :     0.047939
      f+1     :     0.000020
      f-1     :    -0.000262
      f+2     :     0.037196
      f-2     :     0.005916
      f+3     :     0.001589
      f-3     :     0.001006

  6 N s       :     0.006560  s :     0.006560
      pz      :     0.223862  p :     0.234536
      px      :     0.005805
      py      :     0.004870
      dz2     :    -0.001337  d :     0.011885
      dxz     :     0.014929
      dyz     :     0.000641
      dx2y2   :    -0.000420
      dxy     :    -0.001929
      f0      :     0.001561  f :     0.002909
      f+1     :    -0.000339
      f-1     :    -0.000439
      f+2     :     0.002459
      f-2     :     0.000343
      f+3     :    -0.000222
      f-3     :    -0.000455

  7 H s       :    -0.005947  s :    -0.005947
      pz      :     0.019473  p :     0.021176
      px      :     0.000392
      py      :     0.001310
      dz2     :    -0.000072  d :     0.018020
      dxz     :     0.001850
      dyz     :     0.015197
      dx2y2   :     0.000369
      dxy     :     0.000676

  8 H s       :    -0.005947  s :    -0.005947
      pz      :     0.019473  p :     0.021176
      px      :     0.000392
      py      :     0.001310
      dz2     :    -0.000072  d :     0.018020
      dxz     :     0.001850
      dyz     :     0.015196
      dx2y2   :     0.000369
      dxy     :     0.000676

  9 H s       :    -0.003895  s :    -0.003895
      pz      :     0.012667  p :     0.014054
      px      :     0.000202
      py      :     0.001184
      dz2     :    -0.000064  d :     0.011733
      dxz     :     0.001476
      dyz     :     0.009638
      dx2y2   :     0.000251
      dxy     :     0.000431

 10 H s       :     0.001955  s :     0.001955
      pz      :    -0.007039  p :    -0.008328
      px      :    -0.000602
      py      :    -0.000687
      dz2     :     0.000018  d :    -0.004141
      dxz     :    -0.001349
      dyz     :    -0.001964
      dx2y2   :    -0.000488
      dxy     :    -0.000358

 11 H s       :    -0.006336  s :    -0.006336
      pz      :     0.026495  p :     0.029329
      px      :     0.002734
      py      :     0.000100
      dz2     :    -0.000025  d :     0.021884
      dxz     :     0.020930
      dyz     :    -0.000494
      dx2y2   :     0.001048
      dxy     :     0.000425

 12 H s       :     0.001955  s :     0.001955
      pz      :    -0.007039  p :    -0.008328
      px      :    -0.000601
      py      :    -0.000687
      dz2     :     0.000018  d :    -0.004141
      dxz     :    -0.001348
      dyz     :    -0.001964
      dx2y2   :    -0.000488
      dxy     :    -0.000358

 13 H s       :    -0.003895  s :    -0.003895
      pz      :     0.012668  p :     0.014054
      px      :     0.000202
      py      :     0.001184
      dz2     :    -0.000064  d :     0.011733
      dxz     :     0.001477
      dyz     :     0.009638
      dx2y2   :     0.000251
      dxy     :     0.000431



                      *****************************
                      * MAYER POPULATION ANALYSIS *
                      *****************************

  NA   - Mulliken gross atomic population
  ZA   - Total nuclear charge
  QA   - Mulliken gross atomic charge
  VA   - Mayer's total valence
  BVA  - Mayer's bonded valence
  FA   - Mayer's free valence

  ATOM       NA         ZA         QA         VA         BVA        FA
  0 C      6.6546     6.0000    -0.6546     2.5409     2.4887     0.0522
  1 C      6.3110     6.0000    -0.3110     2.8533     2.8348     0.0184
  2 C      6.3473     6.0000    -0.3473     2.7748     2.6372     0.1376
  3 C      6.3110     6.0000    -0.3110     2.8533     2.8349     0.0184
  4 C      6.6546     6.0000    -0.6546     2.5408     2.4887     0.0522
  5 C      4.8513     6.0000     1.1487     1.6852     1.6657     0.0195
  6 N      7.3362     7.0000    -0.3362     3.1191     2.9929     0.1263
  7 H      0.9348     1.0000     0.0652     1.1061     1.1057     0.0004
  8 H      0.9348     1.0000     0.0652     1.1061     1.1057     0.0004
  9 H      0.4198     1.0000     0.5802     0.3681     0.3679     0.0002
 10 H      0.6681     1.0000     0.3319     0.8709     0.8709    -0.0000
 11 H      0.4885     1.0000     0.5115     0.5242     0.5240     0.0002
 12 H      0.6681     1.0000     0.3319     0.8709     0.8709    -0.0000
 13 H      0.4198     1.0000     0.5802     0.3681     0.3679     0.0002

  Mayer bond orders larger than 0.100000
B(  0-C ,  1-C ) :   1.3624 B(  0-C ,  2-C ) :   0.2621 B(  0-C ,  3-C ) :  -0.1542 
B(  0-C ,  4-C ) :   0.3576 B(  0-C ,  5-C ) :   0.5325 B(  0-C ,  6-N ) :  -0.1299 
B(  0-C , 13-H ) :   0.2208 B(  1-C ,  2-C ) :   0.9236 B(  1-C ,  3-C ) :  -0.1221 
B(  1-C ,  4-C ) :  -0.1542 B(  1-C ,  5-C ) :  -0.2012 B(  1-C , 12-H ) :   0.8380 
B(  2-C ,  3-C ) :   0.9236 B(  2-C ,  4-C ) :   0.2621 B(  2-C ,  5-C ) :  -0.1159 
B(  2-C , 11-H ) :   0.5143 B(  3-C ,  4-C ) :   1.3624 B(  3-C ,  5-C ) :  -0.2012 
B(  3-C , 10-H ) :   0.8380 B(  4-C ,  5-C ) :   0.5325 B(  4-C ,  6-N ) :  -0.1299 
B(  4-C ,  9-H ) :   0.2208 B(  5-C ,  6-N ) :   0.9325 B(  6-N ,  7-H ) :   1.0981 
B(  6-N ,  8-H ) :   1.0981 

-------
TIMINGS
-------

Total SCF time: 0 days 0 hours 2 min 35 sec 

Total time                  ....     155.937 sec
Sum of individual times     ....     155.166 sec  ( 99.5%)

SCF preparation             ....       0.920 sec  (  0.6%)
Fock matrix formation       ....     141.332 sec  ( 90.6%)
  Startup                   ....       1.472 sec  (  1.0% of F)
  Split-RI-J                ....      11.146 sec  (  7.9% of F)
  XC integration            ....     119.560 sec  ( 84.6% of F)
    XC Preparation          ....       0.000 sec  (  0.0% of XC)
    Basis function eval.    ....       6.481 sec  (  5.4% of XC)
    Density eval.           ....      32.877 sec  ( 27.5% of XC)
    XC-Functional eval.     ....       1.341 sec  (  1.1% of XC)
    XC-Potential eval.      ....      76.739 sec  ( 64.2% of XC)
  CPCM terms                ....       4.690 sec  (  3.3% of F)
Diagonalization             ....       0.000 sec  (  0.0%)
Density matrix formation    ....       3.046 sec  (  2.0%)
Total Energy calculation    ....       1.359 sec  (  0.9%)
Population analysis         ....       0.355 sec  (  0.2%)
Orbital Transformation      ....       0.846 sec  (  0.5%)
Orbital Orthonormalization  ....       0.000 sec  (  0.0%)
DIIS solution               ....       4.890 sec  (  3.1%)
SOSCF solution              ....       2.417 sec  (  1.5%)
Finished LeanSCF after 156.2 sec

Maximum memory used throughout the entire LEANSCF-calculation: 51.1 MB


-------------------------------------------------------------------------------
                          DFT DISPERSION CORRECTION                            
                                                                               
                              DFTD3 V3.1  Rev 1                                
                          USING Becke-Johnson damping                          
-------------------------------------------------------------------------------
The R2SCAN functional is recognized
Active option DFTDOPT                   ...         4   

molecular C6(AA) [au] = 2152.931250 


            DFT-D V3
 parameters
 s6 scaling factor         :     1.0000 
 a1 scaling factor         :     0.4948 
 s8 scaling factor         :     0.7898 
 a2 scaling factor         :     5.7308 
 ad hoc parameters k1-k3   :    16.0000     1.3333    -4.0000 

 Edisp/kcal,au: -2.376105257417  -0.003786564350 
 E6   /kcal   :  -1.863180751 
 E8   /kcal   :  -0.512924507 
 % E8         :  21.586775458 

-------------------------   ----------------
Dispersion correction           -0.003786564
-------------------------   ----------------


-------------------------   --------------------
FINAL SINGLE POINT ENERGY      -287.370076099914
-------------------------   --------------------



           ************************************************************
           *        Program running with 4 parallel MPI-processes     *
           *              working on a common directory               *
           ************************************************************

------------------------------------------------------------------------------
                              ORCA PROPERTY CALCULATIONS
------------------------------------------------------------------------------

GBWName                                 ... cs_rporg_075_ox_solv_03.gbw
Number of atoms                         ...     14
Number of basis functions               ...    525
Max core memory                         ...   3000 MB

Electric properties:
Dipole moment                           ... YES
Quadrupole moment                       ...  NO
Static polarizability (Dipole/Dipole)   ...  NO
Static polarizability (Dipole/Quad.)    ...  NO
Static polarizability (Quad./Quad.)     ...  NO
Static polarizability (Velocity)        ...  NO

Atomic electric properties:
Dipole moment                           ...  NO
Quadrupole moment                       ...  NO
Static polarizability                   ...  NO

Choice of electric origin               ... Center of mass
Position of electric origin             ...     0.008992    -0.000014    -0.060110

General magnetic properties:
Magnetizability                         ...  NO

EPR properties:
g-Tensor (aka g-matrix)                 ...  NO
Zero-Field splitting spin-orbit         ...  NO
Zero-field splitting spin-spin          ...  NO
Hyperfine couplings                     ...  NO (   0 nuclei)
Quadrupole couplings                    ...  NO (   0 nuclei)
Contact density                         ...  NO (   0 nuclei)

NMR properties:
Chemical shifts                         ...  NO (   0 nuclei)
Spin-rotation constants                 ...  NO (   0 nuclei)
Spin-spin couplings                     ...  NO (   0 nuclei,    0 pairs)

Choice of magnetic origin               ... GIAO
Position of magnetic origin             ...     0.000000     0.000000     0.000000

Properties with geometric perturbations:
SCF Hessian                             ...  NO
IR spectrum                             ...  NO
VCD spectrum                            ...  NO
X-ray spectroscopy properties:
SCF XES/XAS/RIXS spectra                ...  NO


-------------
DIPOLE MOMENT
-------------

Method             : SCF
Type of density    : Electron Density
Multiplicity       :   2
Irrep              :   0
Energy             :  -287.3662895355632827 Eh
Relativity type    : 
Basis              : AO
                                X                 Y                 Z
Electronic contribution:     -0.963490538       0.000022073      -0.028852673
Nuclear contribution   :     -0.808315718       0.000012771      -0.024795382
                        -----------------------------------------
Total Dipole Moment    :     -1.771806256       0.000034844      -0.053648055
                        -----------------------------------------
Magnitude (a.u.)       :      1.772618268
Magnitude (Debye)      :      4.505637568



--------------------
Rotational spectrum 
--------------------
 
Rotational constants in cm-1:             0.179396             0.089500             0.059711 
Rotational constants in MHz :          5378.149152          2683.142053          1790.077786 

Dipole components along the rotational axes: 
x,y,z [a.u.] :     1.772618     0.000004    -0.000798 
x,y,z [Debye]:     4.505637     0.000010    -0.002027 

 

Dipole moment calculation done in   0.1 sec 

Maximum memory used throughout the entire PROP-calculation: 36.7 MB

--------------------------------
SUGGESTED CITATIONS FOR THIS RUN
--------------------------------

Below you find a list of papers that are relevant to this ORCA run
We neither can nor want to force you to cite these papers, but we appreciate if you do
You receive ORCA, which is the product of decades of hard work by many enthusiastic individuals, for free
The only thing we kindly ask in return is that you cite our papers,
We deeply appreciate it, if you show your appreciation for ORCA by not just citing the generic ORCA reference.

Please note that relegating all ORCA citations to the supporting information does *not* help us.
SI sections are not indexed - citations you put there will not count into any citation statistics
But we need these citations in order to attract the funding resources that allow us to do what we are doing

Therefore, if you are a happy ORCA user, please consider citing a few of the papers listed below in the main body of your paper

In addition to the list printed below, the program has created the file cs_rporg_075_ox_solv_03.bibtex that contains the list in bibtex format
You can import this file easily into all common literature databanks and citation aid programs


List of essential papers. We consider these as the minimum necessary citations

  1. Neese,F.
     Software update: the ORCA program system, version 5.0
     WIRES Comput. Molec. Sci., 2022 12(1)e1606
     doi.org/10.1002/wcms.1606

List of papers to cite with high priority. The work reported in these papers was absolutely
necessary for this run to complete.
Our perspective: the developers of density functionals and basis sets usually get cited in chemistry papers
Good! But without the algorithms to do something with them, the functionals or basis sets would not do anything.
Hence, in our opinion, the algorithm design and method developments papers are equally worthy of getting cited

  1. Neese,F.
     An improvement of the resolution of the identity approximation for the formation of the Coulomb matrix
     J. Comp. Chem., 2003 24(14)1740-1747
     doi.org/10.1002/jcc.10318
  2. Garcia-Rates,M.; Neese,F.
     Effect of the Solute Cavity on the Solvation Energy and its Derivatives within the Framework of the Gaussian Charge Scheme
     J. Comput. Chem., 2020 41 922-939
     doi.org/10.1002/jcc.26139
  3. Neese,F.
     The SHARK Integral Generation and Digestion System
     J. Comp. Chem., 2022  1-16
     doi.org/10.1002/jcc.26942
  4. Lehtola,S.; Steigemann,C.; Oliveira,M.; Marques,M.
     Recent developments in Libxc - A comprehensive library of functionals for density functional theory
     Software X, 2018 7 
     doi.org/10.1016/j.softx.2017.11.002
  5. Grimme,S.; Antony,J.; Ehrlich,S.; Krieg,H.
     A consistent and accurate ab initio parametrization of density functional dispersion correction (DFT-D) for the 94 elements H-Pu
     J. Chem. Phys., 2010 132 154104-XXXX
     doi.org/10.1063/1.3382344
  6. Grimme,S.; Ehrlich,S.; Goerigk,L.
     Effect of the damping function in dispersion corrected density functional theory
     J. Comput. Chem., 2011 32(7)1456-1465
     doi.org/10.1002/jcc.21759

List of suggested additional citations. These are papers that are important in the 'surrounding' of 
of this run, or papers that preceded the highly important papers. If you like your results we are grateful for a citation.

  1. Neese,F.
     The ORCA program system
     WIRES Comput. Molec. Sci., 2012 2(1)73-78
     doi.org/10.1002/wcms.81
  2. Neese,F.
     Software update: the ORCA program system, version 4.0
     WIRES Comput. Molec. Sci., 2018 8(1)1-6
     doi.org/10.1002/wcms.1327
  3. Neese,F.; Wennmohs,F.; Becker,U.; Riplinger,C.
     The ORCA quantum chemistry program package
     J. Chem. Phys., 2020 152 Art. No. L224108
     doi.org/10.1063/5.0004608

List of optional additional citations

  1. Neese,F.
     Approximate second-order SCF convergence for spin unrestricted wavefunctions
     Chem. Phys. Lett., 2000 325(1-3)93-98
     doi.org/10.1016/s0009-2614(00)00662-x

Timings for individual modules:

Sum of individual times          ...      172.208 sec (=   2.870 min)
Startup calculation              ...        8.921 sec (=   0.149 min)   5.2 %
SCF iterations                   ...      161.337 sec (=   2.689 min)  93.7 %
Property calculations            ...        1.950 sec (=   0.033 min)   1.1 %
                             ****ORCA TERMINATED NORMALLY****
TOTAL RUN TIME: 0 days 0 hours 2 minutes 54 seconds 965 msec
