 vasp.5.4.4.18Apr17-6-g9f103f2a35 (build Nov 09 2017 14:00:25) complex          
  
 executed on             LinuxIFC date 2024.09.16  00:59:03
 running on   20 total cores
 distrk:  each k-point on   20 cores,    1 groups
 distr:  one band on NCORES_PER_BAND=  20 cores,    1 groups


--------------------------------------------------------------------------------------------------------


 INCAR:
 POTCAR:    PAW_PBE C 08Apr2002                   
 POTCAR:    PAW_PBE N 08Apr2002                   
 POTCAR:    PAW_PBE H 15Jun2001                   

 ----------------------------------------------------------------------------- 
|                                                                             |
|           W    W    AA    RRRRR   N    N  II  N    N   GGGG   !!!           |
|           W    W   A  A   R    R  NN   N  II  NN   N  G    G  !!!           |
|           W    W  A    A  R    R  N N  N  II  N N  N  G       !!!           |
|           W WW W  AAAAAA  RRRRR   N  N N  II  N  N N  G  GGG   !            |
|           WW  WW  A    A  R   R   N   NN  II  N   NN  G    G                |
|           W    W  A    A  R    R  N    N  II  N    N   GGGG   !!!           |
|                                                                             |
|      For optimal performance we recommend to set                            |
|        NCORE= 4 - approx SQRT( number of cores)                             |
|      NCORE specifies how many cores store one orbital (NPAR=cpu/NCORE).     |
|      This setting can  greatly improve the performance of VASP for DFT.     |
|      The default,   NCORE=1            might be grossly inefficient         |
|      on modern multi-core architectures or massively parallel machines.     |
|      Do your own testing !!!!                                               |
|      Unfortunately you need to use the default for GW and RPA calculations. |
|      (for HF NCORE is supported but not extensively tested yet)             |
|                                                                             |
 ----------------------------------------------------------------------------- 

 POTCAR:    PAW_PBE C 08Apr2002                   
   VRHFIN =C: s2p2                                                              
   LEXCH  = PE                                                                  
   EATOM  =   147.1560 eV,   10.8157 Ry                                         
                                                                                
   TITEL  = PAW_PBE C 08Apr2002                                                 
   LULTRA =        F    use ultrasoft PP ?                                      
   IUNSCR =        1    unscreen: 0-lin 1-nonlin 2-no                           
   RPACOR =    1.200    partial core radius                                     
   POMASS =   12.011; ZVAL   =    4.000    mass and valenz                      
   RCORE  =    1.500    outmost cutoff radius                                   
   RWIGS  =    1.630; RWIGS  =    0.863    wigner-seitz radius (au A)           
   ENMAX  =  400.000; ENMIN  =  300.000 eV                                      
   ICORE  =        2    local potential                                         
   LCOR   =        T    correct aug charges                                     
   LPAW   =        T    paw PP                                                  
   EAUG   =  644.873                                                            
   DEXC   =    0.000                                                            
   RMAX   =    1.529    core radius for proj-oper                               
   RAUG   =    1.300    factor for augmentation sphere                          
   RDEP   =    1.501    radius for radial grids                                 
   RDEPT  =    1.300    core radius for aug-charge                              
                                                                                
   Atomic configuration                                                         
    4 entries                                                                   
     n  l   j            E        occ.                                          
     1  0  0.50      -273.3789   2.0000                                         
     2  0  0.50       -13.7508   2.0000                                         
     2  1  0.50        -5.2854   2.0000                                         
     3  2  1.50        -5.4423   0.0000                                         
   Description                                                                  
     l       E           TYP  RCUT    TYP  RCUT                                 
     0    -13.7508458     23  1.200                                             
     0     -8.2022199     23  1.200                                             
     1     -5.2854383     23  1.500                                             
     1     34.0145650     23  1.500                                             
     2     -5.4423304      7  1.500                                             
  local pseudopotential read in
  partial core-charges read in
  partial kinetic energy density read in
  atomic valenz-charges read in
  non local Contribution for L=           0  read in
    real space projection operators read in
  non local Contribution for L=           0  read in
    real space projection operators read in
  non local Contribution for L=           1  read in
    real space projection operators read in
  non local Contribution for L=           1  read in
    real space projection operators read in
    PAW grid and wavefunctions read in
 
   number of l-projection  operators is LMAX  =           4
   number of lm-projection operators is LMMAX =           8
 
 POTCAR:    PAW_PBE N 08Apr2002                   
   VRHFIN =N: s2p3                                                              
   LEXCH  = PE                                                                  
   EATOM  =   264.5486 eV,   19.4438 Ry                                         
                                                                                
   TITEL  = PAW_PBE N 08Apr2002                                                 
   LULTRA =        F    use ultrasoft PP ?                                      
   IUNSCR =        1    unscreen: 0-lin 1-nonlin 2-no                           
   RPACOR =    1.200    partial core radius                                     
   POMASS =   14.001; ZVAL   =    5.000    mass and valenz                      
   RCORE  =    1.500    outmost cutoff radius                                   
   RWIGS  =    1.400; RWIGS  =    0.741    wigner-seitz radius (au A)           
   ENMAX  =  400.000; ENMIN  =  300.000 eV                                      
   ICORE  =        2    local potential                                         
   LCOR   =        T    correct aug charges                                     
   LPAW   =        T    paw PP                                                  
   EAUG   =  627.112                                                            
   DEXC   =    0.000                                                            
   RMAX   =    1.529    core radius for proj-oper                               
   RAUG   =    1.300    factor for augmentation sphere                          
   RDEP   =    1.514    radius for radial grids                                 
   RDEPT  =    1.338    core radius for aug-charge                              
                                                                                
   Atomic configuration                                                         
    4 entries                                                                   
     n  l   j            E        occ.                                          
     1  0  0.50      -384.7179   2.0000                                         
     2  0  0.50       -18.5828   2.0000                                         
     2  1  0.50        -7.0898   3.0000                                         
     3  2  1.50        -6.8029   0.0000                                         
   Description                                                                  
     l       E           TYP  RCUT    TYP  RCUT                                 
     0    -18.5828119     23  1.200                                             
     0    -13.5018863     23  1.200                                             
     1     -7.0897853     23  1.500                                             
     1      9.5240782     23  1.500                                             
     2     -6.8029130      7  1.500                                             
  local pseudopotential read in
  partial core-charges read in
  partial kinetic energy density read in
  atomic valenz-charges read in
  non local Contribution for L=           0  read in
    real space projection operators read in
  non local Contribution for L=           0  read in
    real space projection operators read in
  non local Contribution for L=           1  read in
    real space projection operators read in
  non local Contribution for L=           1  read in
    real space projection operators read in
    PAW grid and wavefunctions read in
 
   number of l-projection  operators is LMAX  =           4
   number of lm-projection operators is LMMAX =           8
 
 POTCAR:    PAW_PBE H 15Jun2001                   
   VRHFIN =H: ultrasoft test                                                    
   LEXCH  = PE                                                                  
   EATOM  =    12.4884 eV,    0.9179 Ry                                         
                                                                                
   TITEL  = PAW_PBE H 15Jun2001                                                 
   LULTRA =        F    use ultrasoft PP ?                                      
   IUNSCR =        0    unscreen: 0-lin 1-nonlin 2-no                           
   RPACOR =    0.000    partial core radius                                     
   POMASS =    1.000; ZVAL   =    1.000    mass and valenz                      
   RCORE  =    1.100    outmost cutoff radius                                   
   RWIGS  =    0.700; RWIGS  =    0.370    wigner-seitz radius (au A)           
   ENMAX  =  250.000; ENMIN  =  200.000 eV                                      
   RCLOC  =    0.701    cutoff for local pot                                    
   LCOR   =        T    correct aug charges                                     
   LPAW   =        T    paw PP                                                  
   EAUG   =  400.000                                                            
   RMAX   =    1.123    core radius for proj-oper                               
   RAUG   =    1.200    factor for augmentation sphere                          
   RDEP   =    1.112    radius for radial grids                                 
   RDEPT  =    0.926    core radius for aug-charge                              
                                                                                
   Atomic configuration                                                         
    2 entries                                                                   
     n  l   j            E        occ.                                          
     1  0  0.50        -6.4927   1.0000                                         
     2  1  0.50        -3.4015   0.0000                                         
   Description                                                                  
     l       E           TYP  RCUT    TYP  RCUT                                 
     0     -6.4927494     23  1.100                                             
     0      6.8029130     23  1.100                                             
     1     -4.0817478     23  1.100                                             
  local pseudopotential read in
  atomic valenz-charges read in
  non local Contribution for L=           0  read in
    real space projection operators read in
  non local Contribution for L=           0  read in
    real space projection operators read in
  non local Contribution for L=           1  read in
    real space projection operators read in
    PAW grid and wavefunctions read in
 
   number of l-projection  operators is LMAX  =           3
   number of lm-projection operators is LMMAX =           5
 
 Optimization of the real space projectors (new method)

 maximal supplied QI-value         = 25.13
 optimisation between [QCUT,QGAM] = [ 11.31, 22.87] = [ 35.82,146.48] Ry 
 Optimized for a Real-space Cutoff    1.03 Angstroem

   l    n(q)    QCUT    max X(q) W(low)/X(q) W(high)/X(q)  e(spline) 
   0      7    11.310   115.676    0.20E-03    0.90E-03    0.20E-06
   0      7    11.310    87.132    0.20E-03    0.89E-03    0.19E-06
   1      6    11.310     4.429    0.16E-03    0.28E-03    0.12E-06
   1      6    11.310     2.733    0.12E-03    0.21E-03    0.99E-07
 Optimization of the real space projectors (new method)

 maximal supplied QI-value         = 25.13
 optimisation between [QCUT,QGAM] = [ 11.31, 22.87] = [ 35.82,146.48] Ry 
 Optimized for a Real-space Cutoff    1.43 Angstroem

   l    n(q)    QCUT    max X(q) W(low)/X(q) W(high)/X(q)  e(spline) 
   0     10    11.310    79.467    0.42E-04    0.81E-04    0.60E-06
   0     10    11.310    66.151    0.40E-04    0.81E-04    0.60E-06
   1      9    11.310    17.416    0.14E-03    0.88E-04    0.14E-05
   1      9    11.310    12.382    0.15E-03    0.93E-04    0.14E-05
 Optimization of the real space projectors (new method)

 maximal supplied QI-value         = 34.20
 optimisation between [QCUT,QGAM] = [ 11.29, 22.57] = [ 35.68,142.71] Ry 
 Optimized for a Real-space Cutoff    1.20 Angstroem

   l    n(q)    QCUT    max X(q) W(low)/X(q) W(high)/X(q)  e(spline) 
   0      8    11.287    19.460    0.22E-03    0.50E-03    0.19E-06
   0      8    11.287    12.209    0.21E-03    0.48E-03    0.18E-06
   1      8    11.287     4.655    0.21E-03    0.11E-04    0.26E-06
  PAW_PBE C 08Apr2002                   :
 energy of atom  1       EATOM= -147.1560
 kinetic energy error for atom=    0.0076 (will be added to EATOM!!)
  PAW_PBE N 08Apr2002                   :
 energy of atom  2       EATOM= -264.5486
 kinetic energy error for atom=    0.0138 (will be added to EATOM!!)
  PAW_PBE H 15Jun2001                   :
 energy of atom  3       EATOM=  -12.4884
 kinetic energy error for atom=    0.0020 (will be added to EATOM!!)
 
 
 POSCAR: C N H                                   
  positions in direct lattice
  velocities in cartesian coordinates
 exchange correlation table for  LEXCH =        8
   RHO(1)=    0.500       N(1)  =     2000
   RHO(2)=  100.500       N(2)  =     4000
 


--------------------------------------------------------------------------------------------------------


 ion  position               nearest neighbor table
   1  0.470  0.499  0.522-  11 1.10  12 1.10   7 1.47   2 1.54
   2  0.442  0.500  0.495-   9 1.10  10 1.10   8 1.10   1 1.54
   3  0.516  0.477  0.487-  17 1.10  16 1.11   7 1.47   4 1.53
   4  0.515  0.442  0.503-  13 1.10  15 1.10  14 1.10   3 1.53
   5  0.511  0.537  0.497-  22 1.10  21 1.11   7 1.47   6 1.53
   6  0.548  0.547  0.499-  19 1.10  20 1.10  18 1.10   5 1.53
   7  0.504  0.503  0.510-   3 1.47   5 1.47   1 1.47
   8  0.417  0.497  0.507-   2 1.10
   9  0.444  0.479  0.477-   2 1.10
  10  0.442  0.524  0.481-   2 1.10
  11  0.468  0.476  0.536-   1 1.10
  12  0.465  0.519  0.540-   1 1.10
  13  0.489  0.433  0.507-   4 1.10
  14  0.527  0.424  0.486-   4 1.10
  15  0.528  0.442  0.527-   4 1.10
  16  0.501  0.477  0.464-   3 1.11
  17  0.541  0.483  0.480-   3 1.10
  18  0.564  0.531  0.484-   6 1.10
  19  0.557  0.545  0.525-   6 1.10
  20  0.551  0.573  0.491-   6 1.10
  21  0.503  0.539  0.470-   5 1.11
  22  0.496  0.555  0.511-   5 1.10
 
  LATTYP: Found a simple cubic cell.
 ALAT       =    40.0000000000
  
  Lattice vectors:
  
 A1 = (  40.0000000000,   0.0000000000,   0.0000000000)
 A2 = (   0.0000000000,  40.0000000000,   0.0000000000)
 A3 = (   0.0000000000,   0.0000000000,  40.0000000000)


Analysis of symmetry for initial positions (statically):
=====================================================================
 Subroutine PRICEL returns:
 Original cell was already a primitive cell.
 

 Routine SETGRP: Setting up the symmetry group for a 
 simple cubic supercell.


 Subroutine GETGRP returns: Found  1 space group operations
 (whereof  1 operations were pure point group operations)
 out of a pool of 48 trial point group operations.


The static configuration has the point symmetry C_1 .


Analysis of symmetry for dynamics (positions and initial velocities):
=====================================================================
 Subroutine PRICEL returns:
 Original cell was already a primitive cell.
 

 Routine SETGRP: Setting up the symmetry group for a 
 simple cubic supercell.


 Subroutine GETGRP returns: Found  1 space group operations
 (whereof  1 operations were pure point group operations)
 out of a pool of 48 trial point group operations.


The dynamic configuration has the point symmetry C_1 .


Analysis of constrained symmetry for selective dynamics:
=====================================================================
 Subroutine PRICEL returns:
 Original cell was already a primitive cell.
 

 Routine SETGRP: Setting up the symmetry group for a 
 simple cubic supercell.


 Subroutine GETGRP returns: Found  1 space group operations
 (whereof  1 operations were pure point group operations)
 out of a pool of 48 trial point group operations.


The constrained configuration has the point symmetry C_1 .


Analysis of structural, dynamic, and magnetic symmetry:
=====================================================================
 Subroutine PRICEL returns:
 Original cell was already a primitive cell.
 

 Routine SETGRP: Setting up the symmetry group for a 
 simple cubic supercell.


 Subroutine GETGRP returns: Found  1 space group operations
 (whereof  1 operations were pure point group operations)
 out of a pool of 48 trial point group operations.


The magnetic configuration has the point symmetry C_1 .


 Subroutine INISYM returns: Found  1 space group operations
 (whereof  1 operations are pure point group operations),
 and found     1 'primitive' translations

 
 
 KPOINTS: K-Point Grid                            

Automatic generation of k-mesh.
Space group operators:
 irot       det(A)        alpha          n_x          n_y          n_z        tau_x        tau_y        tau_z
    1     1.000000     0.000000     1.000000     0.000000     0.000000     0.000000     0.000000     0.000000
 
 Subroutine IBZKPT returns following result:
 ===========================================
 
 Found      1 irreducible k-points:
 
 Following reciprocal coordinates:
            Coordinates               Weight
  0.000000  0.000000  0.000000      1.000000
 
 Following cartesian coordinates:
            Coordinates               Weight
  0.000000  0.000000  0.000000      1.000000
 


--------------------------------------------------------------------------------------------------------




 Dimension of arrays:
   k-points           NKPTS =      1   k-points in BZ     NKDIM =      1   number of bands    NBANDS=     45
   number of dos      NEDOS =    301   number of ions     NIONS =     22
   non local maximal  LDIM  =      4   non local SUM 2l+1 LMDIM =      8
   total plane-waves  NPLWV = ******
   max r-space proj   IRMAX =   4928   max aug-charges    IRDMAX=   5085
   dimension x,y,z NGX =   294 NGY =  294 NGZ =  294
   dimension x,y,z NGXF=   588 NGYF=  588 NGZF=  588
   support grid    NGXF=   588 NGYF=  588 NGZF=  588
   ions per type =               6   1  15
   NGX,Y,Z   is equivalent  to a cutoff of  12.22, 12.22, 12.22 a.u.
   NGXF,Y,Z  is equivalent  to a cutoff of  24.44, 24.44, 24.44 a.u.

 SYSTEM =  068_red                                 
 POSCAR =  C N H                                   

 Startparameter for this run:
   NWRITE =      2    write-flag & timer
   PREC   = accura    normal or accurate (medium, high low for compatibility)
   ISTART =      0    job   : 0-new  1-cont  2-samecut
   ICHARG =      2    charge: 1-file 2-atom 10-const
   ISPIN  =      2    spin polarized calculation?
   LNONCOLLINEAR =      F non collinear calculations
   LSORBIT =      F    spin-orbit coupling
   INIWAV =      1    electr: 0-lowe 1-rand  2-diag
   LASPH  =      F    aspherical Exc in radial PAW
   METAGGA=      F    non-selfconsistent MetaGGA calc.

 Electronic Relaxation 1
   ENCUT  =  500.0 eV  36.75 Ry    6.06 a.u.  72.93 72.93 72.93*2*pi/ulx,y,z
   ENINI  =  500.0     initial cutoff
   ENAUG  =  644.9 eV  augmentation charge cutoff
   NELM   =    100;   NELMIN=  2; NELMDL= -5     # of ELM steps 
   EDIFF  = 0.1E-04   stopping-criterion for ELM
   LREAL  =      T    real-space projection
   NLSPLINE    = F    spline interpolate recip. space projectors
   LCOMPAT=      F    compatible to vasp.4.4
   GGA_COMPAT  = T    GGA compatible to vasp.4.4-vasp.4.6
   LMAXPAW     = -100 max onsite density
   LMAXMIX     =    2 max onsite mixed and CHGCAR
   VOSKOWN=      0    Vosko Wilk Nusair interpolation
   ROPT   =   -0.00025  -0.00025  -0.00025
 Ionic relaxation
   EDIFFG = -.2E-01   stopping-criterion for IOM
   NSW    =    500    number of steps for IOM
   NBLOCK =      1;   KBLOCK =    500    inner block; outer block 
   IBRION =      2    ionic relax: 0-MD 1-quasi-New 2-CG
   NFREE  =      1    steps in history (QN), initial steepest desc. (CG)
   ISIF   =      2    stress and relaxation
   IWAVPR =     11    prediction:  0-non 1-charg 2-wave 3-comb
   ISYM   =      2    0-nonsym 1-usesym 2-fastsym
   LCORR  =      T    Harris-Foulkes like correction to forces

   POTIM  = 0.5000    time-step for ionic-motion
   TEIN   =    0.0    initial temperature
   TEBEG  =    0.0;   TEEND  =   0.0 temperature during run
   SMASS  =  -3.00    Nose mass-parameter (am)
   estimated Nose-frequenzy (Omega)   =  0.10E-29 period in steps =****** mass=  -0.366E-25a.u.
   SCALEE = 1.0000    scale energy and forces
   NPACO  =    256;   APACO  = 16.0  distance and # of slots for P.C.
   PSTRESS=    0.0 pullay stress

  Mass of Ions in am
   POMASS =  12.01 14.00  1.00
  Ionic Valenz
   ZVAL   =   4.00  5.00  1.00
  Atomic Wigner-Seitz radii
   RWIGS  =  -1.00 -1.00 -1.00
  virtual crystal weights 
   VCA    =   1.00  1.00  1.00
   NELECT =      44.0000    total number of electrons
   NUPDOWN=      -1.0000    fix difference up-down

 DOS related values:
   EMIN   =  10.00;   EMAX   =-10.00  energy-range for DOS
   EFERMI =   0.00
   ISMEAR =     0;   SIGMA  =   0.05  broadening in eV -4-tet -1-fermi 0-gaus

 Electronic relaxation 2 (details)
   IALGO  =     68    algorithm
   LDIAG  =      T    sub-space diagonalisation (order eigenvalues)
   LSUBROT=      F    optimize rotation matrix (better conditioning)
   TURBO    =      0    0=normal 1=particle mesh
   IRESTART =      0    0=no restart 2=restart with 2 vectors
   NREBOOT  =      0    no. of reboots
   NMIN     =      0    reboot dimension
   EREF     =   0.00    reference energy to select bands
   IMIX   =      4    mixing-type and parameters
     AMIX     =   0.40;   BMIX     =  1.00
     AMIX_MAG =   1.60;   BMIX_MAG =  1.00
     AMIN     =   0.10
     WC   =   100.;   INIMIX=   1;  MIXPRE=   1;  MAXMIX= -45

 Intra band minimization:
   WEIMIN = 0.0010     energy-eigenvalue tresh-hold
   EBREAK =  0.56E-07  absolut break condition
   DEPER  =   0.30     relativ break condition  

   TIME   =   0.40     timestep for ELM

  volume/ion in A,a.u.               =    2909.09     19631.51
  Fermi-wavevector in a.u.,A,eV,Ry     =   0.144488  0.273043  0.284047  0.020877
  Thomas-Fermi vector in A             =   0.810532
 
 Write flags
   LWAVE        =      T    write WAVECAR
   LDOWNSAMPLE  =      F    k-point downsampling of WAVECAR
   LCHARG       =      F    write CHGCAR
   LVTOT        =      F    write LOCPOT, total local potential
   LVHAR        =      F    write LOCPOT, Hartree potential only
   LELF         =      F    write electronic localiz. function (ELF)
   LORBIT       =      0    0 simple, 1 ext, 2 COOP (PROOUT), +10 PAW based schemes


 Dipole corrections
   LMONO  =      F    monopole corrections only (constant potential shift)
   LDIPOL =      F    correct potential (dipole corrections)
   IDIPOL =      0    1-x, 2-y, 3-z, 4-all directions 
   EPSILON=  1.0000000 bulk dielectric constant

 Exchange correlation treatment:
   GGA     =    --    GGA type
   LEXCH   =     8    internal setting for exchange type
   VOSKOWN=      0    Vosko Wilk Nusair interpolation
   LHFCALC =     F    Hartree Fock is set to
   LHFONE  =     F    Hartree Fock one center treatment
   AEXX    =    0.0000 exact exchange contribution

 Linear response parameters
   LEPSILON=     F    determine dielectric tensor
   LRPA    =     F    only Hartree local field effects (RPA)
   LNABLA  =     F    use nabla operator in PAW spheres
   LVEL    =     F    velocity operator in full k-point grid
   LINTERFAST=   F  fast interpolation
   KINTER  =     0    interpolate to denser k-point grid
   CSHIFT  =0.1000    complex shift for real part using Kramers Kronig
   OMEGAMAX=  -1.0    maximum frequency
   DEG_THRESHOLD= 0.2000000E-02 threshold for treating states as degnerate
   RTIME   =   -0.100 relaxation time in fs
  (WPLASMAI=    0.000 imaginary part of plasma frequency in eV, 0.658/RTIME)
   DFIELD  = 0.0000000 0.0000000 0.0000000 field for delta impulse in time
 
 Orbital magnetization related:
   ORBITALMAG=     F  switch on orbital magnetization
   LCHIMAG   =     F  perturbation theory with respect to B field
   DQ        =  0.001000  dq finite difference perturbation B field
   LLRAUG    =     F  two centre corrections for induced B field

 Solvation model:
   LSOL    =     T         switch on solvation model
   EB_K    = 35.688000     relative permittivity of the bulk solvent
   SIGMA_K =  0.600000     width of the dielectric cavity
   NC_K    =  0.002500     cutoff charge density
   TAU     =  0.000000     cavity surface tension
   LAMBDA_D_K    =  3.040000     Debye length in Angstroms
   LRHOB     =     F     write boundcharge  density
   LRHOION     =     F     write ioniccharge density



--------------------------------------------------------------------------------------------------------


 conjugate gradient relaxation of ions
   using selective dynamics as specified on POSCAR
 charge density and potential will be updated during run
 spin polarized calculation
 RMM-DIIS sequential band-by-band and
  variant of blocked Davidson during initial phase
 perform sub-space diagonalisation
    before iterative eigenvector-optimisation
 modified Broyden-mixing scheme, WC =      100.0
 initial mixing is a Kerker type mixing with AMIX =  0.4000 and BMIX =      1.0000
 Hartree-type preconditioning will be used
 using additional bands           23
 real space projection scheme for non local part
 use partial core corrections
 calculate Harris-corrections to forces 
   (improved forces if not selfconsistent)
 use gradient corrections 
 use of overlap-Matrix (Vanderbilt PP)
 Gauss-broadening in eV      SIGMA  =   0.05


--------------------------------------------------------------------------------------------------------


  energy-cutoff  :      500.00
  volume of cell :    64000.00
      direct lattice vectors                 reciprocal lattice vectors
    40.000000000  0.000000000  0.000000000     0.025000000  0.000000000  0.000000000
     0.000000000 40.000000000  0.000000000     0.000000000  0.025000000  0.000000000
     0.000000000  0.000000000 40.000000000     0.000000000  0.000000000  0.025000000

  length of vectors
    40.000000000 40.000000000 40.000000000     0.025000000  0.025000000  0.025000000


 
 k-points in units of 2pi/SCALE and weight: K-Point Grid                            
   0.00000000  0.00000000  0.00000000       1.000
 
 k-points in reciprocal lattice and weights: K-Point Grid                            
   0.00000000  0.00000000  0.00000000       1.000
 
 position of ions in fractional coordinates (direct lattice) 
   0.46963750  0.49924207  0.52174892
   0.44193457  0.49995929  0.49512513
   0.51560074  0.47680947  0.48735032
   0.51477971  0.44183869  0.50266600
   0.51118441  0.53668477  0.49679686
   0.54797052  0.54679138  0.49946916
   0.50433901  0.50318918  0.51021518
   0.41744191  0.49745621  0.50740297
   0.44429927  0.47928759  0.47715955
   0.44182696  0.52355157  0.48101112
   0.46805656  0.47560220  0.53569499
   0.46506364  0.51927234  0.54005691
   0.48918480  0.43275346  0.50659841
   0.52736429  0.42408296  0.48585931
   0.52781733  0.44150550  0.52686834
   0.50097532  0.47687547  0.46366689
   0.54147637  0.48270294  0.48023274
   0.56428011  0.53098891  0.48397133
   0.55659600  0.54500096  0.52548439
   0.55122520  0.57273023  0.49099454
   0.50291234  0.53911082  0.47035505
   0.49603444  0.55456500  0.51127189
 
 position of ions in cartesian coordinates  (Angst):
  18.78549992 19.96968300 20.86995687
  17.67738284 19.99837165 19.80500503
  20.62402951 19.07237885 19.49401282
  20.59118841 17.67354741 20.10663992
  20.44737640 21.46739074 19.87187437
  21.91882088 21.87165500 19.97876649
  20.17356060 20.12756738 20.40860738
  16.69767639 19.89824831 20.29611866
  17.77197067 19.17150369 19.08638183
  17.67307830 20.94206287 19.24044475
  18.72226244 19.02408784 21.42779971
  18.60254551 20.77089358 21.60227634
  19.56739182 17.31013842 20.26393642
  21.09457148 16.96331859 19.43437256
  21.11269304 17.66021982 21.07473375
  20.03901296 19.07501893 18.54667548
  21.65905489 19.30811753 19.20930965
  22.57120447 21.23955629 19.35885335
  22.26384018 21.80003838 21.01937552
  22.04900784 22.90920919 19.63978157
  20.11649372 21.56443269 18.81420193
  19.84137776 22.18259984 20.45087560
 


--------------------------------------------------------------------------------------------------------


 k-point  1 :   0.0000 0.0000 0.0000  plane waves: 1624525

 maximum and minimum number of plane-waves per node :     81239    81217

 maximum number of plane-waves:   1624525
 maximum index in each direction: 
   IXMAX=   72   IYMAX=   72   IZMAX=   72
   IXMIN=  -72   IYMIN=  -72   IZMIN=  -72


 real space projection operators:
  total allocation   :       2595.86 KBytes
  max/ min on nodes  :        147.21        105.27


 parallel 3D FFT for wavefunctions:
    minimum data exchange during FFTs selected (reduces bandwidth)
 parallel 3D FFT for charge:
    minimum data exchange during FFTs selected (reduces bandwidth)


 total amount of memory used by VASP MPI-rank0  1553363. kBytes
=======================================================================

   base      :      30000. kBytes
   nonlr-proj:       1977. kBytes
   fftplans  :     385204. kBytes
   grid      :    1019168. kBytes
   one-center:         12. kBytes
   wavefun   :     117002. kBytes
 
     INWAV:  cpu time    0.0000: real time    0.0000
 Broyden mixing: mesh for mixing (old mesh)
   NGX =145   NGY =145   NGZ =145
  (NGX  =588   NGY  =588   NGZ  =588)
  gives a total of ****** points

 initial charge density was supplied:
 charge density of overlapping atoms calculated
 number of electron      44.0000000 magnetization      22.0000000
 keeping initial charge density in first step


--------------------------------------------------------------------------------------------------------


 Maximum index for non-local projection operator          235
 Maximum index for augmentation-charges          335 (set IRDMAX)


--------------------------------------------------------------------------------------------------------


 First call to EWALD:  gamma=   0.044
 Maximum number of real-space cells 3x 3x 3
 Maximum number of reciprocal cells 3x 3x 3

    FEWALD:  cpu time    0.0018: real time    0.0018


--------------------------------------- Iteration      1(   1)  ---------------------------------------


    POTLOK:  cpu time  650.1132: real time  651.3918
    SETDIJ:  cpu time    0.0727: real time    0.0729
     EDDAV:  cpu time   34.4161: real time   34.4861
       DOS:  cpu time    0.0003: real time    0.0003
    --------------------------------------------
      LOOP:  cpu time  684.6024: real time  685.9511

 eigenvalue-minimisations  :   212
 total energy-change (2. order) : 0.3940370E+03  (-0.5545215E+03)
 number of electron      44.0000000 magnetization      22.0000000
 augmentation part       44.0000000 magnetization      22.0000000

 Free energy of the ion-electron system (eV)
  ---------------------------------------------------
  alpha Z        PSCENC =         0.12465185
  Ewald energy   TEWEN  =      4281.94219243
  -Hartree energ DENC   =     -5126.15257247
  -exchange      EXHF   =         0.00000000
  -V(xc)+E(xc)   XCENC  =       140.58343179
  PAW double counting   =       882.07399896     -886.74772168
  entropy T*S    EENTRO =        -0.07204299
  eigenvalues    EBANDS =      -224.69470712
  atomic energy  EATOM  =      1334.72182766
  Solvation  Ediel_sol  =        -7.74202820
  ---------------------------------------------------
  free energy    TOTEN  =       394.03703022 eV

  energy without entropy =      394.10907321  energy(sigma->0) =      394.07305171


--------------------------------------------------------------------------------------------------------




--------------------------------------- Iteration      1(   2)  ---------------------------------------


     EDDAV:  cpu time   49.1618: real time   49.2741
       DOS:  cpu time    0.0002: real time    0.0002
    --------------------------------------------
      LOOP:  cpu time   49.1619: real time   49.2743

 eigenvalue-minimisations  :   339
 total energy-change (2. order) :-0.2482847E+03  (-0.2282610E+03)
 number of electron      44.0000000 magnetization      22.0000000
 augmentation part       44.0000000 magnetization      22.0000000

 Free energy of the ion-electron system (eV)
  ---------------------------------------------------
  alpha Z        PSCENC =         0.12465185
  Ewald energy   TEWEN  =      4281.94219243
  -Hartree energ DENC   =     -5126.15257247
  -exchange      EXHF   =         0.00000000
  -V(xc)+E(xc)   XCENC  =       140.58343179
  PAW double counting   =       882.07399896     -886.74772168
  entropy T*S    EENTRO =        -0.00002296
  eigenvalues    EBANDS =      -473.05145835
  atomic energy  EATOM  =      1334.72182766
  Solvation  Ediel_sol  =        -7.74202820
  ---------------------------------------------------
  free energy    TOTEN  =       145.75229902 eV

  energy without entropy =      145.75232198  energy(sigma->0) =      145.75231050


--------------------------------------------------------------------------------------------------------




--------------------------------------- Iteration      1(   3)  ---------------------------------------


     EDDAV:  cpu time   42.0089: real time   42.1009
       DOS:  cpu time    0.0001: real time    0.0001
    --------------------------------------------
      LOOP:  cpu time   42.0091: real time   42.1010

 eigenvalue-minimisations  :   280
 total energy-change (2. order) :-0.2031094E+03  (-0.1961629E+03)
 number of electron      44.0000000 magnetization      22.0000000
 augmentation part       44.0000000 magnetization      22.0000000

 Free energy of the ion-electron system (eV)
  ---------------------------------------------------
  alpha Z        PSCENC =         0.12465185
  Ewald energy   TEWEN  =      4281.94219243
  -Hartree energ DENC   =     -5126.15257247
  -exchange      EXHF   =         0.00000000
  -V(xc)+E(xc)   XCENC  =       140.58343179
  PAW double counting   =       882.07399896     -886.74772168
  entropy T*S    EENTRO =        -0.00000000
  eigenvalues    EBANDS =      -676.16090283
  atomic energy  EATOM  =      1334.72182766
  Solvation  Ediel_sol  =        -7.74202820
  ---------------------------------------------------
  free energy    TOTEN  =       -57.35712250 eV

  energy without entropy =      -57.35712250  energy(sigma->0) =      -57.35712250


--------------------------------------------------------------------------------------------------------




--------------------------------------- Iteration      1(   4)  ---------------------------------------


     EDDAV:  cpu time   38.9676: real time   39.0549
       DOS:  cpu time    0.0002: real time    0.0002
    --------------------------------------------
      LOOP:  cpu time   38.9678: real time   39.0550

 eigenvalue-minimisations  :   256
 total energy-change (2. order) :-0.4166427E+02  (-0.4160689E+02)
 number of electron      44.0000000 magnetization      22.0000000
 augmentation part       44.0000000 magnetization      22.0000000

 Free energy of the ion-electron system (eV)
  ---------------------------------------------------
  alpha Z        PSCENC =         0.12465185
  Ewald energy   TEWEN  =      4281.94219243
  -Hartree energ DENC   =     -5126.15257247
  -exchange      EXHF   =         0.00000000
  -V(xc)+E(xc)   XCENC  =       140.58343179
  PAW double counting   =       882.07399896     -886.74772168
  entropy T*S    EENTRO =        -0.00000000
  eigenvalues    EBANDS =      -717.82517656
  atomic energy  EATOM  =      1334.72182766
  Solvation  Ediel_sol  =        -7.74202820
  ---------------------------------------------------
  free energy    TOTEN  =       -99.02139623 eV

  energy without entropy =      -99.02139623  energy(sigma->0) =      -99.02139623


--------------------------------------------------------------------------------------------------------




--------------------------------------- Iteration      1(   5)  ---------------------------------------


     EDDAV:  cpu time   40.9416: real time   41.0298
       DOS:  cpu time    0.0002: real time    0.0001
    CHARGE:  cpu time    3.2271: real time    3.2335
    MIXING:  cpu time    0.3162: real time    0.3169
    --------------------------------------------
      LOOP:  cpu time   44.4851: real time   44.5804

 eigenvalue-minimisations  :   272
 total energy-change (2. order) :-0.1490405E+01  (-0.1489725E+01)
 number of electron      44.0000003 magnetization      21.1523888
 augmentation part        1.3158921 magnetization      21.1505094

 Broyden mixing:
  rms(total) = 0.31219E+01    rms(broyden)= 0.31215E+01
  rms(prec ) = 0.31562E+01
  weight for this iteration     100.00

 Free energy of the ion-electron system (eV)
  ---------------------------------------------------
  alpha Z        PSCENC =         0.12465185
  Ewald energy   TEWEN  =      4281.94219243
  -Hartree energ DENC   =     -5126.15257247
  -exchange      EXHF   =         0.00000000
  -V(xc)+E(xc)   XCENC  =       140.58343179
  PAW double counting   =       882.07399896     -886.74772168
  entropy T*S    EENTRO =        -0.00000000
  eigenvalues    EBANDS =      -719.31558164
  atomic energy  EATOM  =      1334.72182766
  Solvation  Ediel_sol  =        -7.74202820
  ---------------------------------------------------
  free energy    TOTEN  =      -100.51180130 eV

  energy without entropy =     -100.51180130  energy(sigma->0) =     -100.51180130


--------------------------------------------------------------------------------------------------------




--------------------------------------- Iteration      1(   6)  ---------------------------------------


    POTLOK:  cpu time  632.2067: real time  633.4499
    SETDIJ:  cpu time    0.0879: real time    0.0881
    EDDIAG:  cpu time    6.7561: real time    6.7698
  RMM-DIIS:  cpu time   24.8961: real time   24.9458
    ORTHCH:  cpu time    0.0984: real time    0.0986
       DOS:  cpu time    0.0002: real time    0.0002
    CHARGE:  cpu time    3.1308: real time    3.1386
    MIXING:  cpu time    0.3106: real time    0.3112
    --------------------------------------------
      LOOP:  cpu time  667.4867: real time  668.8021

 eigenvalue-minimisations  :   180
 total energy-change (2. order) : 0.5771710E+02  (-0.1489110E+02)
 number of electron      44.0000004 magnetization      20.2596505
 augmentation part        1.2843647 magnetization      20.1432413

 Broyden mixing:
  rms(total) = 0.15321E+01    rms(broyden)= 0.15320E+01
  rms(prec ) = 0.15547E+01
  weight for this iteration     100.00

 eigenvalues of (default mixing * dielectric matrix)
  average eigenvalue GAMMA=   0.9450
  0.9450

 Free energy of the ion-electron system (eV)
  ---------------------------------------------------
  alpha Z        PSCENC =         0.12465185
  Ewald energy   TEWEN  =      4281.94219243
  -Hartree energ DENC   =     -5233.26559704
  -exchange      EXHF   =         0.00000000
  -V(xc)+E(xc)   XCENC  =       197.83616785
  PAW double counting   =      1620.08324943    -1625.77108429
  entropy T*S    EENTRO =        -0.00000000
  eigenvalues    EBANDS =      -600.42698564
  atomic energy  EATOM  =      1334.72182766
  Solvation  Ediel_sol  =       -18.03912101
  ---------------------------------------------------
  free energy    TOTEN  =       -42.79469877 eV

  energy without entropy =      -42.79469877  energy(sigma->0) =      -42.79469877


--------------------------------------------------------------------------------------------------------




--------------------------------------- Iteration      1(   7)  ---------------------------------------


    POTLOK:  cpu time  634.6648: real time  635.9520
    SETDIJ:  cpu time    0.0765: real time    0.0766
    EDDIAG:  cpu time    6.7768: real time    6.7901
  RMM-DIIS:  cpu time   24.7583: real time   24.8068
    ORTHCH:  cpu time    0.0983: real time    0.0985
       DOS:  cpu time    0.0002: real time    0.0002
    CHARGE:  cpu time    3.1711: real time    3.1774
    MIXING:  cpu time    0.3518: real time    0.3525
    --------------------------------------------
      LOOP:  cpu time  669.8977: real time  671.2541

 eigenvalue-minimisations  :   180
 total energy-change (2. order) :-0.3607810E+02  (-0.3987382E+01)
 number of electron      44.0000004 magnetization      19.3815175
 augmentation part        1.2066879 magnetization      19.2712809

 Broyden mixing:
  rms(total) = 0.10083E+01    rms(broyden)= 0.10082E+01
  rms(prec ) = 0.10164E+01
  weight for this iteration     100.00

 eigenvalues of (default mixing * dielectric matrix)
  average eigenvalue GAMMA=   0.9932
  1.1909  0.7955

 Free energy of the ion-electron system (eV)
  ---------------------------------------------------
  alpha Z        PSCENC =         0.12465185
  Ewald energy   TEWEN  =      4281.94219243
  -Hartree energ DENC   =     -5306.45387541
  -exchange      EXHF   =         0.00000000
  -V(xc)+E(xc)   XCENC  =       172.39331933
  PAW double counting   =      2294.44848523    -2300.60259771
  entropy T*S    EENTRO =        -0.00000000
  eigenvalues    EBANDS =      -529.01822691
  atomic energy  EATOM  =      1334.72182766
  Solvation  Ediel_sol  =       -26.42857237
  ---------------------------------------------------
  free energy    TOTEN  =       -78.87279590 eV

  energy without entropy =      -78.87279590  energy(sigma->0) =      -78.87279590


--------------------------------------------------------------------------------------------------------




--------------------------------------- Iteration      1(   8)  ---------------------------------------


    POTLOK:  cpu time  640.9499: real time  642.2201
    SETDIJ:  cpu time    0.1034: real time    0.1036
    EDDIAG:  cpu time    6.9601: real time    6.9739
  RMM-DIIS:  cpu time   24.9007: real time   24.9497
    ORTHCH:  cpu time    0.0994: real time    0.0996
       DOS:  cpu time    0.0002: real time    0.0002
    CHARGE:  cpu time    3.1656: real time    3.1717
    MIXING:  cpu time    0.3506: real time    0.3513
    --------------------------------------------
      LOOP:  cpu time  676.5299: real time  677.8701

 eigenvalue-minimisations  :   181
 total energy-change (2. order) :-0.5648236E+01  (-0.5909295E+00)
 number of electron      44.0000004 magnetization      17.9674335
 augmentation part        1.1780217 magnetization      17.8716046

 Broyden mixing:
  rms(total) = 0.67362E+00    rms(broyden)= 0.67358E+00
  rms(prec ) = 0.67869E+00
  weight for this iteration     100.00

 eigenvalues of (default mixing * dielectric matrix)
  average eigenvalue GAMMA=   1.2293
  1.7696  1.2207  0.6974

 Free energy of the ion-electron system (eV)
  ---------------------------------------------------
  alpha Z        PSCENC =         0.12465185
  Ewald energy   TEWEN  =      4281.94219243
  -Hartree energ DENC   =     -5334.60484820
  -exchange      EXHF   =         0.00000000
  -V(xc)+E(xc)   XCENC  =       169.78822421
  PAW double counting   =      2751.65764069    -2757.79041768
  entropy T*S    EENTRO =        -0.00000000
  eigenvalues    EBANDS =      -500.17620156
  atomic energy  EATOM  =      1334.72182766
  Solvation  Ediel_sol  =       -30.18410090
  ---------------------------------------------------
  free energy    TOTEN  =       -84.52103151 eV

  energy without entropy =      -84.52103151  energy(sigma->0) =      -84.52103151


--------------------------------------------------------------------------------------------------------




--------------------------------------- Iteration      1(   9)  ---------------------------------------


    POTLOK:  cpu time  647.5136: real time  648.7741
    SETDIJ:  cpu time    0.0735: real time    0.0737
    EDDIAG:  cpu time    6.7940: real time    6.8076
  RMM-DIIS:  cpu time   24.7495: real time   24.7968
    ORTHCH:  cpu time    0.0996: real time    0.0998
       DOS:  cpu time    0.0002: real time    0.0002
    CHARGE:  cpu time    3.1642: real time    3.1706
    MIXING:  cpu time    0.3735: real time    0.3742
    --------------------------------------------
      LOOP:  cpu time  682.7682: real time  684.0969

 eigenvalue-minimisations  :   180
 total energy-change (2. order) :-0.1858701E+02  (-0.1121044E+01)
 number of electron      44.0000004 magnetization      17.0937730
 augmentation part        1.1634523 magnetization      17.0247202

 Broyden mixing:
  rms(total) = 0.36013E+00    rms(broyden)= 0.36010E+00
  rms(prec ) = 0.36161E+00
  weight for this iteration     100.00

 eigenvalues of (default mixing * dielectric matrix)
  average eigenvalue GAMMA=   1.2704
  1.9584  1.6539  0.8243  0.6448

 Free energy of the ion-electron system (eV)
  ---------------------------------------------------
  alpha Z        PSCENC =         0.12465185
  Ewald energy   TEWEN  =      4281.94219243
  -Hartree energ DENC   =     -5353.10056639
  -exchange      EXHF   =         0.00000000
  -V(xc)+E(xc)   XCENC  =       156.77272305
  PAW double counting   =      3171.11758717    -3177.09633226
  entropy T*S    EENTRO =        -0.00000000
  eigenvalues    EBANDS =      -488.70771484
  atomic energy  EATOM  =      1334.72182766
  Solvation  Ediel_sol  =       -28.88240716
  ---------------------------------------------------
  free energy    TOTEN  =      -103.10803850 eV

  energy without entropy =     -103.10803850  energy(sigma->0) =     -103.10803850


--------------------------------------------------------------------------------------------------------




--------------------------------------- Iteration      1(  10)  ---------------------------------------


    POTLOK:  cpu time  615.2447: real time  616.4422
    SETDIJ:  cpu time    0.0883: real time    0.0885
    EDDIAG:  cpu time    6.7937: real time    6.8071
  RMM-DIIS:  cpu time   24.8897: real time   24.9372
    ORTHCH:  cpu time    0.0992: real time    0.0994
       DOS:  cpu time    0.0002: real time    0.0002
    CHARGE:  cpu time    3.1320: real time    3.1381
    MIXING:  cpu time    0.3859: real time    0.3867
    --------------------------------------------
      LOOP:  cpu time  650.6338: real time  651.8993

 eigenvalue-minimisations  :   180
 total energy-change (2. order) :-0.5349503E+01  (-0.2872564E+00)
 number of electron      44.0000004 magnetization      15.8775087
 augmentation part        1.1550081 magnetization      15.8283370

 Broyden mixing:
  rms(total) = 0.27929E+00    rms(broyden)= 0.27927E+00
  rms(prec ) = 0.28047E+00
  weight for this iteration     100.00

 eigenvalues of (default mixing * dielectric matrix)
  average eigenvalue GAMMA=   1.2247
  1.9179  1.9179  0.8301  0.8301  0.6278

 Free energy of the ion-electron system (eV)
  ---------------------------------------------------
  alpha Z        PSCENC =         0.12465185
  Ewald energy   TEWEN  =      4281.94219243
  -Hartree energ DENC   =     -5358.80242001
  -exchange      EXHF   =         0.00000000
  -V(xc)+E(xc)   XCENC  =       153.18013524
  PAW double counting   =      3234.54573229    -3240.47936119
  entropy T*S    EENTRO =        -0.00000000
  eigenvalues    EBANDS =      -488.92868116
  atomic energy  EATOM  =      1334.72182766
  Solvation  Ediel_sol  =       -24.76161888
  ---------------------------------------------------
  free energy    TOTEN  =      -108.45754178 eV

  energy without entropy =     -108.45754178  energy(sigma->0) =     -108.45754178


--------------------------------------------------------------------------------------------------------




--------------------------------------- Iteration      1(  11)  ---------------------------------------


    POTLOK:  cpu time  601.7171: real time  602.9086
    SETDIJ:  cpu time    0.0970: real time    0.0972
    EDDIAG:  cpu time    6.7518: real time    6.7652
  RMM-DIIS:  cpu time   24.8084: real time   24.8563
    ORTHCH:  cpu time    0.0993: real time    0.0995
       DOS:  cpu time    0.0002: real time    0.0002
    CHARGE:  cpu time    3.1707: real time    3.1770
    MIXING:  cpu time    0.4009: real time    0.4018
    --------------------------------------------
      LOOP:  cpu time  637.0456: real time  638.3058

 eigenvalue-minimisations  :   180
 total energy-change (2. order) :-0.3174883E+01  (-0.1562673E+00)
 number of electron      44.0000004 magnetization      13.2309194
 augmentation part        1.1494552 magnetization      13.1958150

 Broyden mixing:
  rms(total) = 0.20837E+00    rms(broyden)= 0.20836E+00
  rms(prec ) = 0.20908E+00
  weight for this iteration     100.00

 eigenvalues of (default mixing * dielectric matrix)
  average eigenvalue GAMMA=   1.6153
  3.5793  2.3804  1.4523  0.8575  0.7949  0.6272

 Free energy of the ion-electron system (eV)
  ---------------------------------------------------
  alpha Z        PSCENC =         0.12465185
  Ewald energy   TEWEN  =      4281.94219243
  -Hartree energ DENC   =     -5361.10208933
  -exchange      EXHF   =         0.00000000
  -V(xc)+E(xc)   XCENC  =       150.78693032
  PAW double counting   =      3171.29274108    -3177.21747584
  entropy T*S    EENTRO =        -0.00000000
  eigenvalues    EBANDS =      -494.36713957
  atomic energy  EATOM  =      1334.72182766
  Solvation  Ediel_sol  =       -17.81406298
  ---------------------------------------------------
  free energy    TOTEN  =      -111.63242439 eV

  energy without entropy =     -111.63242439  energy(sigma->0) =     -111.63242439


--------------------------------------------------------------------------------------------------------




--------------------------------------- Iteration      1(  12)  ---------------------------------------


    POTLOK:  cpu time  622.5770: real time  623.8010
    SETDIJ:  cpu time    0.0792: real time    0.0794
    EDDIAG:  cpu time    6.7764: real time    6.7899
  RMM-DIIS:  cpu time   24.8932: real time   24.9411
    ORTHCH:  cpu time    0.0995: real time    0.0997
       DOS:  cpu time    0.0002: real time    0.0002
    CHARGE:  cpu time    3.1682: real time    3.1745
    MIXING:  cpu time    0.4389: real time    0.4398
    --------------------------------------------
      LOOP:  cpu time  658.0327: real time  659.3256

 eigenvalue-minimisations  :   180
 total energy-change (2. order) :-0.2685180E+01  (-0.3022366E+00)
 number of electron      44.0000004 magnetization      12.3912615
 augmentation part        1.1448108 magnetization      12.3729130

 Broyden mixing:
  rms(total) = 0.12257E+00    rms(broyden)= 0.12256E+00
  rms(prec ) = 0.12311E+00
  weight for this iteration     100.00

 eigenvalues of (default mixing * dielectric matrix)
  average eigenvalue GAMMA=   1.5824
  4.2816  2.1134  1.6150  0.8378  0.8378  0.6308  0.7601

 Free energy of the ion-electron system (eV)
  ---------------------------------------------------
  alpha Z        PSCENC =         0.12465185
  Ewald energy   TEWEN  =      4281.94219243
  -Hartree energ DENC   =     -5365.42981126
  -exchange      EXHF   =         0.00000000
  -V(xc)+E(xc)   XCENC  =       148.95742480
  PAW double counting   =      3074.96417045    -3080.86727297
  entropy T*S    EENTRO =        -0.00000000
  eigenvalues    EBANDS =      -503.74420400
  atomic energy  EATOM  =      1334.72182766
  Solvation  Ediel_sol  =        -4.98658354
  ---------------------------------------------------
  free energy    TOTEN  =      -114.31760461 eV

  energy without entropy =     -114.31760461  energy(sigma->0) =     -114.31760461


--------------------------------------------------------------------------------------------------------




--------------------------------------- Iteration      1(  13)  ---------------------------------------


    POTLOK:  cpu time  591.1899: real time  592.3640
    SETDIJ:  cpu time    0.0786: real time    0.0787
    EDDIAG:  cpu time    6.7499: real time    6.7632
  RMM-DIIS:  cpu time   25.0200: real time   25.0679
    ORTHCH:  cpu time    0.0994: real time    0.0997
       DOS:  cpu time    0.0002: real time    0.0002
    CHARGE:  cpu time    3.1685: real time    3.1747
    MIXING:  cpu time    0.4837: real time    0.4846
    --------------------------------------------
      LOOP:  cpu time  626.7901: real time  628.0329

 eigenvalue-minimisations  :   181
 total energy-change (2. order) :-0.1254841E+01  (-0.4452572E-01)
 number of electron      44.0000004 magnetization      11.0591840
 augmentation part        1.1387708 magnetization      11.0491710

 Broyden mixing:
  rms(total) = 0.97783E-01    rms(broyden)= 0.97773E-01
  rms(prec ) = 0.98346E-01
  weight for this iteration     100.00

 eigenvalues of (default mixing * dielectric matrix)
  average eigenvalue GAMMA=   1.6592
  5.3828  1.9522  1.7711  1.2657  0.7967  0.7967  0.6265  0.6820

 Free energy of the ion-electron system (eV)
  ---------------------------------------------------
  alpha Z        PSCENC =         0.12465185
  Ewald energy   TEWEN  =      4281.94219243
  -Hartree energ DENC   =     -5367.42427186
  -exchange      EXHF   =         0.00000000
  -V(xc)+E(xc)   XCENC  =       147.93218207
  PAW double counting   =      3101.72313148    -3107.63430418
  entropy T*S    EENTRO =        -0.00000000
  eigenvalues    EBANDS =      -503.53118754
  atomic energy  EATOM  =      1334.72182766
  Solvation  Ediel_sol  =        -3.42666754
  ---------------------------------------------------
  free energy    TOTEN  =      -115.57244564 eV

  energy without entropy =     -115.57244564  energy(sigma->0) =     -115.57244564


--------------------------------------------------------------------------------------------------------




--------------------------------------- Iteration      1(  14)  ---------------------------------------


    POTLOK:  cpu time  602.5997: real time  603.7861
    SETDIJ:  cpu time    0.1017: real time    0.1019
    EDDIAG:  cpu time    6.9674: real time    6.9814
  RMM-DIIS:  cpu time   24.8357: real time   24.8845
    ORTHCH:  cpu time    0.0986: real time    0.0987
       DOS:  cpu time    0.0002: real time    0.0002
    CHARGE:  cpu time    3.1741: real time    3.1804
    MIXING:  cpu time    0.5001: real time    0.5011
    --------------------------------------------
      LOOP:  cpu time  638.2773: real time  639.5343

 eigenvalue-minimisations  :   181
 total energy-change (2. order) :-0.9545423E+00  (-0.1737605E-01)
 number of electron      44.0000004 magnetization       9.8219941
 augmentation part        1.1386757 magnetization       9.8168685

 Broyden mixing:
  rms(total) = 0.69308E-01    rms(broyden)= 0.69304E-01
  rms(prec ) = 0.69705E-01
  weight for this iteration     100.00

 eigenvalues of (default mixing * dielectric matrix)
  average eigenvalue GAMMA=   1.7979
  6.4702  2.1961  2.1961  1.5222  0.8353  0.8353  0.8174  0.6223  0.6861

 Free energy of the ion-electron system (eV)
  ---------------------------------------------------
  alpha Z        PSCENC =         0.12465185
  Ewald energy   TEWEN  =      4281.94219243
  -Hartree energ DENC   =     -5365.63904664
  -exchange      EXHF   =         0.00000000
  -V(xc)+E(xc)   XCENC  =       146.88634429
  PAW double counting   =      3081.26855369    -3087.17155617
  entropy T*S    EENTRO =        -0.00000000
  eigenvalues    EBANDS =      -508.12261299
  atomic energy  EATOM  =      1334.72182766
  Solvation  Ediel_sol  =        -0.53734201
  ---------------------------------------------------
  free energy    TOTEN  =      -116.52698790 eV

  energy without entropy =     -116.52698790  energy(sigma->0) =     -116.52698790


--------------------------------------------------------------------------------------------------------




--------------------------------------- Iteration      1(  15)  ---------------------------------------


    POTLOK:  cpu time  599.4604: real time  600.6306
    SETDIJ:  cpu time    0.0646: real time    0.0647
    EDDIAG:  cpu time    6.7593: real time    6.7727
  RMM-DIIS:  cpu time   24.8933: real time   24.9411
    ORTHCH:  cpu time    0.0996: real time    0.0998
       DOS:  cpu time    0.0002: real time    0.0002
    CHARGE:  cpu time    3.1293: real time    3.1355
    MIXING:  cpu time    0.5033: real time    0.5043
    --------------------------------------------
      LOOP:  cpu time  634.9101: real time  636.1489

 eigenvalue-minimisations  :   181
 total energy-change (2. order) :-0.5461094E+00  (-0.6562741E-02)
 number of electron      44.0000004 magnetization       8.4986101
 augmentation part        1.1391052 magnetization       8.4960812

 Broyden mixing:
  rms(total) = 0.52089E-01    rms(broyden)= 0.52087E-01
  rms(prec ) = 0.52349E-01
  weight for this iteration     100.00

 eigenvalues of (default mixing * dielectric matrix)
  average eigenvalue GAMMA=   1.8874
  7.3374  2.9294  2.0498  1.6084  1.2126  0.8250  0.8250  0.7971  0.6240  0.6656

 Free energy of the ion-electron system (eV)
  ---------------------------------------------------
  alpha Z        PSCENC =         0.12465185
  Ewald energy   TEWEN  =      4281.94219243
  -Hartree energ DENC   =     -5363.57164141
  -exchange      EXHF   =         0.00000000
  -V(xc)+E(xc)   XCENC  =       146.24435607
  PAW double counting   =      3070.48034564    -3076.38015712
  entropy T*S    EENTRO =        -0.00000000
  eigenvalues    EBANDS =      -511.51150234
  atomic energy  EATOM  =      1334.72182766
  Solvation  Ediel_sol  =         0.87682995
  ---------------------------------------------------
  free energy    TOTEN  =      -117.07309728 eV

  energy without entropy =     -117.07309728  energy(sigma->0) =     -117.07309728


--------------------------------------------------------------------------------------------------------




--------------------------------------- Iteration      1(  16)  ---------------------------------------


    POTLOK:  cpu time  581.9457: real time  583.0792
    SETDIJ:  cpu time    0.1191: real time    0.1193
    EDDIAG:  cpu time    6.7671: real time    6.7806
  RMM-DIIS:  cpu time   24.9297: real time   24.9777
    ORTHCH:  cpu time    0.0996: real time    0.0998
       DOS:  cpu time    0.0002: real time    0.0002
    CHARGE:  cpu time    3.1646: real time    3.1709
    MIXING:  cpu time    0.5370: real time    0.5380
    --------------------------------------------
      LOOP:  cpu time  617.5629: real time  618.7657

 eigenvalue-minimisations  :   181
 total energy-change (2. order) :-0.3958300E+00  (-0.2770100E-02)
 number of electron      44.0000004 magnetization       7.5054369
 augmentation part        1.1386946 magnetization       7.5042660

 Broyden mixing:
  rms(total) = 0.39220E-01    rms(broyden)= 0.39219E-01
  rms(prec ) = 0.39337E-01
  weight for this iteration     100.00

 eigenvalues of (default mixing * dielectric matrix)
  average eigenvalue GAMMA=   1.9977
  8.4014  3.6697  1.9175  1.9175  1.4602  0.8491  0.8491  0.8953  0.7545  0.6302
  0.6302

 Free energy of the ion-electron system (eV)
  ---------------------------------------------------
  alpha Z        PSCENC =         0.12465185
  Ewald energy   TEWEN  =      4281.94219243
  -Hartree energ DENC   =     -5361.93317751
  -exchange      EXHF   =         0.00000000
  -V(xc)+E(xc)   XCENC  =       145.79811604
  PAW double counting   =      3073.29052233    -3079.19254336
  entropy T*S    EENTRO =        -0.00000000
  eigenvalues    EBANDS =      -513.22024626
  atomic energy  EATOM  =      1334.72182766
  Solvation  Ediel_sol  =         0.99972955
  ---------------------------------------------------
  free energy    TOTEN  =      -117.46892728 eV

  energy without entropy =     -117.46892728  energy(sigma->0) =     -117.46892728


--------------------------------------------------------------------------------------------------------




--------------------------------------- Iteration      1(  17)  ---------------------------------------


    POTLOK:  cpu time  563.1647: real time  564.2721
    SETDIJ:  cpu time    0.0906: real time    0.0908
    EDDIAG:  cpu time    6.7731: real time    6.7866
  RMM-DIIS:  cpu time   24.7504: real time   24.7987
    ORTHCH:  cpu time    0.0992: real time    0.0994
       DOS:  cpu time    0.0002: real time    0.0002
    CHARGE:  cpu time    3.1166: real time    3.1228
    MIXING:  cpu time    0.5420: real time    0.5431
    --------------------------------------------
      LOOP:  cpu time  598.5369: real time  599.7137

 eigenvalue-minimisations  :   181
 total energy-change (2. order) :-0.2245252E+00  (-0.6905674E-03)
 number of electron      44.0000004 magnetization       6.3146418
 augmentation part        1.1385611 magnetization       6.3140601

 Broyden mixing:
  rms(total) = 0.32728E-01    rms(broyden)= 0.32728E-01
  rms(prec ) = 0.32839E-01
  weight for this iteration     100.00

 eigenvalues of (default mixing * dielectric matrix)
  average eigenvalue GAMMA=   2.0020
  8.8123  3.9698  2.2177  1.5313  1.5313  1.4167  0.9162  0.8112  0.8112  0.7450
  0.6307  0.6307

 Free energy of the ion-electron system (eV)
  ---------------------------------------------------
  alpha Z        PSCENC =         0.12465185
  Ewald energy   TEWEN  =      4281.94219243
  -Hartree energ DENC   =     -5360.94487433
  -exchange      EXHF   =         0.00000000
  -V(xc)+E(xc)   XCENC  =       145.55512138
  PAW double counting   =      3079.14315442    -3085.04451705
  entropy T*S    EENTRO =        -0.00000000
  eigenvalues    EBANDS =      -513.85269017
  atomic energy  EATOM  =      1334.72182766
  Solvation  Ediel_sol  =         0.66168135
  ---------------------------------------------------
  free energy    TOTEN  =      -117.69345247 eV

  energy without entropy =     -117.69345247  energy(sigma->0) =     -117.69345247


--------------------------------------------------------------------------------------------------------




--------------------------------------- Iteration      1(  18)  ---------------------------------------


    POTLOK:  cpu time  574.5732: real time  575.7079
    SETDIJ:  cpu time    0.0896: real time    0.0897
    EDDIAG:  cpu time    6.7922: real time    6.8055
  RMM-DIIS:  cpu time   24.7995: real time   24.8478
    ORTHCH:  cpu time    0.0993: real time    0.0995
       DOS:  cpu time    0.0002: real time    0.0002
    CHARGE:  cpu time    3.1376: real time    3.1437
    MIXING:  cpu time    0.6362: real time    0.6374
    --------------------------------------------
      LOOP:  cpu time  610.1276: real time  611.3316

 eigenvalue-minimisations  :   181
 total energy-change (2. order) :-0.5951317E-01  (-0.4143554E-03)
 number of electron      44.0000004 magnetization       5.1092546
 augmentation part        1.1385082 magnetization       5.1086234

 Broyden mixing:
  rms(total) = 0.27126E-01    rms(broyden)= 0.27126E-01
  rms(prec ) = 0.27182E-01
  weight for this iteration     100.00

 eigenvalues of (default mixing * dielectric matrix)
  average eigenvalue GAMMA=   2.1817
  9.8865  5.0744  2.8557  2.0704  1.6313  1.4370  0.9399  0.8439  0.8439  0.8092
  0.7074  0.6310  0.6310

 Free energy of the ion-electron system (eV)
  ---------------------------------------------------
  alpha Z        PSCENC =         0.12465185
  Ewald energy   TEWEN  =      4281.94219243
  -Hartree energ DENC   =     -5360.45450588
  -exchange      EXHF   =         0.00000000
  -V(xc)+E(xc)   XCENC  =       145.51279152
  PAW double counting   =      3087.42242443    -3093.32356830
  entropy T*S    EENTRO =        -0.00000000
  eigenvalues    EBANDS =      -513.37472732
  atomic energy  EATOM  =      1334.72182766
  Solvation  Ediel_sol  =        -0.32405202
  ---------------------------------------------------
  free energy    TOTEN  =      -117.75296564 eV

  energy without entropy =     -117.75296564  energy(sigma->0) =     -117.75296564


--------------------------------------------------------------------------------------------------------




--------------------------------------- Iteration      1(  19)  ---------------------------------------


    POTLOK:  cpu time  574.4364: real time  575.5745
    SETDIJ:  cpu time    0.0915: real time    0.0916
    EDDIAG:  cpu time    6.7808: real time    6.7942
  RMM-DIIS:  cpu time   24.6452: real time   24.6927
    ORTHCH:  cpu time    0.0996: real time    0.0998
       DOS:  cpu time    0.0002: real time    0.0002
    CHARGE:  cpu time    3.1721: real time    3.1784
    MIXING:  cpu time    0.6877: real time    0.6891
    --------------------------------------------
      LOOP:  cpu time  609.9134: real time  611.1206

 eigenvalue-minimisations  :   181
 total energy-change (2. order) :-0.8129535E-01  (-0.2357094E-03)
 number of electron      44.0000004 magnetization       4.0846424
 augmentation part        1.1383834 magnetization       4.0841453

 Broyden mixing:
  rms(total) = 0.22459E-01    rms(broyden)= 0.22459E-01
  rms(prec ) = 0.22522E-01
  weight for this iteration     100.00

 eigenvalues of (default mixing * dielectric matrix)
  average eigenvalue GAMMA=   2.1448
 10.1935  5.3613  2.9446  2.1943  1.5404  1.1685  1.1220  1.1220  0.8068  0.8068
  0.7991  0.7122  0.6279  0.6279

 Free energy of the ion-electron system (eV)
  ---------------------------------------------------
  alpha Z        PSCENC =         0.12465185
  Ewald energy   TEWEN  =      4281.94219243
  -Hartree energ DENC   =     -5359.88610664
  -exchange      EXHF   =         0.00000000
  -V(xc)+E(xc)   XCENC  =       145.42936016
  PAW double counting   =      3086.42632958    -3092.32841849
  entropy T*S    EENTRO =        -0.00000000
  eigenvalues    EBANDS =      -513.07842151
  atomic energy  EATOM  =      1334.72182766
  Solvation  Ediel_sol  =        -1.18567601
  ---------------------------------------------------
  free energy    TOTEN  =      -117.83426098 eV

  energy without entropy =     -117.83426098  energy(sigma->0) =     -117.83426098


--------------------------------------------------------------------------------------------------------




--------------------------------------- Iteration      1(  20)  ---------------------------------------


    POTLOK:  cpu time  549.8613: real time  550.9399
    SETDIJ:  cpu time    0.0919: real time    0.0921
    EDDIAG:  cpu time    6.7871: real time    6.8004
  RMM-DIIS:  cpu time   24.5159: real time   24.5634
    ORTHCH:  cpu time    0.0998: real time    0.1000
       DOS:  cpu time    0.0002: real time    0.0002
    CHARGE:  cpu time    3.1631: real time    3.1694
    MIXING:  cpu time    0.6631: real time    0.6645
    --------------------------------------------
      LOOP:  cpu time  585.1824: real time  586.3298

 eigenvalue-minimisations  :   180
 total energy-change (2. order) :-0.2210712E-01  (-0.2931751E-03)
 number of electron      44.0000004 magnetization       2.4125851
 augmentation part        1.1384075 magnetization       2.4124637

 Broyden mixing:
  rms(total) = 0.19435E-01    rms(broyden)= 0.19435E-01
  rms(prec ) = 0.19503E-01
  weight for this iteration     100.00

 eigenvalues of (default mixing * dielectric matrix)
  average eigenvalue GAMMA=   2.3273
 11.1798  6.4324  3.5434  2.6052  1.9407  1.6336  1.4030  0.9359  0.9359  0.8002
  0.8002  0.7572  0.6283  0.6283  0.6862

 Free energy of the ion-electron system (eV)
  ---------------------------------------------------
  alpha Z        PSCENC =         0.12465185
  Ewald energy   TEWEN  =      4281.94219243
  -Hartree energ DENC   =     -5359.29718890
  -exchange      EXHF   =         0.00000000
  -V(xc)+E(xc)   XCENC  =       145.38884309
  PAW double counting   =      3078.52997271    -3084.43207964
  entropy T*S    EENTRO =        -0.00000000
  eigenvalues    EBANDS =      -513.39166396
  atomic energy  EATOM  =      1334.72182766
  Solvation  Ediel_sol  =        -1.44292334
  ---------------------------------------------------
  free energy    TOTEN  =      -117.85636811 eV

  energy without entropy =     -117.85636811  energy(sigma->0) =     -117.85636811


--------------------------------------------------------------------------------------------------------




--------------------------------------- Iteration      1(  21)  ---------------------------------------


    POTLOK:  cpu time  548.8509: real time  549.9191
    SETDIJ:  cpu time    0.0939: real time    0.0940
    EDDIAG:  cpu time    6.7606: real time    6.7739
  RMM-DIIS:  cpu time   24.7066: real time   24.7543
    ORTHCH:  cpu time    0.0993: real time    0.0995
       DOS:  cpu time    0.0002: real time    0.0002
    CHARGE:  cpu time    3.1787: real time    3.1851
    MIXING:  cpu time    0.6715: real time    0.6729
    --------------------------------------------
      LOOP:  cpu time  584.3617: real time  585.4989

 eigenvalue-minimisations  :   180
 total energy-change (2. order) :-0.2309661E-01  (-0.2010708E-03)
 number of electron      44.0000004 magnetization       1.7486005
 augmentation part        1.1386771 magnetization       1.7487230

 Broyden mixing:
  rms(total) = 0.15020E-01    rms(broyden)= 0.15020E-01
  rms(prec ) = 0.15157E-01
  weight for this iteration     100.00

 eigenvalues of (default mixing * dielectric matrix)
  average eigenvalue GAMMA=   2.3564
 11.9795  7.0964  3.9387  2.6113  2.1370  1.5609  1.2277  1.0135  1.0135  0.8020
  0.8020  0.8604  0.7400  0.6303  0.6447  0.6447

 Free energy of the ion-electron system (eV)
  ---------------------------------------------------
  alpha Z        PSCENC =         0.12465185
  Ewald energy   TEWEN  =      4281.94219243
  -Hartree energ DENC   =     -5358.69764905
  -exchange      EXHF   =         0.00000000
  -V(xc)+E(xc)   XCENC  =       145.35666654
  PAW double counting   =      3074.73772034    -3080.63901203
  entropy T*S    EENTRO =        -0.00000000
  eigenvalues    EBANDS =      -513.56970395
  atomic energy  EATOM  =      1334.72182766
  Solvation  Ediel_sol  =        -1.85615850
  ---------------------------------------------------
  free energy    TOTEN  =      -117.87946471 eV

  energy without entropy =     -117.87946471  energy(sigma->0) =     -117.87946471


--------------------------------------------------------------------------------------------------------




--------------------------------------- Iteration      1(  22)  ---------------------------------------


    POTLOK:  cpu time  532.1626: real time  533.2026
    SETDIJ:  cpu time    0.1180: real time    0.1182
    EDDIAG:  cpu time    6.7735: real time    6.7869
  RMM-DIIS:  cpu time   24.6173: real time   24.6648
    ORTHCH:  cpu time    0.0998: real time    0.1000
       DOS:  cpu time    0.0002: real time    0.0002
    CHARGE:  cpu time    3.1608: real time    3.1670
    MIXING:  cpu time    0.7427: real time    0.7442
    --------------------------------------------
      LOOP:  cpu time  567.6747: real time  568.7838

 eigenvalue-minimisations  :   180
 total energy-change (2. order) : 0.2846866E-02  (-0.2348963E-03)
 number of electron      44.0000004 magnetization       0.6731234
 augmentation part        1.1387092 magnetization       0.6731776

 Broyden mixing:
  rms(total) = 0.99317E-02    rms(broyden)= 0.99316E-02
  rms(prec ) = 0.10007E-01
  weight for this iteration     100.00

 eigenvalues of (default mixing * dielectric matrix)
  average eigenvalue GAMMA=   2.6081
 14.6789  8.3730  4.5967  2.5529  2.5529  1.6140  1.6140  1.4038  0.9747  0.9747
  0.8026  0.8026  0.7978  0.7133  0.6282  0.6291  0.6291

 Free energy of the ion-electron system (eV)
  ---------------------------------------------------
  alpha Z        PSCENC =         0.12465185
  Ewald energy   TEWEN  =      4281.94219243
  -Hartree energ DENC   =     -5358.85266783
  -exchange      EXHF   =         0.00000000
  -V(xc)+E(xc)   XCENC  =       145.37084668
  PAW double counting   =      3078.96621771    -3084.86772318
  entropy T*S    EENTRO =        -0.00000000
  eigenvalues    EBANDS =      -513.31412808
  atomic energy  EATOM  =      1334.72182766
  Solvation  Ediel_sol  =        -1.96783508
  ---------------------------------------------------
  free energy    TOTEN  =      -117.87661785 eV

  energy without entropy =     -117.87661785  energy(sigma->0) =     -117.87661785


--------------------------------------------------------------------------------------------------------




--------------------------------------- Iteration      1(  23)  ---------------------------------------


    POTLOK:  cpu time  540.6629: real time  541.7137
    SETDIJ:  cpu time    0.0814: real time    0.0815
    EDDIAG:  cpu time    6.7356: real time    6.7490
  RMM-DIIS:  cpu time   24.8475: real time   24.8964
    ORTHCH:  cpu time    0.0995: real time    0.0997
       DOS:  cpu time    0.0002: real time    0.0002
    CHARGE:  cpu time    3.1658: real time    3.1721
    MIXING:  cpu time    0.7902: real time    0.7918
    --------------------------------------------
      LOOP:  cpu time  576.3831: real time  577.5045

 eigenvalue-minimisations  :   180
 total energy-change (2. order) : 0.4432045E-03  (-0.1891295E-03)
 number of electron      44.0000004 magnetization       0.3684302
 augmentation part        1.1385006 magnetization       0.3683994

 Broyden mixing:
  rms(total) = 0.77746E-02    rms(broyden)= 0.77742E-02
  rms(prec ) = 0.79213E-02
  weight for this iteration     100.00

 eigenvalues of (default mixing * dielectric matrix)
  average eigenvalue GAMMA=   2.8144
 18.7094  9.0810  5.0190  2.8402  2.4407  1.8946  1.5868  1.0818  1.0818  1.0161
  0.9166  0.8215  0.8215  0.7644  0.7104  0.6233  0.6233  0.6269

 Free energy of the ion-electron system (eV)
  ---------------------------------------------------
  alpha Z        PSCENC =         0.12465185
  Ewald energy   TEWEN  =      4281.94219243
  -Hartree energ DENC   =     -5359.10278291
  -exchange      EXHF   =         0.00000000
  -V(xc)+E(xc)   XCENC  =       145.38004857
  PAW double counting   =      3082.65544759    -3088.55832192
  entropy T*S    EENTRO =        -0.00000000
  eigenvalues    EBANDS =      -513.04522051
  atomic energy  EATOM  =      1334.72182766
  Solvation  Ediel_sol  =        -1.99401740
  ---------------------------------------------------
  free energy    TOTEN  =      -117.87617464 eV

  energy without entropy =     -117.87617464  energy(sigma->0) =     -117.87617464


--------------------------------------------------------------------------------------------------------




--------------------------------------- Iteration      1(  24)  ---------------------------------------


    POTLOK:  cpu time  515.5476: real time  516.5495
    SETDIJ:  cpu time    0.0895: real time    0.0897
    EDDIAG:  cpu time    6.7765: real time    6.7899
  RMM-DIIS:  cpu time   24.5903: real time   24.6380
    ORTHCH:  cpu time    0.0996: real time    0.0998
       DOS:  cpu time    0.0002: real time    0.0002
    CHARGE:  cpu time    3.1275: real time    3.1337
    MIXING:  cpu time    0.8346: real time    0.8362
    --------------------------------------------
      LOOP:  cpu time  551.0659: real time  552.1370

 eigenvalue-minimisations  :   180
 total energy-change (2. order) :-0.7689602E-02  (-0.7659448E-04)
 number of electron      44.0000004 magnetization       0.1520747
 augmentation part        1.1384949 magnetization       0.1521088

 Broyden mixing:
  rms(total) = 0.40414E-02    rms(broyden)= 0.40414E-02
  rms(prec ) = 0.41336E-02
  weight for this iteration     100.00

 eigenvalues of (default mixing * dielectric matrix)
  average eigenvalue GAMMA=   2.9332
 21.5111  9.3413  5.2291  3.0706  2.2189  2.2189  1.4563  1.3968  1.3968  1.0575
  1.0575  0.8147  0.8147  0.8387  0.7467  0.6914  0.6213  0.6213  0.6264

 Free energy of the ion-electron system (eV)
  ---------------------------------------------------
  alpha Z        PSCENC =         0.12465185
  Ewald energy   TEWEN  =      4281.94219243
  -Hartree energ DENC   =     -5359.02178558
  -exchange      EXHF   =         0.00000000
  -V(xc)+E(xc)   XCENC  =       145.36638733
  PAW double counting   =      3081.31112443    -3087.21360654
  entropy T*S    EENTRO =        -0.00000000
  eigenvalues    EBANDS =      -513.19301317
  atomic energy  EATOM  =      1334.72182766
  Solvation  Ediel_sol  =        -1.92164263
  ---------------------------------------------------
  free energy    TOTEN  =      -117.88386424 eV

  energy without entropy =     -117.88386424  energy(sigma->0) =     -117.88386424


--------------------------------------------------------------------------------------------------------




--------------------------------------- Iteration      1(  25)  ---------------------------------------


    POTLOK:  cpu time  523.6851: real time  524.7156
    SETDIJ:  cpu time    0.0791: real time    0.0793
    EDDIAG:  cpu time    6.7821: real time    6.7956
  RMM-DIIS:  cpu time   24.5231: real time   24.5709
    ORTHCH:  cpu time    0.1013: real time    0.1015
       DOS:  cpu time    0.0002: real time    0.0002
    CHARGE:  cpu time    3.1341: real time    3.1403
    MIXING:  cpu time    0.8547: real time    0.8564
    --------------------------------------------
      LOOP:  cpu time  559.1598: real time  560.2598

 eigenvalue-minimisations  :   180
 total energy-change (2. order) :-0.2882594E-01  (-0.6432003E-04)
 number of electron      44.0000004 magnetization       0.0722911
 augmentation part        1.1385955 magnetization       0.0723180

 Broyden mixing:
  rms(total) = 0.30576E-02    rms(broyden)= 0.30573E-02
  rms(prec ) = 0.31400E-02
  weight for this iteration     100.00

 eigenvalues of (default mixing * dielectric matrix)
  average eigenvalue GAMMA=   3.0237
 24.0285  9.5467  5.4749  3.4762  2.3633  2.3633  1.6290  1.6290  1.1583  1.1583
  0.9647  0.9647  0.8131  0.8131  0.8192  0.7373  0.6689  0.6209  0.6209  0.6247

 Free energy of the ion-electron system (eV)
  ---------------------------------------------------
  alpha Z        PSCENC =         0.12465185
  Ewald energy   TEWEN  =      4281.94219243
  -Hartree energ DENC   =     -5359.01843687
  -exchange      EXHF   =         0.00000000
  -V(xc)+E(xc)   XCENC  =       145.33810081
[...]
 number of electron      44.0000004 magnetization       0.0000004
 augmentation part        1.1385012 magnetization       0.0000003

 Broyden mixing:
  rms(total) = 0.22056E-02    rms(broyden)= 0.22054E-02
  rms(prec ) = 0.22321E-02
  weight for this iteration     100.00

 eigenvalues of (default mixing * dielectric matrix)
  average eigenvalue GAMMA=   1.6219
  1.0217  2.2221

 Free energy of the ion-electron system (eV)
  ---------------------------------------------------
  alpha Z        PSCENC =         0.12465185
  Ewald energy   TEWEN  =      4282.05912485
  -Hartree energ DENC   =     -5359.45884880
  -exchange      EXHF   =         0.00000000
  -V(xc)+E(xc)   XCENC  =       145.30536403
  PAW double counting   =      3081.67513793    -3087.57692067
  entropy T*S    EENTRO =        -0.00000000
  eigenvalues    EBANDS =      -513.34703539
  atomic energy  EATOM  =      1334.72182766
  Solvation  Ediel_sol  =        -1.44839556
  ---------------------------------------------------
  free energy    TOTEN  =      -117.94509411 eV

  energy without entropy =     -117.94509411  energy(sigma->0) =     -117.94509411


--------------------------------------------------------------------------------------------------------




--------------------------------------- Iteration      3(   4)  ---------------------------------------


    POTLOK:  cpu time  491.9860: real time  492.9473
    SETDIJ:  cpu time    0.0968: real time    0.0970
    EDDIAG:  cpu time    6.7843: real time    6.7976
  RMM-DIIS:  cpu time   23.8616: real time   23.9076
    ORTHCH:  cpu time    0.0997: real time    0.0999
       DOS:  cpu time    0.0002: real time    0.0002
    --------------------------------------------
      LOOP:  cpu time  522.8286: real time  523.8495

 eigenvalue-minimisations  :   176
 total energy-change (2. order) :-0.9833172E-05  (-0.5033100E-05)
 number of electron      44.0000004 magnetization       0.0000004
 augmentation part        1.1385012 magnetization       0.0000003

 Free energy of the ion-electron system (eV)
  ---------------------------------------------------
  alpha Z        PSCENC =         0.12465185
  Ewald energy   TEWEN  =      4282.05912485
  -Hartree energ DENC   =     -5359.47952291
  -exchange      EXHF   =         0.00000000
  -V(xc)+E(xc)   XCENC  =       145.30665671
  PAW double counting   =      3081.38533793    -3087.28709848
  entropy T*S    EENTRO =        -0.00000000
  eigenvalues    EBANDS =      -513.32410302
  atomic energy  EATOM  =      1334.72182766
  Solvation  Ediel_sol  =        -1.45197853
  ---------------------------------------------------
  free energy    TOTEN  =      -117.94510394 eV

  energy without entropy =     -117.94510394  energy(sigma->0) =     -117.94510394


--------------------------------------------------------------------------------------------------------




 average (electrostatic) potential at core
  the test charge radii are     0.6991  0.7089  0.5201
  (the norm of the test charge is              1.0000)
       1 -58.7827       2 -58.0401       3 -58.7980       4 -58.0970       5 -58.8184
       6 -58.0699       7 -72.8589       8 -41.5189       9 -41.4729      10 -41.4656
      11 -41.4948      12 -41.5169      13 -41.4897      14 -41.5444      15 -41.4555
      16 -41.3033      17 -41.5555      18 -41.4947      19 -41.4212      20 -41.5224
      21 -41.3266      22 -41.5925
 
 
 
 E-fermi :  -4.4153     XC(G=0):  -0.0445     alpha+bet : -0.0172


 spin component 1

 k-point     1 :       0.0000    0.0000    0.0000
  band No.  band energies     occupation 
      1     -22.7186      1.00000
      2     -18.6414      1.00000
      3     -18.5066      1.00000
      4     -17.2400      1.00000
      5     -15.4391      1.00000
      6     -15.0126      1.00000
      7     -13.2985      1.00000
      8     -11.7810      1.00000
      9     -11.4363      1.00000
     10     -10.8604      1.00000
     11     -10.5027      1.00000
     12      -9.8556      1.00000
     13      -9.5117      1.00000
     14      -9.3220      1.00000
     15      -8.9260      1.00000
     16      -8.7742      1.00000
     17      -8.5582      1.00000
     18      -8.2476      1.00000
     19      -8.0383      1.00000
     20      -7.8048      1.00000
     21      -7.5358      1.00000
     22      -4.6506      1.00000
     23      -0.5235      0.00000
     24      -0.2136      0.00000
     25      -0.1662      0.00000
     26      -0.0955      0.00000
     27      -0.0028      0.00000
     28       0.0824      0.00000
     29       0.0827      0.00000
     30       0.0918      0.00000
     31       0.0928      0.00000
     32       0.0940      0.00000
     33       0.1125      0.00000
     34       0.1683      0.00000
     35       0.1715      0.00000
     36       0.1724      0.00000
     37       0.1742      0.00000
     38       0.1757      0.00000
     39       0.1776      0.00000
     40       0.1783      0.00000
     41       0.1787      0.00000
     42       0.2001      0.00000
     43       0.2013      0.00000
     44       0.2065      0.00000
     45       0.2335      0.00000

 spin component 2

 k-point     1 :       0.0000    0.0000    0.0000
  band No.  band energies     occupation 
      1     -22.7186      1.00000
      2     -18.6413      1.00000
      3     -18.5066      1.00000
      4     -17.2400      1.00000
      5     -15.4391      1.00000
      6     -15.0126      1.00000
      7     -13.2985      1.00000
      8     -11.7810      1.00000
      9     -11.4363      1.00000
     10     -10.8604      1.00000
     11     -10.5027      1.00000
     12      -9.8556      1.00000
     13      -9.5117      1.00000
     14      -9.3220      1.00000
     15      -8.9260      1.00000
     16      -8.7742      1.00000
     17      -8.5582      1.00000
     18      -8.2476      1.00000
     19      -8.0383      1.00000
     20      -7.8048      1.00000
     21      -7.5358      1.00000
     22      -4.6506      1.00000
     23      -0.5235      0.00000
     24      -0.2137      0.00000
     25      -0.1662      0.00000
     26      -0.0956      0.00000
     27      -0.0022      0.00000
     28       0.0820      0.00000
     29       0.0825      0.00000
     30       0.0938      0.00000
     31       0.0948      0.00000
     32       0.0953      0.00000
     33       0.1092      0.00000
     34       0.1700      0.00000
     35       0.1734      0.00000
     36       0.1742      0.00000
     37       0.1746      0.00000
     38       0.1757      0.00000
     39       0.1778      0.00000
     40       0.1785      0.00000
     41       0.1787      0.00000
     42       0.2005      0.00000
     43       0.2021      0.00000
     44       0.2062      0.00000
     45       0.2303      0.00000


--------------------------------------------------------------------------------------------------------


 soft charge-density along one line, spin component           1
         0         1         2         3         4         5         6         7         8         9
 total charge-density along one line
 
 soft charge-density along one line, spin component           2
         0         1         2         3         4         5         6         7         8         9
 total charge-density along one line
 
 pseudopotential strength for first ion, spin component:           1
 10.249  13.630   0.000  -0.001   0.003  -0.001   0.003  -0.008
 13.630  18.126   0.000  -0.002   0.004  -0.001   0.004  -0.011
  0.000   0.000  -4.377   0.000  -0.000   8.568  -0.000   0.001
 -0.001  -0.002   0.000  -4.378   0.002  -0.000   8.569  -0.005
  0.003   0.004  -0.000   0.002  -4.382   0.001  -0.005   8.579
 -0.001  -0.001   8.568  -0.000   0.001 -18.909   0.000  -0.002
  0.003   0.004  -0.000   8.569  -0.005   0.000 -18.913   0.009
 -0.008  -0.011   0.001  -0.005   8.579  -0.002   0.009 -18.933
 pseudopotential strength for first ion, spin component:           2
 10.249  13.630   0.000  -0.001   0.003  -0.001   0.003  -0.008
 13.630  18.126   0.000  -0.002   0.004  -0.001   0.004  -0.011
  0.000   0.000  -4.377   0.000  -0.000   8.568  -0.000   0.001
 -0.001  -0.002   0.000  -4.378   0.002  -0.000   8.569  -0.005
  0.003   0.004  -0.000   0.002  -4.382   0.001  -0.005   8.579
 -0.001  -0.001   8.568  -0.000   0.001 -18.909   0.000  -0.002
  0.003   0.004  -0.000   8.569  -0.005   0.000 -18.913   0.009
 -0.008  -0.011   0.001  -0.005   8.579  -0.002   0.009 -18.933
 total augmentation occupancy for first ion, spin component:           1
  7.426  -3.223  -0.003   0.083   0.047   0.002  -0.001   0.022
 -3.223   1.449  -0.003  -0.025  -0.070  -0.002   0.005  -0.018
 -0.003  -0.003   1.646   0.005  -0.007   0.126  -0.000   0.001
  0.083  -0.025   0.005   1.563   0.030  -0.000   0.126  -0.001
  0.047  -0.070  -0.007   0.030   1.474   0.001  -0.001   0.136
  0.002  -0.002   0.126  -0.000   0.001   0.010  -0.000   0.000
 -0.001   0.005  -0.000   0.126  -0.001  -0.000   0.011  -0.000
  0.022  -0.018   0.001  -0.001   0.136   0.000  -0.000   0.014
 total augmentation occupancy for first ion, spin component:           2
 -0.000   0.000   0.000  -0.000  -0.000   0.000  -0.000  -0.000
  0.000  -0.000  -0.000   0.000   0.000  -0.000   0.000   0.000
  0.000  -0.000   0.000   0.000  -0.000  -0.000   0.000  -0.000
 -0.000   0.000   0.000   0.000  -0.000  -0.000  -0.000   0.000
 -0.000   0.000  -0.000  -0.000   0.000   0.000   0.000  -0.000
  0.000  -0.000  -0.000  -0.000   0.000  -0.000  -0.000   0.000
 -0.000   0.000   0.000  -0.000   0.000  -0.000  -0.000   0.000
 -0.000   0.000  -0.000   0.000  -0.000   0.000   0.000  -0.000


------------------------ aborting loop because EDIFF is reached ----------------------------------------


    CHARGE:  cpu time    3.1245: real time    3.1307
    FORLOC:  cpu time    1.1325: real time    1.1350
    FORNL :  cpu time   10.4314: real time   10.4520
    STRESS:  cpu time   31.8174: real time   31.8811
    FORCOR:  cpu time   16.5162: real time   16.5507
    FORHAR:  cpu time    3.0327: real time    3.0391
    MIXING:  cpu time    0.3236: real time    0.3242
    OFIELD:  cpu time    0.0000: real time    0.0000

 ---------------------------------------------------------------------------------------------

         DFTD3 V3.0 Rev 1        
 Edisp (eV)   -0.26411

 E6    (eV) :    -0.1087
 E8    (eV) :    -0.1554
 % E8        : 58.82
    FORVDW:  cpu time    0.0102: real time    0.0224

  FORCE on cell =-STRESS in cart. coord.  units (eV):
  Direction    XX          YY          ZZ          XY          YZ          ZX
  --------------------------------------------------------------------------------------
  Alpha Z     0.12465     0.12465     0.12465
  Ewald    1763.68122  1812.61340   705.76326   174.93921    -0.24299  -173.19826
  Hartree  2072.68230  2094.13878  1192.67076   147.61672    -3.37281  -111.07998
  E(xc)    -158.01016  -157.85848  -158.35459     0.07014     0.02606    -0.23921
  Local   -4224.35388 -4285.26469 -2288.09459  -323.41392     7.15622   271.70370
  n-local   -79.78971   -79.08526   -82.27755     0.45551    -0.15454    -1.46547
  augment     0.77221     0.52760     0.96215    -0.01698    -0.06775     0.35281
  Kinetic   624.56066   614.78024   628.49262     0.22356    -3.18346    13.41198
  Fock        0.00000     0.00000     0.00000     0.00000     0.00000     0.00000
  vdW        -0.06481    -0.05045     0.02596    -0.01287    -0.00364     0.00315
  -------------------------------------------------------------------------------------
  Total      -0.39751    -0.07420    -0.68733    -0.13864     0.15709    -0.51128
  in kB      -0.00995    -0.00186    -0.01721    -0.00347     0.00393    -0.01280
  external pressure =       -0.01 kB  Pullay stress =        0.00 kB


 VOLUME and BASIS-vectors are now :
 -----------------------------------------------------------------------------
  energy-cutoff  :      500.00
  volume of cell :    64000.00
      direct lattice vectors                 reciprocal lattice vectors
    40.000000000  0.000000000  0.000000000     0.025000000  0.000000000  0.000000000
     0.000000000 40.000000000  0.000000000     0.000000000  0.025000000  0.000000000
     0.000000000  0.000000000 40.000000000     0.000000000  0.000000000  0.025000000

  length of vectors
    40.000000000 40.000000000 40.000000000     0.025000000  0.025000000  0.025000000


 FORCES acting on ions
    electron-ion (+dipol)            ewald-force                    non-local-force                 convergence-correction
 -----------------------------------------------------------------------------------------------
   0.132E+03 0.870E+01 -.140E+03   -.134E+03 -.896E+01 0.141E+03   0.267E+01 0.220E+00 -.973E+00   -.472E-02 -.312E-02 0.223E-02
   0.183E+03 -.300E+01 0.601E+02   -.183E+03 0.306E+01 -.598E+02   -.464E+00 -.503E-01 -.420E+00   0.411E-02 -.112E-02 0.326E-02
   -.835E+02 0.955E+02 0.125E+03   0.844E+02 -.972E+02 -.126E+03   -.761E+00 0.184E+01 0.199E+01   -.183E-02 -.704E-03 -.138E-02
   -.412E+02 0.188E+03 -.218E+02   0.414E+02 -.188E+03 0.224E+02   -.613E-01 -.208E+00 -.211E+00   -.597E-02 -.194E-03 0.377E-02
   -.124E+00 -.173E+03 0.488E+02   0.711E+00 0.175E+03 -.496E+02   -.305E+00 -.248E+01 0.113E+01   0.202E-02 0.465E-02 -.360E-02
   -.153E+03 -.112E+03 0.250E-01   0.153E+03 0.111E+03 0.682E+00   0.291E+00 0.230E+00 -.299E+00   0.146E-02 0.446E-02 0.177E-02
   -.646E+02 -.618E+01 -.121E+03   0.778E+02 0.408E+01 0.141E+03   -.125E+02 0.198E+01 -.187E+02   -.715E-02 -.627E-02 0.185E-02
   0.804E+02 0.519E+01 -.211E+02   -.853E+02 -.567E+01 0.235E+02   0.490E+01 0.497E+00 -.241E+01   0.108E-03 -.189E-03 0.570E-03
   0.319E+02 0.477E+02 0.528E+02   -.315E+02 -.518E+02 -.564E+02   -.432E+00 0.412E+01 0.361E+01   0.431E-03 -.446E-03 0.264E-04
   0.361E+02 -.559E+02 0.431E+02   -.362E+02 0.605E+02 -.459E+02   0.542E-01 -.470E+01 0.284E+01   0.310E-03 0.315E-03 -.196E-03
   0.271E+02 0.575E+02 -.607E+02   -.273E+02 -.622E+02 0.637E+02   0.336E+00 0.478E+01 -.290E+01   -.283E-03 0.124E-02 -.878E-03
   0.323E+02 -.482E+02 -.697E+02   -.330E+02 0.521E+02 0.735E+02   0.944E+00 -.401E+01 -.376E+01   -.381E-03 -.175E-02 -.781E-03
   0.505E+02 0.585E+02 -.109E+02   -.554E+02 -.604E+02 0.117E+02   0.512E+01 0.187E+01 -.799E+00   -.409E-03 0.305E-03 0.525E-03
   -.342E+02 0.659E+02 0.362E+02   0.367E+02 -.695E+02 -.394E+02   -.252E+01 0.360E+01 0.334E+01   -.635E-03 -.246E-03 0.267E-03
   -.397E+02 0.338E+02 -.615E+02   0.423E+02 -.337E+02 0.664E+02   -.259E+01 0.744E-01 -.485E+01   -.931E-03 -.101E-03 0.391E-03
   0.212E+02 0.173E+02 0.827E+02   -.239E+02 -.173E+02 -.871E+02   0.275E+01 -.185E-01 0.452E+01   -.398E-03 0.251E-03 -.140E-03
   -.786E+02 0.717E+01 0.365E+02   0.838E+02 -.599E+01 -.378E+02   -.529E+01 -.116E+01 0.149E+01   0.325E-04 0.208E-03 -.385E-03
   -.663E+02 0.132E+02 0.378E+02   0.696E+02 -.162E+02 -.407E+02   -.331E+01 0.313E+01 0.309E+01   -.274E-03 0.814E-03 0.463E-03
   -.461E+02 -.165E+02 -.627E+02   0.478E+02 0.160E+02 0.679E+02   -.174E+01 0.370E+00 -.521E+01   0.110E-04 0.763E-03 -.635E-03
   -.274E+02 -.742E+02 0.196E+02   0.282E+02 0.793E+02 -.212E+02   -.693E+00 -.519E+01 0.168E+01   -.911E-04 -.465E-03 0.536E-03
   0.177E+02 -.358E+02 0.771E+02   -.193E+02 0.363E+02 -.821E+02   0.160E+01 -.495E+00 0.504E+01   -.204E-03 0.429E-03 -.111E-02
   0.340E+02 -.755E+02 -.317E+02   -.369E+02 0.790E+02 0.346E+02   0.306E+01 -.368E+01 -.289E+01   -.219E-03 0.879E-03 -.775E-05
 -----------------------------------------------------------------------------------------------
   0.896E+01 -.728E+00 0.147E+02   -.995E-13 -.284E-13 -.142E-13   -.896E+01 0.716E+00 -.147E+02   -.150E-01 -.296E-03 0.654E-02
 
 
 POSITION                                       TOTAL-FORCE (eV/Angst)
 -----------------------------------------------------------------------------------
     18.78608     19.96978     20.86957         0.012227      0.002406      0.006460
     17.67688     19.99839     19.80499         0.001486      0.002766     -0.009127
     20.62362     19.07203     19.49434         0.008936      0.003917     -0.005504
     20.59196     17.67375     20.10601        -0.009931      0.000892      0.007938
     20.44696     21.46742     19.87250        -0.005246     -0.007326     -0.005516
     21.91871     21.87109     19.97815        -0.013629      0.001865      0.003793
     20.17375     20.12793     20.40835        -0.001770      0.002008     -0.006373
     16.69782     19.89831     20.29584        -0.006360      0.002638     -0.009132
     17.77218     19.17155     19.08641         0.011021      0.003780      0.001165
     17.67331     20.94208     19.24052         0.012550      0.001822      0.003187
     18.72209     19.02375     21.42813        -0.006561     -0.004725      0.009581
     18.60247     20.77114     21.60257        -0.000249      0.004272      0.006726
     19.56685     17.30998     20.26408         0.002569      0.001292      0.002984
     21.09429     16.96338     19.43460        -0.004795     -0.009031     -0.003146
     21.11283     17.66018     21.07476         0.008258     -0.002433     -0.006814
     20.03911     19.07506     18.54655         0.006321      0.001831     -0.004718
     21.65927     19.30808     19.20936        -0.004324     -0.006276      0.006873
     22.57102     21.23968     19.35901        -0.000644     -0.007889     -0.004948
     22.26391     21.80015     21.01973        -0.002081      0.007160     -0.001690
     22.04907     22.90943     19.63962         0.000906     -0.002342     -0.008465
     20.11634     21.56447     18.81411        -0.009161      0.002391      0.008022
     19.84155     22.18242     20.45080         0.000475      0.000980      0.008706
 -----------------------------------------------------------------------------------
    total drift:                               -0.009352     -0.013107     -0.007635


--------------------------------------------------------------------------------------------------------



  FREE ENERGIE OF THE ION-ELECTRON SYSTEM (eV)
  ---------------------------------------------------
  free  energy   TOTEN  =      -118.20921462 eV

  energy  without entropy=     -118.20921462  energy(sigma->0) =     -118.20921462
 
 d Force = 0.9500742E-03[-0.598E-06, 0.190E-02]  d Energy = 0.9495113E-03 0.563E-06
 d Force = 0.2694985E+00[ 0.269E+00, 0.270E+00]  d Ewald  = 0.2694993E+00-0.770E-06


--------------------------------------------------------------------------------------------------------


    POTLOK:  cpu time  450.2564: real time  451.1426


--------------------------------------------------------------------------------------------------------




--------------------------------------------------------------------------------------------------------


  
 reached required accuracy - stopping structural energy minimisation
 writing wavefunctions
     LOOP+:  cpu time 2641.7282: real time 2648.0152
    4ORBIT:  cpu time    0.0000: real time    0.0000

 total amount of memory used by VASP MPI-rank0  1553363. kBytes
=======================================================================

   base      :      30000. kBytes
   nonlr-proj:       1977. kBytes
   fftplans  :     385204. kBytes
   grid      :    1019168. kBytes
   one-center:         12. kBytes
   wavefun   :     117002. kBytes
 
  
  
 General timing and accounting informations for this job:
 ========================================================
  
                  Total CPU time used (sec):    26183.850
                            User time (sec):    24686.401
                          System time (sec):     1497.449
                         Elapsed time (sec):    26237.022
  
                   Maximum memory used (kb):     5155488.
                   Average memory used (kb):           0.
  
                          Minor page faults:    944154790
                          Major page faults:            2
                 Voluntary context switches:       286198
