 vasp.5.4.4.18Apr17-6-g9f103f2a35 (build Nov 09 2017 14:00:25) complex          
  
 executed on             LinuxIFC date 2024.09.29  12:59:02
 running on   48 total cores
 distrk:  each k-point on   48 cores,    1 groups
 distr:  one band on NCORES_PER_BAND=  24 cores,    2 groups


--------------------------------------------------------------------------------------------------------


 INCAR:
 POTCAR:    PAW_PBE C 08Apr2002                   
 POTCAR:    PAW_PBE N 08Apr2002                   
 POTCAR:    PAW_PBE O 08Apr2002                   
 POTCAR:    PAW_PBE H 15Jun2001                   

 ----------------------------------------------------------------------------- 
|                                                                             |
|           W    W    AA    RRRRR   N    N  II  N    N   GGGG   !!!           |
|           W    W   A  A   R    R  NN   N  II  NN   N  G    G  !!!           |
|           W    W  A    A  R    R  N N  N  II  N N  N  G       !!!           |
|           W WW W  AAAAAA  RRRRR   N  N N  II  N  N N  G  GGG   !            |
|           WW  WW  A    A  R   R   N   NN  II  N   NN  G    G                |
|           W    W  A    A  R    R  N    N  II  N    N   GGGG   !!!           |
|                                                                             |
|      For optimal performance we recommend to set                            |
|        NCORE= 4 - approx SQRT( number of cores)                             |
|      NCORE specifies how many cores store one orbital (NPAR=cpu/NCORE).     |
|      This setting can  greatly improve the performance of VASP for DFT.     |
|      The default,   NCORE=1            might be grossly inefficient         |
|      on modern multi-core architectures or massively parallel machines.     |
|      Do your own testing !!!!                                               |
|      Unfortunately you need to use the default for GW and RPA calculations. |
|      (for HF NCORE is supported but not extensively tested yet)             |
|                                                                             |
 ----------------------------------------------------------------------------- 

 POTCAR:    PAW_PBE C 08Apr2002                   
   VRHFIN =C: s2p2                                                              
   LEXCH  = PE                                                                  
   EATOM  =   147.1560 eV,   10.8157 Ry                                         
                                                                                
   TITEL  = PAW_PBE C 08Apr2002                                                 
   LULTRA =        F    use ultrasoft PP ?                                      
   IUNSCR =        1    unscreen: 0-lin 1-nonlin 2-no                           
   RPACOR =    1.200    partial core radius                                     
   POMASS =   12.011; ZVAL   =    4.000    mass and valenz                      
   RCORE  =    1.500    outmost cutoff radius                                   
   RWIGS  =    1.630; RWIGS  =    0.863    wigner-seitz radius (au A)           
   ENMAX  =  400.000; ENMIN  =  300.000 eV                                      
   ICORE  =        2    local potential                                         
   LCOR   =        T    correct aug charges                                     
   LPAW   =        T    paw PP                                                  
   EAUG   =  644.873                                                            
   DEXC   =    0.000                                                            
   RMAX   =    1.529    core radius for proj-oper                               
   RAUG   =    1.300    factor for augmentation sphere                          
   RDEP   =    1.501    radius for radial grids                                 
   RDEPT  =    1.300    core radius for aug-charge                              
                                                                                
   Atomic configuration                                                         
    4 entries                                                                   
     n  l   j            E        occ.                                          
     1  0  0.50      -273.3789   2.0000                                         
     2  0  0.50       -13.7508   2.0000                                         
     2  1  0.50        -5.2854   2.0000                                         
     3  2  1.50        -5.4423   0.0000                                         
   Description                                                                  
     l       E           TYP  RCUT    TYP  RCUT                                 
     0    -13.7508458     23  1.200                                             
     0     -8.2022199     23  1.200                                             
     1     -5.2854383     23  1.500                                             
     1     34.0145650     23  1.500                                             
     2     -5.4423304      7  1.500                                             
  local pseudopotential read in
  partial core-charges read in
  partial kinetic energy density read in
  atomic valenz-charges read in
  non local Contribution for L=           0  read in
    real space projection operators read in
  non local Contribution for L=           0  read in
    real space projection operators read in
  non local Contribution for L=           1  read in
    real space projection operators read in
  non local Contribution for L=           1  read in
    real space projection operators read in
    PAW grid and wavefunctions read in
 
   number of l-projection  operators is LMAX  =           4
   number of lm-projection operators is LMMAX =           8
 
 POTCAR:    PAW_PBE N 08Apr2002                   
   VRHFIN =N: s2p3                                                              
   LEXCH  = PE                                                                  
   EATOM  =   264.5486 eV,   19.4438 Ry                                         
                                                                                
   TITEL  = PAW_PBE N 08Apr2002                                                 
   LULTRA =        F    use ultrasoft PP ?                                      
   IUNSCR =        1    unscreen: 0-lin 1-nonlin 2-no                           
   RPACOR =    1.200    partial core radius                                     
   POMASS =   14.001; ZVAL   =    5.000    mass and valenz                      
   RCORE  =    1.500    outmost cutoff radius                                   
   RWIGS  =    1.400; RWIGS  =    0.741    wigner-seitz radius (au A)           
   ENMAX  =  400.000; ENMIN  =  300.000 eV                                      
   ICORE  =        2    local potential                                         
   LCOR   =        T    correct aug charges                                     
   LPAW   =        T    paw PP                                                  
   EAUG   =  627.112                                                            
   DEXC   =    0.000                                                            
   RMAX   =    1.529    core radius for proj-oper                               
   RAUG   =    1.300    factor for augmentation sphere                          
   RDEP   =    1.514    radius for radial grids                                 
   RDEPT  =    1.338    core radius for aug-charge                              
                                                                                
   Atomic configuration                                                         
    4 entries                                                                   
     n  l   j            E        occ.                                          
     1  0  0.50      -384.7179   2.0000                                         
     2  0  0.50       -18.5828   2.0000                                         
     2  1  0.50        -7.0898   3.0000                                         
     3  2  1.50        -6.8029   0.0000                                         
   Description                                                                  
     l       E           TYP  RCUT    TYP  RCUT                                 
     0    -18.5828119     23  1.200                                             
     0    -13.5018863     23  1.200                                             
     1     -7.0897853     23  1.500                                             
     1      9.5240782     23  1.500                                             
     2     -6.8029130      7  1.500                                             
  local pseudopotential read in
  partial core-charges read in
  partial kinetic energy density read in
  atomic valenz-charges read in
  non local Contribution for L=           0  read in
    real space projection operators read in
  non local Contribution for L=           0  read in
    real space projection operators read in
  non local Contribution for L=           1  read in
    real space projection operators read in
  non local Contribution for L=           1  read in
    real space projection operators read in
    PAW grid and wavefunctions read in
 
   number of l-projection  operators is LMAX  =           4
   number of lm-projection operators is LMMAX =           8
 
 POTCAR:    PAW_PBE O 08Apr2002                   
   VRHFIN =O: s2p4                                                              
   LEXCH  = PE                                                                  
   EATOM  =   432.3788 eV,   31.7789 Ry                                         
                                                                                
   TITEL  = PAW_PBE O 08Apr2002                                                 
   LULTRA =        F    use ultrasoft PP ?                                      
   IUNSCR =        1    unscreen: 0-lin 1-nonlin 2-no                           
   RPACOR =    1.200    partial core radius                                     
   POMASS =   16.000; ZVAL   =    6.000    mass and valenz                      
   RCORE  =    1.520    outmost cutoff radius                                   
   RWIGS  =    1.550; RWIGS  =    0.820    wigner-seitz radius (au A)           
   ENMAX  =  400.000; ENMIN  =  300.000 eV                                      
   ICORE  =        2    local potential                                         
   LCOR   =        T    correct aug charges                                     
   LPAW   =        T    paw PP                                                  
   EAUG   =  605.392                                                            
   DEXC   =    0.000                                                            
   RMAX   =    1.553    core radius for proj-oper                               
   RAUG   =    1.300    factor for augmentation sphere                          
   RDEP   =    1.550    radius for radial grids                                 
   RDEPT  =    1.329    core radius for aug-charge                              
                                                                                
   Atomic configuration                                                         
    4 entries                                                                   
     n  l   j            E        occ.                                          
     1  0  0.50      -514.6923   2.0000                                         
     2  0  0.50       -23.9615   2.0000                                         
     2  1  0.50        -9.0305   4.0000                                         
     3  2  1.50        -9.5241   0.0000                                         
   Description                                                                  
     l       E           TYP  RCUT    TYP  RCUT                                 
     0    -23.9615318     23  1.200                                             
     0     -9.5240782     23  1.200                                             
     1     -9.0304911     23  1.520                                             
     1      8.1634956     23  1.520                                             
     2     -9.5240782      7  1.500                                             
  local pseudopotential read in
  partial core-charges read in
  partial kinetic energy density read in
  kinetic energy density of atom read in
  atomic valenz-charges read in
  non local Contribution for L=           0  read in
    real space projection operators read in
  non local Contribution for L=           0  read in
    real space projection operators read in
  non local Contribution for L=           1  read in
    real space projection operators read in
  non local Contribution for L=           1  read in
    real space projection operators read in
    PAW grid and wavefunctions read in
 
   number of l-projection  operators is LMAX  =           4
   number of lm-projection operators is LMMAX =           8
 
 POTCAR:    PAW_PBE H 15Jun2001                   
   VRHFIN =H: ultrasoft test                                                    
   LEXCH  = PE                                                                  
   EATOM  =    12.4884 eV,    0.9179 Ry                                         
                                                                                
   TITEL  = PAW_PBE H 15Jun2001                                                 
   LULTRA =        F    use ultrasoft PP ?                                      
   IUNSCR =        0    unscreen: 0-lin 1-nonlin 2-no                           
   RPACOR =    0.000    partial core radius                                     
   POMASS =    1.000; ZVAL   =    1.000    mass and valenz                      
   RCORE  =    1.100    outmost cutoff radius                                   
   RWIGS  =    0.700; RWIGS  =    0.370    wigner-seitz radius (au A)           
   ENMAX  =  250.000; ENMIN  =  200.000 eV                                      
   RCLOC  =    0.701    cutoff for local pot                                    
   LCOR   =        T    correct aug charges                                     
   LPAW   =        T    paw PP                                                  
   EAUG   =  400.000                                                            
   RMAX   =    1.123    core radius for proj-oper                               
   RAUG   =    1.200    factor for augmentation sphere                          
   RDEP   =    1.112    radius for radial grids                                 
   RDEPT  =    0.926    core radius for aug-charge                              
                                                                                
   Atomic configuration                                                         
    2 entries                                                                   
     n  l   j            E        occ.                                          
     1  0  0.50        -6.4927   1.0000                                         
     2  1  0.50        -3.4015   0.0000                                         
   Description                                                                  
     l       E           TYP  RCUT    TYP  RCUT                                 
     0     -6.4927494     23  1.100                                             
     0      6.8029130     23  1.100                                             
     1     -4.0817478     23  1.100                                             
  local pseudopotential read in
  atomic valenz-charges read in
  non local Contribution for L=           0  read in
    real space projection operators read in
  non local Contribution for L=           0  read in
    real space projection operators read in
  non local Contribution for L=           1  read in
    real space projection operators read in
    PAW grid and wavefunctions read in
 
   number of l-projection  operators is LMAX  =           3
   number of lm-projection operators is LMMAX =           5
 
 Optimization of the real space projectors (new method)

 maximal supplied QI-value         = 25.13
 optimisation between [QCUT,QGAM] = [ 11.31, 22.87] = [ 35.82,146.48] Ry 
 Optimized for a Real-space Cutoff    1.03 Angstroem

   l    n(q)    QCUT    max X(q) W(low)/X(q) W(high)/X(q)  e(spline) 
   0      7    11.310   115.676    0.20E-03    0.90E-03    0.20E-06
   0      7    11.310    87.132    0.20E-03    0.89E-03    0.19E-06
   1      6    11.310     4.429    0.16E-03    0.28E-03    0.12E-06
   1      6    11.310     2.733    0.12E-03    0.21E-03    0.99E-07
 Optimization of the real space projectors (new method)

 maximal supplied QI-value         = 25.13
 optimisation between [QCUT,QGAM] = [ 11.31, 22.87] = [ 35.82,146.48] Ry 
 Optimized for a Real-space Cutoff    1.43 Angstroem

   l    n(q)    QCUT    max X(q) W(low)/X(q) W(high)/X(q)  e(spline) 
   0     10    11.310    79.467    0.42E-04    0.81E-04    0.60E-06
   0     10    11.310    66.151    0.40E-04    0.81E-04    0.60E-06
   1      9    11.310    17.416    0.14E-03    0.88E-04    0.14E-05
   1      9    11.310    12.382    0.15E-03    0.93E-04    0.14E-05
 Optimization of the real space projectors (new method)

 maximal supplied QI-value         = 24.76
 optimisation between [QCUT,QGAM] = [ 11.39, 22.77] = [ 36.31,145.25] Ry 
 Optimized for a Real-space Cutoff    1.10 Angstroem

   l    n(q)    QCUT    max X(q) W(low)/X(q) W(high)/X(q)  e(spline) 
   0      7    11.387    20.381    0.22E-03    0.48E-03    0.18E-06
   0      7    11.387    15.268    0.22E-03    0.52E-03    0.19E-06
   1      7    11.387     5.964    0.22E-03    0.73E-03    0.24E-06
   1      7    11.387     5.382    0.19E-03    0.60E-03    0.21E-06
 Optimization of the real space projectors (new method)

 maximal supplied QI-value         = 34.20
 optimisation between [QCUT,QGAM] = [ 11.29, 22.57] = [ 35.68,142.71] Ry 
 Optimized for a Real-space Cutoff    1.20 Angstroem

   l    n(q)    QCUT    max X(q) W(low)/X(q) W(high)/X(q)  e(spline) 
   0      8    11.287    19.460    0.22E-03    0.50E-03    0.19E-06
   0      8    11.287    12.209    0.21E-03    0.48E-03    0.18E-06
   1      8    11.287     4.655    0.21E-03    0.11E-04    0.26E-06
  PAW_PBE C 08Apr2002                   :
 energy of atom  1       EATOM= -147.1560
 kinetic energy error for atom=    0.0076 (will be added to EATOM!!)
  PAW_PBE N 08Apr2002                   :
 energy of atom  2       EATOM= -264.5486
 kinetic energy error for atom=    0.0138 (will be added to EATOM!!)
  PAW_PBE O 08Apr2002                   :
 energy of atom  3       EATOM= -432.3788
 kinetic energy error for atom=    0.0224 (will be added to EATOM!!)
  PAW_PBE H 15Jun2001                   :
 energy of atom  4       EATOM=  -12.4884
 kinetic energy error for atom=    0.0020 (will be added to EATOM!!)
 
 
 POSCAR: C N O H                                 
  positions in direct lattice
  velocities in cartesian coordinates
 exchange correlation table for  LEXCH =        8
   RHO(1)=    0.500       N(1)  =     2000
   RHO(2)=  100.500       N(2)  =     4000
 


--------------------------------------------------------------------------------------------------------


 ion  position               nearest neighbor table
   1  0.545  0.524  0.501-  18 1.09   2 1.39   6 1.41
   2  0.516  0.543  0.501-  17 1.09   1 1.39   3 1.40
   3  0.484  0.528  0.501-  16 1.09   2 1.40   4 1.40
   4  0.483  0.493  0.501-   9 1.37   5 1.40   3 1.40
   5  0.512  0.473  0.501-  12 1.09   4 1.40   6 1.40
   6  0.544  0.489  0.501-   8 1.39   5 1.40   1 1.41
   7  0.423  0.493  0.501-  13 1.10  15 1.10  14 1.10   9 1.43
   8  0.572  0.469  0.502-  11 1.01  10 1.02   6 1.39
   9  0.453  0.475  0.501-   4 1.37   7 1.43
  10  0.570  0.445  0.494-   8 1.02
  11  0.594  0.480  0.494-   8 1.01
  12  0.510  0.446  0.501-   5 1.09
  13  0.403  0.475  0.501-   7 1.10
  14  0.420  0.509  0.478-   7 1.10
  15  0.421  0.509  0.523-   7 1.10
  16  0.462  0.543  0.501-   3 1.09
  17  0.518  0.570  0.501-   2 1.09
  18  0.570  0.536  0.501-   1 1.09
 
  LATTYP: Found a simple cubic cell.
 ALAT       =    40.0000000000
  
  Lattice vectors:
  
 A1 = (  40.0000000000,   0.0000000000,   0.0000000000)
 A2 = (   0.0000000000,  40.0000000000,   0.0000000000)
 A3 = (   0.0000000000,   0.0000000000,  40.0000000000)


Analysis of symmetry for initial positions (statically):
=====================================================================
 Subroutine PRICEL returns:
 Original cell was already a primitive cell.
 

 Routine SETGRP: Setting up the symmetry group for a 
 simple cubic supercell.


 Subroutine GETGRP returns: Found  1 space group operations
 (whereof  1 operations were pure point group operations)
 out of a pool of 48 trial point group operations.


The static configuration has the point symmetry C_1 .


Analysis of symmetry for dynamics (positions and initial velocities):
=====================================================================
 Subroutine PRICEL returns:
 Original cell was already a primitive cell.
 

 Routine SETGRP: Setting up the symmetry group for a 
 simple cubic supercell.


 Subroutine GETGRP returns: Found  1 space group operations
 (whereof  1 operations were pure point group operations)
 out of a pool of 48 trial point group operations.


The dynamic configuration has the point symmetry C_1 .


Analysis of constrained symmetry for selective dynamics:
=====================================================================
 Subroutine PRICEL returns:
 Original cell was already a primitive cell.
 

 Routine SETGRP: Setting up the symmetry group for a 
 simple cubic supercell.


 Subroutine GETGRP returns: Found  1 space group operations
 (whereof  1 operations were pure point group operations)
 out of a pool of 48 trial point group operations.


The constrained configuration has the point symmetry C_1 .


Analysis of structural, dynamic, and magnetic symmetry:
=====================================================================
 Subroutine PRICEL returns:
 Original cell was already a primitive cell.
 

 Routine SETGRP: Setting up the symmetry group for a 
 simple cubic supercell.


 Subroutine GETGRP returns: Found  1 space group operations
 (whereof  1 operations were pure point group operations)
 out of a pool of 48 trial point group operations.


The magnetic configuration has the point symmetry C_1 .


 Subroutine INISYM returns: Found  1 space group operations
 (whereof  1 operations are pure point group operations),
 and found     1 'primitive' translations

 
 
 KPOINTS: K-Point Grid                            

Automatic generation of k-mesh.
Space group operators:
 irot       det(A)        alpha          n_x          n_y          n_z        tau_x        tau_y        tau_z
    1     1.000000     0.000000     1.000000     0.000000     0.000000     0.000000     0.000000     0.000000
 
 Subroutine IBZKPT returns following result:
 ===========================================
 
 Found      1 irreducible k-points:
 
 Following reciprocal coordinates:
            Coordinates               Weight
  0.000000  0.000000  0.000000      1.000000
 
 Following cartesian coordinates:
            Coordinates               Weight
  0.000000  0.000000  0.000000      1.000000
 


--------------------------------------------------------------------------------------------------------




 Dimension of arrays:
   k-points           NKPTS =      1   k-points in BZ     NKDIM =      1   number of bands    NBANDS=     42
   number of dos      NEDOS =    301   number of ions     NIONS =     18
   non local maximal  LDIM  =      4   non local SUM 2l+1 LMDIM =      8
   total plane-waves  NPLWV = ******
   max r-space proj   IRMAX =   4928   max aug-charges    IRDMAX=   5350
   dimension x,y,z NGX =   294 NGY =  294 NGZ =  294
   dimension x,y,z NGXF=   588 NGYF=  588 NGZF=  588
   support grid    NGXF=   588 NGYF=  588 NGZF=  588
   ions per type =               7   1   1   9
   NGX,Y,Z   is equivalent  to a cutoff of  12.22, 12.22, 12.22 a.u.
   NGXF,Y,Z  is equivalent  to a cutoff of  24.44, 24.44, 24.44 a.u.

 SYSTEM =  103_red                                 
 POSCAR =  C N O H                                 

 Startparameter for this run:
   NWRITE =      2    write-flag & timer
   PREC   = accura    normal or accurate (medium, high low for compatibility)
   ISTART =      0    job   : 0-new  1-cont  2-samecut
   ICHARG =      2    charge: 1-file 2-atom 10-const
   ISPIN  =      2    spin polarized calculation?
   LNONCOLLINEAR =      F non collinear calculations
   LSORBIT =      F    spin-orbit coupling
   INIWAV =      1    electr: 0-lowe 1-rand  2-diag
   LASPH  =      F    aspherical Exc in radial PAW
   METAGGA=      F    non-selfconsistent MetaGGA calc.

 Electronic Relaxation 1
   ENCUT  =  500.0 eV  36.75 Ry    6.06 a.u.  72.93 72.93 72.93*2*pi/ulx,y,z
   ENINI  =  500.0     initial cutoff
   ENAUG  =  644.9 eV  augmentation charge cutoff
   NELM   =    100;   NELMIN=  2; NELMDL= -5     # of ELM steps 
   EDIFF  = 0.1E-04   stopping-criterion for ELM
   LREAL  =      T    real-space projection
   NLSPLINE    = F    spline interpolate recip. space projectors
   LCOMPAT=      F    compatible to vasp.4.4
   GGA_COMPAT  = T    GGA compatible to vasp.4.4-vasp.4.6
   LMAXPAW     = -100 max onsite density
   LMAXMIX     =    2 max onsite mixed and CHGCAR
   VOSKOWN=      0    Vosko Wilk Nusair interpolation
   ROPT   =   -0.00025  -0.00025  -0.00025  -0.00025
 Ionic relaxation
   EDIFFG = -.2E-01   stopping-criterion for IOM
   NSW    =    500    number of steps for IOM
   NBLOCK =      1;   KBLOCK =    500    inner block; outer block 
   IBRION =      2    ionic relax: 0-MD 1-quasi-New 2-CG
   NFREE  =      1    steps in history (QN), initial steepest desc. (CG)
   ISIF   =      2    stress and relaxation
   IWAVPR =     11    prediction:  0-non 1-charg 2-wave 3-comb
   ISYM   =      2    0-nonsym 1-usesym 2-fastsym
   LCORR  =      T    Harris-Foulkes like correction to forces

   POTIM  = 0.5000    time-step for ionic-motion
   TEIN   =    0.0    initial temperature
   TEBEG  =    0.0;   TEEND  =   0.0 temperature during run
   SMASS  =  -3.00    Nose mass-parameter (am)
   estimated Nose-frequenzy (Omega)   =  0.10E-29 period in steps =****** mass=  -0.366E-25a.u.
   SCALEE = 1.0000    scale energy and forces
   NPACO  =    256;   APACO  = 16.0  distance and # of slots for P.C.
   PSTRESS=    0.0 pullay stress

  Mass of Ions in am
   POMASS =  12.01 14.00 16.00  1.00
  Ionic Valenz
   ZVAL   =   4.00  5.00  6.00  1.00
  Atomic Wigner-Seitz radii
   RWIGS  =  -1.00 -1.00 -1.00 -1.00
  virtual crystal weights 
   VCA    =   1.00  1.00  1.00  1.00
   NELECT =      47.0000    total number of electrons
   NUPDOWN=      -1.0000    fix difference up-down

 DOS related values:
   EMIN   =  10.00;   EMAX   =-10.00  energy-range for DOS
   EFERMI =   0.00
   ISMEAR =     0;   SIGMA  =   0.05  broadening in eV -4-tet -1-fermi 0-gaus

 Electronic relaxation 2 (details)
   IALGO  =     68    algorithm
   LDIAG  =      T    sub-space diagonalisation (order eigenvalues)
   LSUBROT=      F    optimize rotation matrix (better conditioning)
   TURBO    =      0    0=normal 1=particle mesh
   IRESTART =      0    0=no restart 2=restart with 2 vectors
   NREBOOT  =      0    no. of reboots
   NMIN     =      0    reboot dimension
   EREF     =   0.00    reference energy to select bands
   IMIX   =      4    mixing-type and parameters
     AMIX     =   0.40;   BMIX     =  1.00
     AMIX_MAG =   1.60;   BMIX_MAG =  1.00
     AMIN     =   0.10
     WC   =   100.;   INIMIX=   1;  MIXPRE=   1;  MAXMIX= -45

 Intra band minimization:
   WEIMIN = 0.0010     energy-eigenvalue tresh-hold
   EBREAK =  0.60E-07  absolut break condition
   DEPER  =   0.30     relativ break condition  

   TIME   =   0.40     timestep for ELM

  volume/ion in A,a.u.               =    3555.56     23994.07
  Fermi-wavevector in a.u.,A,eV,Ry     =   0.147700  0.279113  0.296815  0.021815
  Thomas-Fermi vector in A             =   0.819491
 
 Write flags
   LWAVE        =      T    write WAVECAR
   LDOWNSAMPLE  =      F    k-point downsampling of WAVECAR
   LCHARG       =      F    write CHGCAR
   LVTOT        =      F    write LOCPOT, total local potential
   LVHAR        =      F    write LOCPOT, Hartree potential only
   LELF         =      F    write electronic localiz. function (ELF)
   LORBIT       =      0    0 simple, 1 ext, 2 COOP (PROOUT), +10 PAW based schemes


 Dipole corrections
   LMONO  =      F    monopole corrections only (constant potential shift)
   LDIPOL =      F    correct potential (dipole corrections)
   IDIPOL =      0    1-x, 2-y, 3-z, 4-all directions 
   EPSILON=  1.0000000 bulk dielectric constant

 Exchange correlation treatment:
   GGA     =    --    GGA type
   LEXCH   =     8    internal setting for exchange type
   VOSKOWN=      0    Vosko Wilk Nusair interpolation
   LHFCALC =     F    Hartree Fock is set to
   LHFONE  =     F    Hartree Fock one center treatment
   AEXX    =    0.0000 exact exchange contribution

 Linear response parameters
   LEPSILON=     F    determine dielectric tensor
   LRPA    =     F    only Hartree local field effects (RPA)
   LNABLA  =     F    use nabla operator in PAW spheres
   LVEL    =     F    velocity operator in full k-point grid
   LINTERFAST=   F  fast interpolation
   KINTER  =     0    interpolate to denser k-point grid
   CSHIFT  =0.1000    complex shift for real part using Kramers Kronig
   OMEGAMAX=  -1.0    maximum frequency
   DEG_THRESHOLD= 0.2000000E-02 threshold for treating states as degnerate
   RTIME   =   -0.100 relaxation time in fs
  (WPLASMAI=    0.000 imaginary part of plasma frequency in eV, 0.658/RTIME)
   DFIELD  = 0.0000000 0.0000000 0.0000000 field for delta impulse in time
 
 Orbital magnetization related:
   ORBITALMAG=     F  switch on orbital magnetization
   LCHIMAG   =     F  perturbation theory with respect to B field
   DQ        =  0.001000  dq finite difference perturbation B field
   LLRAUG    =     F  two centre corrections for induced B field

 Solvation model:
   LSOL    =     T         switch on solvation model
   EB_K    = 35.688000     relative permittivity of the bulk solvent
   SIGMA_K =  0.600000     width of the dielectric cavity
   NC_K    =  0.002500     cutoff charge density
   TAU     =  0.000000     cavity surface tension
   LAMBDA_D_K    =  3.040000     Debye length in Angstroms
   LRHOB     =     F     write boundcharge  density
   LRHOION     =     F     write ioniccharge density



--------------------------------------------------------------------------------------------------------


 conjugate gradient relaxation of ions
   using selective dynamics as specified on POSCAR
 charge density and potential will be updated during run
 spin polarized calculation
 RMM-DIIS sequential band-by-band and
  variant of blocked Davidson during initial phase
 perform sub-space diagonalisation
    before iterative eigenvector-optimisation
 modified Broyden-mixing scheme, WC =      100.0
 initial mixing is a Kerker type mixing with AMIX =  0.4000 and BMIX =      1.0000
 Hartree-type preconditioning will be used
 using additional bands           18
 real space projection scheme for non local part
 use partial core corrections
 calculate Harris-corrections to forces 
   (improved forces if not selfconsistent)
 use gradient corrections 
 use of overlap-Matrix (Vanderbilt PP)
 Gauss-broadening in eV      SIGMA  =   0.05


--------------------------------------------------------------------------------------------------------


  energy-cutoff  :      500.00
  volume of cell :    64000.00
      direct lattice vectors                 reciprocal lattice vectors
    40.000000000  0.000000000  0.000000000     0.025000000  0.000000000  0.000000000
     0.000000000 40.000000000  0.000000000     0.000000000  0.025000000  0.000000000
     0.000000000  0.000000000 40.000000000     0.000000000  0.000000000  0.025000000

  length of vectors
    40.000000000 40.000000000 40.000000000     0.025000000  0.025000000  0.025000000


 
 k-points in units of 2pi/SCALE and weight: K-Point Grid                            
   0.00000000  0.00000000  0.00000000       1.000
 
 k-points in reciprocal lattice and weights: K-Point Grid                            
   0.00000000  0.00000000  0.00000000       1.000
 
 position of ions in fractional coordinates (direct lattice) 
   0.54547753  0.52382980  0.50060132
   0.51625794  0.54272423  0.50062946
   0.48449471  0.52783792  0.50068660
   0.48272938  0.49277834  0.50068483
   0.51188012  0.47334845  0.50061985
   0.54356384  0.48850676  0.50058498
   0.42265317  0.49336758  0.50072538
   0.57235539  0.46917397  0.50191499
   0.45338359  0.47487726  0.50062847
   0.57015093  0.44503786  0.49439850
   0.59375197  0.48020465  0.49389335
   0.50952202  0.44615115  0.50055680
   0.40269907  0.47461874  0.50072425
   0.42046908  0.50914519  0.47827095
   0.42056324  0.50906402  0.52324259
   0.46213942  0.54332934  0.50067240
   0.51804004  0.56997072  0.50056704
   0.56986958  0.53603302  0.50059725
 
 position of ions in cartesian coordinates  (Angst):
  21.81910128 20.95319219 20.02405290
  20.65031749 21.70896928 20.02517827
  19.37978843 21.11351675 20.02746404
  19.30917532 19.71113341 20.02739320
  20.47520464 18.93393809 20.02479415
  21.74255366 19.54027038 20.02339907
  16.90612667 19.73470335 20.02901512
  22.89421542 18.76695882 20.07659944
  18.13534346 18.99509021 20.02513868
  22.80603701 17.80151425 19.77594006
  23.75007878 19.20818602 19.75573392
  20.38088089 17.84604597 20.02227210
  16.10796265 18.98474980 20.02897014
  16.81876308 20.36580773 19.13083781
  16.82252952 20.36256075 20.92970357
  18.48557689 21.73317362 20.02689612
  20.72160165 22.79882874 20.02268154
  22.79478317 21.44132064 20.02388986
 


--------------------------------------------------------------------------------------------------------


 k-point  1 :   0.0000 0.0000 0.0000  plane waves: 1624525

 maximum and minimum number of plane-waves per node :     67702    67669

 maximum number of plane-waves:   1624525
 maximum index in each direction: 
   IXMAX=   72   IYMAX=   72   IZMAX=   72
   IXMIN=  -72   IYMIN=  -72   IZMIN=  -72


 real space projection operators:
  total allocation   :       2188.97 KBytes
  max/ min on nodes  :        122.53         55.91


 parallel 3D FFT for wavefunctions:
    minimum data exchange during FFTs selected (reduces bandwidth)
 parallel 3D FFT for charge:
    minimum data exchange during FFTs selected (reduces bandwidth)


 total amount of memory used by VASP MPI-rank0   782278. kBytes
=======================================================================

   base      :      30000. kBytes
   nonlr-proj:       1633. kBytes
   fftplans  :     182426. kBytes
   grid      :     522727. kBytes
   one-center:          6. kBytes
   wavefun   :      45486. kBytes
 
     INWAV:  cpu time    0.0001: real time    0.0006
 Broyden mixing: mesh for mixing (old mesh)
   NGX =145   NGY =145   NGZ =145
  (NGX  =588   NGY  =588   NGZ  =588)
  gives a total of ****** points

 initial charge density was supplied:
 charge density of overlapping atoms calculated
 number of electron      48.0000000 magnetization      18.0000000
 keeping initial charge density in first step


--------------------------------------------------------------------------------------------------------


 Maximum index for non-local projection operator          342
 Maximum index for augmentation-charges          343 (set IRDMAX)


--------------------------------------------------------------------------------------------------------


 First call to EWALD:  gamma=   0.044
 Maximum number of real-space cells 3x 3x 3
 Maximum number of reciprocal cells 3x 3x 3

    FEWALD:  cpu time    0.0025: real time    0.0025


--------------------------------------- Iteration      1(   1)  ---------------------------------------


    POTLOK:  cpu time  191.3239: real time  191.4922
    SETDIJ:  cpu time    0.0441: real time    0.0442
     EDDAV:  cpu time   18.5696: real time   18.6079
       DOS:  cpu time    0.0004: real time    0.0004
    --------------------------------------------
      LOOP:  cpu time  209.9380: real time  210.1447

 eigenvalue-minimisations  :   200
 total energy-change (2. order) : 0.4800024E+03  (-0.5841662E+03)
 number of electron      48.0000000 magnetization      18.0000000
 augmentation part       48.0000000 magnetization      18.0000000

 Free energy of the ion-electron system (eV)
  ---------------------------------------------------
  alpha Z        PSCENC =         0.15779290
  Ewald energy   TEWEN  =      4859.35027869
  -Hartree energ DENC   =     -6131.55474661
  -exchange      EXHF   =         0.00000000
  -V(xc)+E(xc)   XCENC  =       164.32967027
  PAW double counting   =      1326.10784145    -1333.08577956
  entropy T*S    EENTRO =        -0.05413834
  eigenvalues    EBANDS =      -236.52346187
  atomic energy  EATOM  =      1839.30810466
  Solvation  Ediel_sol  =        -8.03314375
  ---------------------------------------------------
  free energy    TOTEN  =       480.00241783 eV

  energy without entropy =      480.05655617  energy(sigma->0) =      480.02948700


--------------------------------------------------------------------------------------------------------




--------------------------------------- Iteration      1(   2)  ---------------------------------------


     EDDAV:  cpu time   26.3069: real time   26.3748
       DOS:  cpu time    0.0003: real time    0.0003
    --------------------------------------------
      LOOP:  cpu time   26.3072: real time   26.3751

 eigenvalue-minimisations  :   310
 total energy-change (2. order) :-0.2666873E+03  (-0.2483623E+03)
 number of electron      48.0000000 magnetization      18.0000000
 augmentation part       48.0000000 magnetization      18.0000000

 Free energy of the ion-electron system (eV)
  ---------------------------------------------------
  alpha Z        PSCENC =         0.15779290
  Ewald energy   TEWEN  =      4859.35027869
  -Hartree energ DENC   =     -6131.55474661
  -exchange      EXHF   =         0.00000000
  -V(xc)+E(xc)   XCENC  =       164.32967027
  PAW double counting   =      1326.10784145    -1333.08577956
  entropy T*S    EENTRO =        -0.01326546
  eigenvalues    EBANDS =      -503.25165398
  atomic energy  EATOM  =      1839.30810466
  Solvation  Ediel_sol  =        -8.03314375
  ---------------------------------------------------
  free energy    TOTEN  =       213.31509860 eV

  energy without entropy =      213.32836406  energy(sigma->0) =      213.32173133


--------------------------------------------------------------------------------------------------------




--------------------------------------- Iteration      1(   3)  ---------------------------------------


     EDDAV:  cpu time   22.9272: real time   22.9752
       DOS:  cpu time    0.0002: real time    0.0002
    --------------------------------------------
      LOOP:  cpu time   22.9273: real time   22.9753

 eigenvalue-minimisations  :   262
 total energy-change (2. order) :-0.2430137E+03  (-0.2342549E+03)
 number of electron      48.0000000 magnetization      18.0000000
 augmentation part       48.0000000 magnetization      18.0000000

 Free energy of the ion-electron system (eV)
  ---------------------------------------------------
  alpha Z        PSCENC =         0.15779290
  Ewald energy   TEWEN  =      4859.35027869
  -Hartree energ DENC   =     -6131.55474661
  -exchange      EXHF   =         0.00000000
  -V(xc)+E(xc)   XCENC  =       164.32967027
  PAW double counting   =      1326.10784145    -1333.08577956
  entropy T*S    EENTRO =        -0.00000000
  eigenvalues    EBANDS =      -746.27866269
  atomic energy  EATOM  =      1839.30810466
  Solvation  Ediel_sol  =        -8.03314375
  ---------------------------------------------------
  free energy    TOTEN  =       -29.69864465 eV

  energy without entropy =      -29.69864465  energy(sigma->0) =      -29.69864465


--------------------------------------------------------------------------------------------------------




--------------------------------------- Iteration      1(   4)  ---------------------------------------


     EDDAV:  cpu time   21.0991: real time   21.1494
       DOS:  cpu time    0.0003: real time    0.0003
    --------------------------------------------
      LOOP:  cpu time   21.0994: real time   21.1497

 eigenvalue-minimisations  :   236
 total energy-change (2. order) :-0.6186913E+02  (-0.6169147E+02)
 number of electron      48.0000000 magnetization      18.0000000
 augmentation part       48.0000000 magnetization      18.0000000

 Free energy of the ion-electron system (eV)
  ---------------------------------------------------
  alpha Z        PSCENC =         0.15779290
  Ewald energy   TEWEN  =      4859.35027869
  -Hartree energ DENC   =     -6131.55474661
  -exchange      EXHF   =         0.00000000
  -V(xc)+E(xc)   XCENC  =       164.32967027
  PAW double counting   =      1326.10784145    -1333.08577956
  entropy T*S    EENTRO =        -0.00000148
  eigenvalues    EBANDS =      -808.14778778
  atomic energy  EATOM  =      1839.30810466
  Solvation  Ediel_sol  =        -8.03314375
  ---------------------------------------------------
  free energy    TOTEN  =       -91.56777122 eV

  energy without entropy =      -91.56776974  energy(sigma->0) =      -91.56777048


--------------------------------------------------------------------------------------------------------




--------------------------------------- Iteration      1(   5)  ---------------------------------------


     EDDAV:  cpu time   20.2950: real time   20.3391
       DOS:  cpu time    0.0003: real time    0.0003
    CHARGE:  cpu time    1.9294: real time    1.9311
    MIXING:  cpu time    0.1510: real time    0.1511
    --------------------------------------------
      LOOP:  cpu time   22.3758: real time   22.4217

 eigenvalue-minimisations  :   222
 total energy-change (2. order) :-0.2770622E+01  (-0.2745180E+01)
 number of electron      47.0000006 magnetization      17.3450277
 augmentation part        1.8670160 magnetization      16.4587034

 Broyden mixing:
  rms(total) = 0.27230E+01    rms(broyden)= 0.27225E+01
  rms(prec ) = 0.27469E+01
  weight for this iteration     100.00

 Free energy of the ion-electron system (eV)
  ---------------------------------------------------
  alpha Z        PSCENC =         0.15779290
  Ewald energy   TEWEN  =      4859.35027869
  -Hartree energ DENC   =     -6131.55474661
  -exchange      EXHF   =         0.00000000
  -V(xc)+E(xc)   XCENC  =       164.32967027
  PAW double counting   =      1326.10784145    -1333.08577956
  entropy T*S    EENTRO =        -0.00003591
  eigenvalues    EBANDS =      -810.91837585
  atomic energy  EATOM  =      1839.30810466
  Solvation  Ediel_sol  =        -8.03314375
  ---------------------------------------------------
  free energy    TOTEN  =       -94.33839371 eV

  energy without entropy =      -94.33835780  energy(sigma->0) =      -94.33837575


--------------------------------------------------------------------------------------------------------




--------------------------------------- Iteration      1(   6)  ---------------------------------------


    POTLOK:  cpu time  198.8751: real time  198.8132
    SETDIJ:  cpu time    0.0445: real time    0.0446
    EDDIAG:  cpu time    3.6610: real time    3.6676
  RMM-DIIS:  cpu time   13.5085: real time   13.5364
    ORTHCH:  cpu time    0.1339: real time    0.1342
       DOS:  cpu time    0.0005: real time    0.0005
    CHARGE:  cpu time    1.8959: real time    1.8994
    MIXING:  cpu time    0.1698: real time    0.1698
    --------------------------------------------
      LOOP:  cpu time  218.2891: real time  218.2657

 eigenvalue-minimisations  :   168
 total energy-change (2. order) : 0.4552986E+02  (-0.9870351E+01)
 number of electron      47.0000007 magnetization      16.6995910
 augmentation part        1.8582330 magnetization      15.6828421

 Broyden mixing:
  rms(total) = 0.13514E+01    rms(broyden)= 0.13510E+01
  rms(prec ) = 0.13688E+01
  weight for this iteration     100.00

 eigenvalues of (default mixing * dielectric matrix)
  average eigenvalue GAMMA=   0.9019
  0.9019

 Free energy of the ion-electron system (eV)
  ---------------------------------------------------
  alpha Z        PSCENC =         0.15779290
  Ewald energy   TEWEN  =      4859.35027869
  -Hartree energ DENC   =     -6196.22418443
  -exchange      EXHF   =         0.00000000
  -V(xc)+E(xc)   XCENC  =       209.85364896
  PAW double counting   =      2154.58320579    -2162.56810461
  entropy T*S    EENTRO =        -0.00000000
  eigenvalues    EBANDS =      -725.11387171
  atomic energy  EATOM  =      1839.30810466
  Solvation  Ediel_sol  =       -28.15540014
  ---------------------------------------------------
  free energy    TOTEN  =       -48.80852989 eV

  energy without entropy =      -48.80852989  energy(sigma->0) =      -48.80852989


--------------------------------------------------------------------------------------------------------




--------------------------------------- Iteration      1(   7)  ---------------------------------------


    POTLOK:  cpu time  196.8140: real time  196.7554
    SETDIJ:  cpu time    0.0444: real time    0.0445
    EDDIAG:  cpu time    3.6656: real time    3.6726
  RMM-DIIS:  cpu time   13.4987: real time   13.5260
    ORTHCH:  cpu time    0.1348: real time    0.1353
       DOS:  cpu time    0.0007: real time    0.0007
    CHARGE:  cpu time    1.9001: real time    1.9033
    MIXING:  cpu time    0.1768: real time    0.1771
    --------------------------------------------
      LOOP:  cpu time  216.2351: real time  216.2148

 eigenvalue-minimisations  :   168
 total energy-change (2. order) :-0.2810370E+02  (-0.2475120E+01)
 number of electron      47.0000007 magnetization      15.9277515
 augmentation part        1.7759432 magnetization      14.9157015

 Broyden mixing:
  rms(total) = 0.82868E+00    rms(broyden)= 0.82857E+00
  rms(prec ) = 0.83642E+00
  weight for this iteration     100.00

 eigenvalues of (default mixing * dielectric matrix)
  average eigenvalue GAMMA=   1.0177
  1.2263  0.8092

 Free energy of the ion-electron system (eV)
  ---------------------------------------------------
  alpha Z        PSCENC =         0.15779290
  Ewald energy   TEWEN  =      4859.35027869
  -Hartree energ DENC   =     -6238.57871993
  -exchange      EXHF   =         0.00000000
  -V(xc)+E(xc)   XCENC  =       189.56003923
  PAW double counting   =      2850.69513879    -2859.20478279
  entropy T*S    EENTRO =        -0.00000000
  eigenvalues    EBANDS =      -671.30756580
  atomic energy  EATOM  =      1839.30810466
  Solvation  Ediel_sol  =       -46.89251712
  ---------------------------------------------------
  free energy    TOTEN  =       -76.91223137 eV

  energy without entropy =      -76.91223137  energy(sigma->0) =      -76.91223137


--------------------------------------------------------------------------------------------------------




--------------------------------------- Iteration      1(   8)  ---------------------------------------


    POTLOK:  cpu time  199.2531: real time  199.2353
    SETDIJ:  cpu time    0.0448: real time    0.0449
    EDDIAG:  cpu time    3.6669: real time    3.6741
  RMM-DIIS:  cpu time   13.4946: real time   13.5218
    ORTHCH:  cpu time    0.1321: real time    0.1324
       DOS:  cpu time    0.0005: real time    0.0005
    CHARGE:  cpu time    1.9089: real time    1.9127
    MIXING:  cpu time    0.1927: real time    0.1928
    --------------------------------------------
      LOOP:  cpu time  218.6936: real time  218.7145

 eigenvalue-minimisations  :   169
 total energy-change (2. order) :-0.7818566E+01  (-0.5488143E+00)
 number of electron      47.0000007 magnetization      15.1231605
 augmentation part        1.7391817 magnetization      14.1345109

 Broyden mixing:
  rms(total) = 0.51610E+00    rms(broyden)= 0.51596E+00
  rms(prec ) = 0.52091E+00
  weight for this iteration     100.00

 eigenvalues of (default mixing * dielectric matrix)
  average eigenvalue GAMMA=   1.1142
  1.5694  1.0401  0.7332

 Free energy of the ion-electron system (eV)
  ---------------------------------------------------
  alpha Z        PSCENC =         0.15779290
  Ewald energy   TEWEN  =      4859.35027869
  -Hartree energ DENC   =     -6251.70896353
  -exchange      EXHF   =         0.00000000
  -V(xc)+E(xc)   XCENC  =       184.64742083
  PAW double counting   =      3468.36711002    -3477.00073325
  entropy T*S    EENTRO =        -0.00000000
  eigenvalues    EBANDS =      -641.67480823
  atomic energy  EATOM  =      1839.30810466
  Solvation  Ediel_sol  =       -66.17699904
  ---------------------------------------------------
  free energy    TOTEN  =       -84.73079696 eV

  energy without entropy =      -84.73079696  energy(sigma->0) =      -84.73079696


--------------------------------------------------------------------------------------------------------




--------------------------------------- Iteration      1(   9)  ---------------------------------------


    POTLOK:  cpu time  198.9261: real time  199.0172
    SETDIJ:  cpu time    0.0444: real time    0.0445
    EDDIAG:  cpu time    3.6446: real time    3.6518
  RMM-DIIS:  cpu time   13.4124: real time   13.4395
    ORTHCH:  cpu time    0.1344: real time    0.1348
       DOS:  cpu time    0.0005: real time    0.0005
    CHARGE:  cpu time    1.8901: real time    1.8938
    MIXING:  cpu time    0.1883: real time    0.1885
    --------------------------------------------
      LOOP:  cpu time  218.2408: real time  218.3705

 eigenvalue-minimisations  :   168
 total energy-change (2. order) :-0.8926412E+01  (-0.3922679E+00)
 number of electron      47.0000007 magnetization      14.2924304
 augmentation part        1.7352691 magnetization      13.3206572

 Broyden mixing:
  rms(total) = 0.32774E+00    rms(broyden)= 0.32770E+00
  rms(prec ) = 0.33172E+00
  weight for this iteration     100.00

 eigenvalues of (default mixing * dielectric matrix)
  average eigenvalue GAMMA=   1.2117
  2.1984  1.2566  0.7495  0.6421

 Free energy of the ion-electron system (eV)
  ---------------------------------------------------
  alpha Z        PSCENC =         0.15779290
  Ewald energy   TEWEN  =      4859.35027869
  -Hartree energ DENC   =     -6247.85378658
  -exchange      EXHF   =         0.00000000
  -V(xc)+E(xc)   XCENC  =       178.20237114
  PAW double counting   =      3841.85951597    -3850.43822104
  entropy T*S    EENTRO =        -0.00000000
  eigenvalues    EBANDS =      -632.10993899
  atomic energy  EATOM  =      1839.30810466
  Solvation  Ediel_sol  =       -82.13332529
  ---------------------------------------------------
  free energy    TOTEN  =       -93.65720853 eV

  energy without entropy =      -93.65720853  energy(sigma->0) =      -93.65720853


--------------------------------------------------------------------------------------------------------




--------------------------------------- Iteration      1(  10)  ---------------------------------------


    POTLOK:  cpu time  194.1716: real time  194.1976
    SETDIJ:  cpu time    0.0440: real time    0.0441
    EDDIAG:  cpu time    3.6453: real time    3.6525
  RMM-DIIS:  cpu time   13.3208: real time   13.3474
    ORTHCH:  cpu time    0.1323: real time    0.1326
       DOS:  cpu time    0.0003: real time    0.0003
    CHARGE:  cpu time    1.9117: real time    1.9148
    MIXING:  cpu time    0.1964: real time    0.1966
    --------------------------------------------
      LOOP:  cpu time  213.4225: real time  213.4860

 eigenvalue-minimisations  :   168
 total energy-change (2. order) :-0.4757694E+01  (-0.1537393E+00)
 number of electron      47.0000007 magnetization      13.6299970
 augmentation part        1.7318821 magnetization      12.6732809

 Broyden mixing:
  rms(total) = 0.23031E+00    rms(broyden)= 0.23026E+00
  rms(prec ) = 0.23481E+00
  weight for this iteration     100.00

 eigenvalues of (default mixing * dielectric matrix)
  average eigenvalue GAMMA=   1.2065
  2.3660  1.3399  0.8290  0.8290  0.6685

 Free energy of the ion-electron system (eV)
  ---------------------------------------------------
  alpha Z        PSCENC =         0.15779290
  Ewald energy   TEWEN  =      4859.35027869
  -Hartree energ DENC   =     -6238.52483203
  -exchange      EXHF   =         0.00000000
  -V(xc)+E(xc)   XCENC  =       174.50367241
  PAW double counting   =      4042.64248168    -4051.16121558
  entropy T*S    EENTRO =        -0.00000000
  eigenvalues    EBANDS =      -630.40882636
  atomic energy  EATOM  =      1839.30810466
  Solvation  Ediel_sol  =       -94.28235875
  ---------------------------------------------------
  free energy    TOTEN  =       -98.41490238 eV

  energy without entropy =      -98.41490238  energy(sigma->0) =      -98.41490238


--------------------------------------------------------------------------------------------------------




--------------------------------------- Iteration      1(  11)  ---------------------------------------


    POTLOK:  cpu time  189.2601: real time  189.2721
    SETDIJ:  cpu time    0.0446: real time    0.0447
    EDDIAG:  cpu time    3.6512: real time    3.6584
  RMM-DIIS:  cpu time   13.5725: real time   13.6008
    ORTHCH:  cpu time    0.1344: real time    0.1347
       DOS:  cpu time    0.0005: real time    0.0005
    CHARGE:  cpu time    1.9044: real time    1.9066
    MIXING:  cpu time    0.2086: real time    0.2086
    --------------------------------------------
      LOOP:  cpu time  208.7762: real time  208.8262

 eigenvalue-minimisations  :   169
 total energy-change (2. order) :-0.1604658E+01  (-0.5729450E-01)
 number of electron      47.0000007 magnetization      12.7513610
 augmentation part        1.7251762 magnetization      11.8057052

 Broyden mixing:
  rms(total) = 0.18238E+00    rms(broyden)= 0.18234E+00
  rms(prec ) = 0.18554E+00
  weight for this iteration     100.00

 eigenvalues of (default mixing * dielectric matrix)
  average eigenvalue GAMMA=   1.1991
  2.2698  1.8244  0.7995  0.7995  0.8497  0.6514

 Free energy of the ion-electron system (eV)
  ---------------------------------------------------
  alpha Z        PSCENC =         0.15779290
  Ewald energy   TEWEN  =      4859.35027869
  -Hartree energ DENC   =     -6229.88984541
  -exchange      EXHF   =         0.00000000
  -V(xc)+E(xc)   XCENC  =       173.17420510
  PAW double counting   =      4054.16105879    -4062.66327290
  entropy T*S    EENTRO =        -0.00000000
  eigenvalues    EBANDS =      -633.14685439
  atomic energy  EATOM  =      1839.30810466
  Solvation  Ediel_sol  =      -100.47102759
  ---------------------------------------------------
  free energy    TOTEN  =      -100.01956015 eV

  energy without entropy =     -100.01956015  energy(sigma->0) =     -100.01956015


--------------------------------------------------------------------------------------------------------




--------------------------------------- Iteration      1(  12)  ---------------------------------------


    POTLOK:  cpu time  186.8304: real time  186.7976
    SETDIJ:  cpu time    0.0441: real time    0.0442
    EDDIAG:  cpu time    3.6569: real time    3.6637
  RMM-DIIS:  cpu time   13.6797: real time   13.7079
    ORTHCH:  cpu time    0.1335: real time    0.1338
       DOS:  cpu time    0.0006: real time    0.0006
    CHARGE:  cpu time    1.9079: real time    1.9113
    MIXING:  cpu time    0.2269: real time    0.2270
    --------------------------------------------
      LOOP:  cpu time  206.4801: real time  206.4862

 eigenvalue-minimisations  :   168
 total energy-change (2. order) :-0.2025692E+01  (-0.4135956E-01)
 number of electron      47.0000007 magnetization      10.9892309
 augmentation part        1.7230412 magnetization      10.0520780

 Broyden mixing:
  rms(total) = 0.14109E+00    rms(broyden)= 0.14109E+00
  rms(prec ) = 0.14381E+00
  weight for this iteration     100.00

 eigenvalues of (default mixing * dielectric matrix)
  average eigenvalue GAMMA=   1.4277
  3.2367  2.3885  1.3100  0.8109  0.8109  0.8081  0.6287

 Free energy of the ion-electron system (eV)
  ---------------------------------------------------
  alpha Z        PSCENC =         0.15779290
  Ewald energy   TEWEN  =      4859.35027869
  -Hartree energ DENC   =     -6218.07115729
  -exchange      EXHF   =         0.00000000
  -V(xc)+E(xc)   XCENC  =       171.27470526
  PAW double counting   =      4024.57967781    -4033.06027422
  entropy T*S    EENTRO =        -0.00000000
  eigenvalues    EBANDS =      -638.04082877
  atomic energy  EATOM  =      1839.30810466
  Solvation  Ediel_sol  =      -107.54355085
  ---------------------------------------------------
  free energy    TOTEN  =      -102.04525179 eV

  energy without entropy =     -102.04525179  energy(sigma->0) =     -102.04525179


--------------------------------------------------------------------------------------------------------




--------------------------------------- Iteration      1(  13)  ---------------------------------------


    POTLOK:  cpu time  191.8217: real time  191.7976
    SETDIJ:  cpu time    0.0440: real time    0.0441
    EDDIAG:  cpu time    3.6368: real time    3.6441
  RMM-DIIS:  cpu time   13.3994: real time   13.4271
    ORTHCH:  cpu time    0.1311: real time    0.1314
       DOS:  cpu time    0.0005: real time    0.0005
    CHARGE:  cpu time    1.9106: real time    1.9142
    MIXING:  cpu time    0.2420: real time    0.2422
    --------------------------------------------
      LOOP:  cpu time  211.1862: real time  211.2012

 eigenvalue-minimisations  :   168
 total energy-change (2. order) :-0.2043826E+01  (-0.7747774E-01)
 number of electron      47.0000007 magnetization      10.0977409
 augmentation part        1.7251090 magnetization       9.1677032

 Broyden mixing:
  rms(total) = 0.91187E-01    rms(broyden)= 0.91109E-01
  rms(prec ) = 0.93115E-01
  weight for this iteration     100.00

 eigenvalues of (default mixing * dielectric matrix)
  average eigenvalue GAMMA=   1.5273
  4.6161  2.2283  1.5467  0.7823  0.7823  0.8971  0.7447  0.6209

 Free energy of the ion-electron system (eV)
  ---------------------------------------------------
  alpha Z        PSCENC =         0.15779290
  Ewald energy   TEWEN  =      4859.35027869
  -Hartree energ DENC   =     -6197.26725662
  -exchange      EXHF   =         0.00000000
  -V(xc)+E(xc)   XCENC  =       169.28410198
  PAW double counting   =      3983.78425351    -3992.24595852
  entropy T*S    EENTRO =        -0.00000000
  eigenvalues    EBANDS =      -645.30176768
  atomic energy  EATOM  =      1839.30810466
  Solvation  Ediel_sol  =      -121.15862665
  ---------------------------------------------------
  free energy    TOTEN  =      -104.08907774 eV

  energy without entropy =     -104.08907774  energy(sigma->0) =     -104.08907774


--------------------------------------------------------------------------------------------------------




--------------------------------------- Iteration      1(  14)  ---------------------------------------


    POTLOK:  cpu time  184.2709: real time  184.4822
    SETDIJ:  cpu time    0.0443: real time    0.0444
    EDDIAG:  cpu time    3.6363: real time    3.6438
  RMM-DIIS:  cpu time   13.4608: real time   13.4887
    ORTHCH:  cpu time    0.1316: real time    0.1320
       DOS:  cpu time    0.0005: real time    0.0005
    CHARGE:  cpu time    1.8872: real time    1.8911
    MIXING:  cpu time    0.2578: real time    0.2583
    --------------------------------------------
      LOOP:  cpu time  203.6893: real time  203.9408

 eigenvalue-minimisations  :   168
 total energy-change (2. order) :-0.5039010E+00  (-0.1776701E-01)
 number of electron      47.0000007 magnetization       8.9983137
 augmentation part        1.7232390 magnetization       8.0737128

 Broyden mixing:
  rms(total) = 0.63227E-01    rms(broyden)= 0.63222E-01
  rms(prec ) = 0.64345E-01
  weight for this iteration     100.00

 eigenvalues of (default mixing * dielectric matrix)
  average eigenvalue GAMMA=   1.6740
  6.0176  2.0595  2.0595  1.2465  0.7735  0.7735  0.7943  0.6221  0.7199

 Free energy of the ion-electron system (eV)
  ---------------------------------------------------
  alpha Z        PSCENC =         0.15779290
  Ewald energy   TEWEN  =      4859.35027869
  -Hartree energ DENC   =     -6189.76872156
  -exchange      EXHF   =         0.00000000
  -V(xc)+E(xc)   XCENC  =       168.78135743
  PAW double counting   =      3976.28229436    -3984.75710896
  entropy T*S    EENTRO =        -0.00000000
  eigenvalues    EBANDS =      -646.72425818
  atomic energy  EATOM  =      1839.30810466
  Solvation  Ediel_sol  =      -127.22271807
  ---------------------------------------------------
  free energy    TOTEN  =      -104.59297872 eV

  energy without entropy =     -104.59297872  energy(sigma->0) =     -104.59297872


--------------------------------------------------------------------------------------------------------




--------------------------------------- Iteration      1(  15)  ---------------------------------------


    POTLOK:  cpu time  184.3340: real time  184.4811
    SETDIJ:  cpu time    0.0440: real time    0.0441
    EDDIAG:  cpu time    3.6268: real time    3.6342
  RMM-DIIS:  cpu time   13.6133: real time   13.6511
    ORTHCH:  cpu time    0.1339: real time    0.1342
       DOS:  cpu time    0.0005: real time    0.0005
    CHARGE:  cpu time    1.9005: real time    1.9056
    MIXING:  cpu time    0.2619: real time    0.2624
    --------------------------------------------
      LOOP:  cpu time  203.9150: real time  204.1131

 eigenvalue-minimisations  :   170
 total energy-change (2. order) :-0.5807673E+00  (-0.9766108E-02)
 number of electron      47.0000007 magnetization       8.2316286
 augmentation part        1.7220608 magnetization       7.3109636

 Broyden mixing:
  rms(total) = 0.46218E-01    rms(broyden)= 0.46213E-01
  rms(prec ) = 0.46814E-01
  weight for this iteration     100.00

 eigenvalues of (default mixing * dielectric matrix)
  average eigenvalue GAMMA=   1.7271
  6.8947  2.2029  2.2029  1.3797  0.7774  0.7774  0.8588  0.8588  0.6239  0.6949

 Free energy of the ion-electron system (eV)
  ---------------------------------------------------
  alpha Z        PSCENC =         0.15779290
  Ewald energy   TEWEN  =      4859.35027869
  -Hartree energ DENC   =     -6181.92069617
  -exchange      EXHF   =         0.00000000
  -V(xc)+E(xc)   XCENC  =       168.16359498
  PAW double counting   =      3965.33149033    -3973.81911490
  entropy T*S    EENTRO =        -0.00000000
  eigenvalues    EBANDS =      -648.24953139
  atomic energy  EATOM  =      1839.30810466
  Solvation  Ediel_sol  =      -133.49566515
  ---------------------------------------------------
  free energy    TOTEN  =      -105.17374605 eV

  energy without entropy =     -105.17374605  energy(sigma->0) =     -105.17374605


--------------------------------------------------------------------------------------------------------




--------------------------------------- Iteration      1(  16)  ---------------------------------------


    POTLOK:  cpu time  179.5139: real time  179.5354
    SETDIJ:  cpu time    0.0454: real time    0.0455
    EDDIAG:  cpu time    3.6329: real time    3.6402
  RMM-DIIS:  cpu time   13.3415: real time   13.3688
    ORTHCH:  cpu time    0.1317: real time    0.1322
       DOS:  cpu time    0.0004: real time    0.0004
    CHARGE:  cpu time    1.9045: real time    1.9085
    MIXING:  cpu time    0.2771: real time    0.2775
    --------------------------------------------
      LOOP:  cpu time  198.8474: real time  198.9084

 eigenvalue-minimisations  :   168
 total energy-change (2. order) :-0.2487644E+00  (-0.1530746E-02)
 number of electron      47.0000007 magnetization       7.2004669
 augmentation part        1.7222095 magnetization       6.2808248

 Broyden mixing:
  rms(total) = 0.36872E-01    rms(broyden)= 0.36866E-01
  rms(prec ) = 0.37171E-01
  weight for this iteration     100.00

 eigenvalues of (default mixing * dielectric matrix)
  average eigenvalue GAMMA=   1.8418
  7.8104  2.8339  1.9709  1.9709  1.1695  0.7698  0.7698  0.8773  0.7998  0.6642
  0.6238

 Free energy of the ion-electron system (eV)
  ---------------------------------------------------
  alpha Z        PSCENC =         0.15779290
  Ewald energy   TEWEN  =      4859.35027869
  -Hartree energ DENC   =     -6177.42659568
  -exchange      EXHF   =         0.00000000
  -V(xc)+E(xc)   XCENC  =       167.87568964
  PAW double counting   =      3961.67347189    -3970.16004368
  entropy T*S    EENTRO =        -0.00000000
  eigenvalues    EBANDS =      -649.23836000
  atomic energy  EATOM  =      1839.30810466
  Solvation  Ediel_sol  =      -136.96284892
  ---------------------------------------------------
  free energy    TOTEN  =      -105.42251049 eV

  energy without entropy =     -105.42251049  energy(sigma->0) =     -105.42251049


--------------------------------------------------------------------------------------------------------




--------------------------------------- Iteration      1(  17)  ---------------------------------------


    POTLOK:  cpu time  179.6081: real time  179.5954
    SETDIJ:  cpu time    0.0444: real time    0.0445
    EDDIAG:  cpu time    3.6367: real time    3.6440
  RMM-DIIS:  cpu time   13.5634: real time   13.5911
    ORTHCH:  cpu time    0.1355: real time    0.1358
       DOS:  cpu time    0.0005: real time    0.0005
    CHARGE:  cpu time    1.9137: real time    1.9168
    MIXING:  cpu time    0.3018: real time    0.3019
    --------------------------------------------
      LOOP:  cpu time  199.2041: real time  199.2300

 eigenvalue-minimisations  :   170
 total energy-change (2. order) :-0.2369948E+00  (-0.6944883E-03)
 number of electron      47.0000007 magnetization       6.4198483
 augmentation part        1.7223943 magnetization       5.5008233

 Broyden mixing:
  rms(total) = 0.27795E-01    rms(broyden)= 0.27792E-01
  rms(prec ) = 0.27899E-01
  weight for this iteration     100.00

 eigenvalues of (default mixing * dielectric matrix)
  average eigenvalue GAMMA=   1.9062
  8.5506  3.6005  2.0081  2.0081  1.2103  0.7735  0.7735  0.9605  0.9605  0.7553
  0.6487  0.6243

 Free energy of the ion-electron system (eV)
  ---------------------------------------------------
  alpha Z        PSCENC =         0.15779290
  Ewald energy   TEWEN  =      4859.35027869
  -Hartree energ DENC   =     -6172.93028758
  -exchange      EXHF   =         0.00000000
  -V(xc)+E(xc)   XCENC  =       167.60625088
  PAW double counting   =      3965.50316745    -3973.98581599
  entropy T*S    EENTRO =        -0.00000000
  eigenvalues    EBANDS =      -649.86290802
  atomic energy  EATOM  =      1839.30810466
  Solvation  Ediel_sol  =      -140.80608825
  ---------------------------------------------------
  free energy    TOTEN  =      -105.65950527 eV

  energy without entropy =     -105.65950527  energy(sigma->0) =     -105.65950527


--------------------------------------------------------------------------------------------------------




--------------------------------------- Iteration      1(  18)  ---------------------------------------


    POTLOK:  cpu time  174.5212: real time  174.6942
    SETDIJ:  cpu time    0.0444: real time    0.0445
    EDDIAG:  cpu time    3.8253: real time    3.8334
  RMM-DIIS:  cpu time   13.4880: real time   13.5160
    ORTHCH:  cpu time    0.1354: real time    0.1357
       DOS:  cpu time    0.0005: real time    0.0005
    CHARGE:  cpu time    1.8932: real time    1.8973
    MIXING:  cpu time    0.3195: real time    0.3201
    --------------------------------------------
      LOOP:  cpu time  194.2275: real time  194.4417

 eigenvalue-minimisations  :   168
 total energy-change (2. order) :-0.1032200E+00  (-0.1451944E-03)
 number of electron      47.0000007 magnetization       5.5916199
 augmentation part        1.7225553 magnetization       4.6726699

 Broyden mixing:
  rms(total) = 0.23018E-01    rms(broyden)= 0.23018E-01
  rms(prec ) = 0.23051E-01
  weight for this iteration     100.00

 eigenvalues of (default mixing * dielectric matrix)
  average eigenvalue GAMMA=   1.9869
  9.3136  4.3505  2.0523  2.0523  1.6342  0.7727  0.7727  1.0242  1.0242  0.8372
  0.7314  0.6245  0.6394

 Free energy of the ion-electron system (eV)
  ---------------------------------------------------
  alpha Z        PSCENC =         0.15779290
  Ewald energy   TEWEN  =      4859.35027869
  -Hartree energ DENC   =     -6170.92990447
  -exchange      EXHF   =         0.00000000
  -V(xc)+E(xc)   XCENC  =       167.49804816
  PAW double counting   =      3971.27560120    -3979.75835879
  entropy T*S    EENTRO =        -0.00000000
  eigenvalues    EBANDS =      -649.70098658
  atomic energy  EATOM  =      1839.30810466
  Solvation  Ediel_sol  =      -142.96330107
  ---------------------------------------------------
  free energy    TOTEN  =      -105.76272528 eV

  energy without entropy =     -105.76272528  energy(sigma->0) =     -105.76272528


--------------------------------------------------------------------------------------------------------




--------------------------------------- Iteration      1(  19)  ---------------------------------------


    POTLOK:  cpu time  174.4803: real time  174.6462
    SETDIJ:  cpu time    0.0449: real time    0.0450
    EDDIAG:  cpu time    3.6480: real time    3.6557
  RMM-DIIS:  cpu time   13.5369: real time   13.5644
    ORTHCH:  cpu time    0.1345: real time    0.1348
       DOS:  cpu time    0.0008: real time    0.0008
    CHARGE:  cpu time    1.9065: real time    1.9104
    MIXING:  cpu time    0.3486: real time    0.3490
    --------------------------------------------
      LOOP:  cpu time  194.1007: real time  194.3064

 eigenvalue-minimisations  :   169
 total energy-change (2. order) :-0.6397441E-01  (-0.6615734E-04)
 number of electron      47.0000007 magnetization       4.7934927
 augmentation part        1.7226742 magnetization       3.8743720

 Broyden mixing:
  rms(total) = 0.19232E-01    rms(broyden)= 0.19232E-01
  rms(prec ) = 0.19258E-01
  weight for this iteration     100.00

 eigenvalues of (default mixing * dielectric matrix)
  average eigenvalue GAMMA=   2.0459
  9.9088  4.9540  2.3219  2.3219  1.6873  1.1324  1.0115  1.0115  0.7739  0.7739
  0.7774  0.7099  0.6225  0.6361

 Free energy of the ion-electron system (eV)
  ---------------------------------------------------
  alpha Z        PSCENC =         0.15779290
  Ewald energy   TEWEN  =      4859.35027869
  -Hartree energ DENC   =     -6169.85669448
  -exchange      EXHF   =         0.00000000
  -V(xc)+E(xc)   XCENC  =       167.43325627
  PAW double counting   =      3975.01240280    -3983.49494493
  entropy T*S    EENTRO =        -0.00000000
  eigenvalues    EBANDS =      -649.37707487
  atomic energy  EATOM  =      1839.30810466
  Solvation  Ediel_sol  =      -144.35982073
  ---------------------------------------------------
  free energy    TOTEN  =      -105.82669969 eV

  energy without entropy =     -105.82669969  energy(sigma->0) =     -105.82669969


--------------------------------------------------------------------------------------------------------




--------------------------------------- Iteration      1(  20)  ---------------------------------------


    POTLOK:  cpu time  172.2759: real time  172.4546
    SETDIJ:  cpu time    0.0442: real time    0.0444
    EDDIAG:  cpu time    3.6288: real time    3.6363
  RMM-DIIS:  cpu time   13.3650: real time   13.3924
    ORTHCH:  cpu time    0.1349: real time    0.1352
       DOS:  cpu time    0.0005: real time    0.0005
    CHARGE:  cpu time    1.8817: real time    1.8857
    MIXING:  cpu time    0.3485: real time    0.3491
    --------------------------------------------
      LOOP:  cpu time  191.6796: real time  191.8981

 eigenvalue-minimisations  :   168
 total energy-change (2. order) :-0.2300329E-01  (-0.2044308E-04)
 number of electron      47.0000007 magnetization       3.7170611
 augmentation part        1.7226238 magnetization       2.7979275

 Broyden mixing:
  rms(total) = 0.16139E-01    rms(broyden)= 0.16139E-01
  rms(prec ) = 0.16173E-01
  weight for this iteration     100.00

 eigenvalues of (default mixing * dielectric matrix)
  average eigenvalue GAMMA=   2.1226
 10.4760  5.7056  2.9526  2.2315  1.8020  1.3976  1.0565  1.0565  0.7735  0.7735
  0.8781  0.7834  0.7011  0.6209  0.6303

 Free energy of the ion-electron system (eV)
  ---------------------------------------------------
  alpha Z        PSCENC =         0.15779290
  Ewald energy   TEWEN  =      4859.35027869
  -Hartree energ DENC   =     -6169.38559143
  -exchange      EXHF   =         0.00000000
  -V(xc)+E(xc)   XCENC  =       167.40995007
  PAW double counting   =      3974.59811340    -3983.08074603
  entropy T*S    EENTRO =        -0.00000000
  eigenvalues    EBANDS =      -649.22499692
  atomic energy  EATOM  =      1839.30810466
  Solvation  Ediel_sol  =      -144.98260832
  ---------------------------------------------------
  free energy    TOTEN  =      -105.84970298 eV

  energy without entropy =     -105.84970298  energy(sigma->0) =     -105.84970298


--------------------------------------------------------------------------------------------------------




--------------------------------------- Iteration      1(  21)  ---------------------------------------


    POTLOK:  cpu time  169.6444: real time  169.8033
    SETDIJ:  cpu time    0.0443: real time    0.0445
    EDDIAG:  cpu time    3.6498: real time    3.6574
  RMM-DIIS:  cpu time   13.4266: real time   13.4547
    ORTHCH:  cpu time    0.1324: real time    0.1327
       DOS:  cpu time    0.0007: real time    0.0007
    CHARGE:  cpu time    1.8898: real time    1.8937
    MIXING:  cpu time    0.3816: real time    0.3824
    --------------------------------------------
      LOOP:  cpu time  189.1695: real time  189.3693

 eigenvalue-minimisations  :   168
 total energy-change (2. order) :-0.8845946E-02  (-0.3830522E-04)
 number of electron      47.0000007 magnetization       2.8052076
 augmentation part        1.7225008 magnetization       1.8862060

 Broyden mixing:
  rms(total) = 0.12468E-01    rms(broyden)= 0.12468E-01
  rms(prec ) = 0.12522E-01
  weight for this iteration     100.00

 eigenvalues of (default mixing * dielectric matrix)
  average eigenvalue GAMMA=   2.2190
 11.2553  6.5810  3.5550  2.1546  2.1546  1.5913  1.0957  1.0277  1.0277  0.7739
  0.7739  0.7866  0.7866  0.6950  0.6185  0.6263

 Free energy of the ion-electron system (eV)
  ---------------------------------------------------
  alpha Z        PSCENC =         0.15779290
  Ewald energy   TEWEN  =      4859.35027869
  -Hartree energ DENC   =     -6169.37801839
  -exchange      EXHF   =         0.00000000
  -V(xc)+E(xc)   XCENC  =       167.40605013
  PAW double counting   =      3972.21418951    -3980.69807462
  entropy T*S    EENTRO =        -0.00000000
  eigenvalues    EBANDS =      -649.13720659
  atomic energy  EATOM  =      1839.30810466
  Solvation  Ediel_sol  =      -145.08166522
  ---------------------------------------------------
  free energy    TOTEN  =      -105.85854893 eV

  energy without entropy =     -105.85854893  energy(sigma->0) =     -105.85854893


--------------------------------------------------------------------------------------------------------




--------------------------------------- Iteration      1(  22)  ---------------------------------------


    POTLOK:  cpu time  164.9742: real time  165.1448
    SETDIJ:  cpu time    0.0444: real time    0.0445
    EDDIAG:  cpu time    3.6533: real time    3.6608
  RMM-DIIS:  cpu time   13.4665: real time   13.4947
    ORTHCH:  cpu time    0.1343: real time    0.1346
       DOS:  cpu time    0.0006: real time    0.0006
    CHARGE:  cpu time    1.9055: real time    1.9094
    MIXING:  cpu time    0.3963: real time    0.3968
    --------------------------------------------
      LOOP:  cpu time  184.5751: real time  184.7862

 eigenvalue-minimisations  :   166
 total energy-change (2. order) :-0.3762888E-02  (-0.5557146E-04)
 number of electron      47.0000007 magnetization       1.8864352
 augmentation part        1.7224739 magnetization       0.9675189

 Broyden mixing:
  rms(total) = 0.91847E-02    rms(broyden)= 0.91845E-02
  rms(prec ) = 0.92554E-02
  weight for this iteration     100.00

 eigenvalues of (default mixing * dielectric matrix)
  average eigenvalue GAMMA=   2.3727
 12.8211  7.6584  4.1871  2.3279  2.3279  1.6850  1.2196  1.0719  1.0719  0.7737
  0.7737  0.9618  0.7990  0.7362  0.6811  0.6130  0.6258

 Free energy of the ion-electron system (eV)
  ---------------------------------------------------
  alpha Z        PSCENC =         0.15779290
  Ewald energy   TEWEN  =      4859.35027869
  -Hartree energ DENC   =     -6169.66022677
  -exchange      EXHF   =         0.00000000
  -V(xc)+E(xc)   XCENC  =       167.40615751
  PAW double counting   =      3970.57366035    -3979.05860222
  entropy T*S    EENTRO =        -0.00000000
  eigenvalues    EBANDS =      -649.13333713
  atomic energy  EATOM  =      1839.30810466
  Solvation  Ediel_sol  =      -144.80613982
  ---------------------------------------------------
  free energy    TOTEN  =      -105.86231181 eV

  energy without entropy =     -105.86231181  energy(sigma->0) =     -105.86231181


--------------------------------------------------------------------------------------------------------




--------------------------------------- Iteration      1(  23)  ---------------------------------------


    POTLOK:  cpu time  167.4203: real time  167.5587
    SETDIJ:  cpu time    0.0441: real time    0.0442
    EDDIAG:  cpu time    3.6413: real time    3.6484
  RMM-DIIS:  cpu time   13.2602: real time   13.2869
    ORTHCH:  cpu time    0.1329: real time    0.1332
       DOS:  cpu time    0.0005: real time    0.0005
    CHARGE:  cpu time    1.8939: real time    1.8974
    MIXING:  cpu time    0.4181: real time    0.4183
    --------------------------------------------
      LOOP:  cpu time  186.8114: real time  186.9877

 eigenvalue-minimisations  :   166
 total energy-change (2. order) :-0.6092034E-02  (-0.4832608E-04)
 number of electron      47.0000007 magnetization       1.4157882
 augmentation part        1.7225927 magnetization       0.4968639

 Broyden mixing:
  rms(total) = 0.57039E-02    rms(broyden)= 0.57037E-02
  rms(prec ) = 0.57747E-02
  weight for this iteration     100.00

 eigenvalues of (default mixing * dielectric matrix)
  average eigenvalue GAMMA=   2.6041
 16.2247  8.6689  4.7783  2.6468  2.1935  1.9774  1.4526  1.0425  1.0425  1.0605
  0.7738  0.7738  0.8205  0.8205  0.7042  0.6598  0.6260  0.6075

 Free energy of the ion-electron system (eV)
  ---------------------------------------------------
  alpha Z        PSCENC =         0.15779290
  Ewald energy   TEWEN  =      4859.35027869
  -Hartree energ DENC   =     -6170.09128367
  -exchange      EXHF   =         0.00000000
  -V(xc)+E(xc)   XCENC  =       167.40033999
  PAW double counting   =      3970.19849439    -3978.68247048
  entropy T*S    EENTRO =        -0.00000000
  eigenvalues    EBANDS =      -649.23272958
  atomic energy  EATOM  =      1839.30810466
[...]




--------------------------------------- Iteration     56(   3)  ---------------------------------------


    POTLOK:  cpu time  155.1868: real time  155.3760
    SETDIJ:  cpu time    0.0444: real time    0.0445
    EDDIAG:  cpu time    3.6446: real time    3.6521
  RMM-DIIS:  cpu time    9.9111: real time    9.9316
    ORTHCH:  cpu time    0.1340: real time    0.1343
       DOS:  cpu time    0.0005: real time    0.0005
    CHARGE:  cpu time    1.8917: real time    1.8957
    MIXING:  cpu time    0.1741: real time    0.1742
    --------------------------------------------
      LOOP:  cpu time  170.9872: real time  171.2088

 eigenvalue-minimisations  :   120
 total energy-change (2. order) :-0.1053000E-04  (-0.6385765E-06)
 number of electron      47.0000008 magnetization       1.0000000
 augmentation part        1.7372162 magnetization       0.0788251

 Broyden mixing:
  rms(total) = 0.65156E-03    rms(broyden)= 0.65151E-03
  rms(prec ) = 0.65955E-03
  weight for this iteration     100.00

 eigenvalues of (default mixing * dielectric matrix)
  average eigenvalue GAMMA=   1.3256
  0.7168  1.9343

 Free energy of the ion-electron system (eV)
  ---------------------------------------------------
  alpha Z        PSCENC =         0.15779290
  Ewald energy   TEWEN  =      4869.93106756
  -Hartree energ DENC   =     -6183.24626381
  -exchange      EXHF   =         0.00000000
  -V(xc)+E(xc)   XCENC  =       167.51528359
  PAW double counting   =      4007.20307602    -4015.72917431
  entropy T*S    EENTRO =        -0.00000000
  eigenvalues    EBANDS =      -649.11505050
  atomic energy  EATOM  =      1839.30810466
  Solvation  Ediel_sol  =      -142.18325923
  ---------------------------------------------------
  free energy    TOTEN  =      -106.15842312 eV

  energy without entropy =     -106.15842312  energy(sigma->0) =     -106.15842312


--------------------------------------------------------------------------------------------------------




--------------------------------------- Iteration     56(   4)  ---------------------------------------


    POTLOK:  cpu time  155.4064: real time  155.3468
    SETDIJ:  cpu time    0.0466: real time    0.0467
    EDDIAG:  cpu time    3.6438: real time    3.6507
  RMM-DIIS:  cpu time    9.9001: real time    9.9195
    ORTHCH:  cpu time    0.1318: real time    0.1321
       DOS:  cpu time    0.0003: real time    0.0003
    --------------------------------------------
      LOOP:  cpu time  169.1289: real time  169.0960

 eigenvalue-minimisations  :   119
 total energy-change (2. order) :-0.9837263E-05  (-0.3926956E-06)
 number of electron      47.0000008 magnetization       1.0000000
 augmentation part        1.7372162 magnetization       0.0788251

 Free energy of the ion-electron system (eV)
  ---------------------------------------------------
  alpha Z        PSCENC =         0.15779290
  Ewald energy   TEWEN  =      4869.93106756
  -Hartree energ DENC   =     -6183.24446358
  -exchange      EXHF   =         0.00000000
  -V(xc)+E(xc)   XCENC  =       167.51511211
  PAW double counting   =      4007.01360141    -4015.53949134
  entropy T*S    EENTRO =        -0.00000000
  eigenvalues    EBANDS =      -649.11934786
  atomic energy  EATOM  =      1839.30810466
  Solvation  Ediel_sol  =      -142.18080882
  ---------------------------------------------------
  free energy    TOTEN  =      -106.15843295 eV

  energy without entropy =     -106.15843295  energy(sigma->0) =     -106.15843295


--------------------------------------------------------------------------------------------------------




 average (electrostatic) potential at core
  the test charge radii are     0.6991  0.7089  0.7215  0.5201
  (the norm of the test charge is              1.0000)
       1 -59.8373       2 -59.6401       3 -59.9506       4 -61.1816       5 -59.4705
       6 -61.1606       7 -59.9012       8 -75.4201       9 -82.0128      10 -44.7354
      11 -44.7492      12 -42.7456      13 -42.2921      14 -42.2884      15 -42.2845
      16 -42.9186      17 -42.5998      18 -42.8234
 
 
 
 E-fermi :  -5.9137     XC(G=0):  -0.0439     alpha+bet : -0.0173


 spin component 1

 k-point     1 :       0.0000    0.0000    0.0000
  band No.  band energies     occupation 
      1     -27.3905      1.00000
      2     -24.5767      1.00000
      3     -21.8128      1.00000
      4     -19.6217      1.00000
      5     -18.9842      1.00000
      6     -17.8122      1.00000
      7     -16.1006      1.00000
      8     -15.6033      1.00000
      9     -14.0271      1.00000
     10     -13.8331      1.00000
     11     -12.7800      1.00000
     12     -12.4559      1.00000
     13     -11.9674      1.00000
     14     -11.7969      1.00000
     15     -11.0998      1.00000
     16     -10.7773      1.00000
     17     -10.4014      1.00000
     18      -9.8549      1.00000
     19      -9.5134      1.00000
     20      -9.3495      1.00000
     21      -8.3603      1.00000
     22      -8.3221      1.00000
     23      -6.4201      1.00000
     24      -6.2760      1.00000
     25      -1.9127      0.00000
     26      -1.7058      0.00000
     27      -0.4532      0.00000
     28      -0.1199      0.00000
     29      -0.0644      0.00000
     30      -0.0058      0.00000
     31       0.0513      0.00000
     32       0.0782      0.00000
     33       0.0803      0.00000
     34       0.0901      0.00000
     35       0.0942      0.00000
     36       0.1068      0.00000
     37       0.1193      0.00000
     38       0.1610      0.00000
     39       0.1696      0.00000
     40       0.1713      0.00000
     41       0.1718      0.00000
     42       0.1732      0.00000

 spin component 2

 k-point     1 :       0.0000    0.0000    0.0000
  band No.  band energies     occupation 
      1     -27.3724      1.00000
      2     -24.3127      1.00000
      3     -21.6388      1.00000
      4     -19.5622      1.00000
      5     -18.7118      1.00000
      6     -17.7358      1.00000
      7     -16.0098      1.00000
      8     -15.5144      1.00000
      9     -13.9896      1.00000
     10     -13.7375      1.00000
     11     -12.6850      1.00000
     12     -12.3863      1.00000
     13     -11.8942      1.00000
     14     -11.7321      1.00000
     15     -11.0806      1.00000
     16     -10.3906      1.00000
     17     -10.3677      1.00000
     18      -9.7964      1.00000
     19      -9.4693      1.00000
     20      -9.0466      1.00000
     21      -8.3275      1.00000
     22      -8.0152      1.00000
     23      -6.2053      1.00000
     24      -5.4036      0.00000
     25      -1.6802      0.00000
     26      -1.2607      0.00000
     27      -0.4227      0.00000
     28      -0.0957      0.00000
     29      -0.0598      0.00000
     30      -0.0055      0.00000
     31       0.0559      0.00000
     32       0.0781      0.00000
     33       0.0807      0.00000
     34       0.0917      0.00000
     35       0.0940      0.00000
     36       0.1080      0.00000
     37       0.1254      0.00000
     38       0.1641      0.00000
     39       0.1693      0.00000
     40       0.1709      0.00000
     41       0.1715      0.00000
     42       0.1748      0.00000


--------------------------------------------------------------------------------------------------------


 soft charge-density along one line, spin component           1
         0         1         2         3         4         5         6         7         8         9
 total charge-density along one line
 
 soft charge-density along one line, spin component           2
         0         1         2         3         4         5         6         7         8         9
 total charge-density along one line
 
 pseudopotential strength for first ion, spin component:           1
 10.345  13.761  -0.002  -0.000  -0.002   0.007   0.000   0.006
 13.761  18.302  -0.003  -0.000  -0.002   0.010   0.000   0.007
 -0.002  -0.003  -4.437   0.000   0.001   8.674  -0.000  -0.002
 -0.000  -0.000   0.000  -4.454  -0.000  -0.000   8.708   0.001
 -0.002  -0.002   0.001  -0.000  -4.436  -0.002   0.001   8.671
  0.007   0.010   8.674  -0.000  -0.002 -19.098   0.001   0.002
  0.000   0.000  -0.000   8.708   0.001   0.001 -19.168  -0.002
  0.006   0.007  -0.002   0.001   8.671   0.002  -0.002 -19.090
 pseudopotential strength for first ion, spin component:           2
 10.294  13.690  -0.002   0.000  -0.002   0.007  -0.000   0.006
 13.690  18.207  -0.003   0.000  -0.002   0.009  -0.000   0.007
 -0.002  -0.003  -4.437  -0.001   0.001   8.684   0.001  -0.002
  0.000   0.000  -0.001  -4.405   0.001   0.001   8.631  -0.001
 -0.002  -0.002   0.001   0.001  -4.435  -0.002  -0.001   8.680
  0.007   0.009   8.684   0.001  -0.002 -19.138  -0.001   0.002
 -0.000  -0.000   0.001   8.631  -0.001  -0.001 -19.053   0.001
  0.006   0.007  -0.002  -0.001   8.680   0.002   0.001 -19.129
 total augmentation occupancy for first ion, spin component:           1
  7.714  -3.325  -0.018   0.003  -0.243  -0.011   0.001  -0.049
 -3.325   1.478   0.044  -0.002   0.164   0.009  -0.000   0.029
 -0.018   0.044   1.755   0.012  -0.056   0.160   0.002  -0.009
  0.003  -0.002   0.012   1.094  -0.015   0.002   0.057  -0.002
 -0.243   0.164  -0.056  -0.015   1.839  -0.009  -0.002   0.158
 -0.011   0.009   0.160   0.002  -0.009   0.016   0.000  -0.001
  0.001  -0.000   0.002   0.057  -0.002   0.000   0.003  -0.000
 -0.049   0.029  -0.009  -0.002   0.158  -0.001  -0.000   0.015
 total augmentation occupancy for first ion, spin component:           2
  0.022  -0.001  -0.007  -0.000   0.002  -0.001   0.000   0.000
 -0.001  -0.002   0.006  -0.000  -0.001   0.001  -0.000  -0.000
 -0.007   0.006   0.006  -0.005  -0.000   0.001  -0.000   0.000
 -0.000  -0.000  -0.005   0.314   0.006  -0.000   0.006   0.000
  0.002  -0.001  -0.000   0.006   0.009   0.000   0.000   0.000
 -0.001   0.001   0.001  -0.000   0.000   0.000   0.000   0.000
  0.000  -0.000  -0.000   0.006   0.000   0.000  -0.000  -0.000
  0.000  -0.000   0.000   0.000   0.000   0.000  -0.000  -0.000


------------------------ aborting loop because EDIFF is reached ----------------------------------------


    CHARGE:  cpu time    1.8939: real time    1.8970
    FORLOC:  cpu time    0.6044: real time    0.6054
    FORNL :  cpu time    5.5868: real time    5.5984
    STRESS:  cpu time   17.1459: real time   17.1816
    FORCOR:  cpu time    8.8121: real time    8.8230
    FORHAR:  cpu time    1.5878: real time    1.5854
    MIXING:  cpu time    0.1761: real time    0.1764
    OFIELD:  cpu time    0.0001: real time    0.0001

 ---------------------------------------------------------------------------------------------

         DFTD3 V3.0 Rev 1        
 Edisp (eV)   -0.18327

 E6    (eV) :    -0.0758
 E8    (eV) :    -0.1075
 % E8        : 58.66
    FORVDW:  cpu time    0.0126: real time    0.0209

  FORCE on cell =-STRESS in cart. coord.  units (eV):
  Direction    XX          YY          ZZ          XY          YZ          ZX
  --------------------------------------------------------------------------------------
  Alpha Z     0.15779     0.15779     0.15779
  Ewald    3250.99643  1897.84716  -278.91213   -64.61812    32.94408   -65.86099
  Hartree  3211.92106  2150.80052   820.54039   -27.98025    19.81031   -43.22938
  E(xc)    -179.91751  -180.55180  -184.81798     0.00312     0.06164    -0.09978
  Local   -6905.66425 -4513.76203 -1094.86398    92.14379   -51.50627   106.88821
  n-local   -86.76235   -90.85617   -86.61834    -1.27180    -0.07912     0.05238
  augment     4.89282     6.42450     7.57937    -0.00240     0.00488     0.02901
  Kinetic   705.71429   730.86066   814.69635     1.29603    -1.14417     2.11917
  Fock        0.00000     0.00000     0.00000     0.00000     0.00000     0.00000
  vdW        -0.01340     0.03819     0.01195    -0.00150     0.00020     0.00063
  -------------------------------------------------------------------------------------
  Total       1.32489     0.95884    -2.22658    -0.43113     0.09156    -0.10075
  in kB       0.03317     0.02400    -0.05574    -0.01079     0.00229    -0.00252
  external pressure =        0.00 kB  Pullay stress =        0.00 kB


 VOLUME and BASIS-vectors are now :
 -----------------------------------------------------------------------------
  energy-cutoff  :      500.00
  volume of cell :    64000.00
      direct lattice vectors                 reciprocal lattice vectors
    40.000000000  0.000000000  0.000000000     0.025000000  0.000000000  0.000000000
     0.000000000 40.000000000  0.000000000     0.000000000  0.025000000  0.000000000
     0.000000000  0.000000000 40.000000000     0.000000000  0.000000000  0.025000000

  length of vectors
    40.000000000 40.000000000 40.000000000     0.025000000  0.025000000  0.025000000


 FORCES acting on ions
    electron-ion (+dipol)            ewald-force                    non-local-force                 convergence-correction
 -----------------------------------------------------------------------------------------------
   -.165E+03 -.124E+03 0.378E+00   0.166E+03 0.127E+03 -.283E+00   -.182E+01 -.235E+01 -.142E-01   0.444E-03 0.888E-06 0.656E-03
   -.260E+02 -.217E+03 -.357E+01   0.260E+02 0.219E+03 0.365E+01   -.393E+00 -.261E+01 -.600E-01   0.949E-03 0.572E-03 0.236E-03
   0.962E+02 -.159E+03 -.366E+01   -.976E+02 0.161E+03 0.373E+01   0.133E+01 -.216E+01 -.400E-01   0.283E-03 0.132E-02 0.105E-02
   0.756E+01 0.112E+01 -.126E+01   -.273E+01 0.898E+00 0.121E+01   -.566E+01 -.263E+01 0.101E+00   0.126E-03 -.531E-04 0.608E-03
   -.224E+02 0.178E+03 0.885E+00   0.199E+02 -.181E+03 -.822E+00   0.722E+00 0.316E+01 0.227E-01   0.297E-03 0.188E-03 0.750E-03
   -.733E+02 0.212E+02 0.184E+00   0.670E+02 -.177E+02 0.101E+00   0.457E+01 -.279E+01 -.202E+00   0.153E-02 0.112E-02 0.178E-02
   0.225E+03 -.417E+02 -.180E+00   -.233E+03 0.443E+02 0.157E+00   0.689E+01 -.371E+01 0.477E-01   -.144E-02 0.312E-03 0.315E-03
   -.238E+03 0.139E+03 0.915E+01   0.240E+03 -.141E+03 -.899E+01   -.415E+01 0.268E+01 -.523E-02   0.230E-02 -.917E-03 0.479E-02
   0.168E+03 0.244E+03 -.639E+01   -.177E+03 -.290E+03 0.718E+01   0.735E+01 0.435E+02 -.715E+00   -.909E-03 0.436E-03 0.571E-03
   -.280E+02 0.957E+02 0.355E+01   0.277E+02 -.103E+03 -.374E+01   0.399E-01 0.781E+01 0.237E+00   0.342E-03 0.302E-04 0.530E-03
   -.991E+02 -.189E+02 0.308E+01   0.105E+03 0.221E+02 -.323E+01   -.704E+01 -.339E+01 0.194E+00   -.180E-04 -.165E-03 0.568E-03
   0.513E+00 0.909E+02 0.879E+00   -.161E+01 -.966E+02 -.917E+00   0.464E+00 0.591E+01 0.637E-01   0.162E-04 -.256E-03 0.270E-03
   0.756E+02 0.417E+02 0.111E+00   -.799E+02 -.459E+02 -.119E+00   0.433E+01 0.404E+01 0.149E-01   -.246E-03 -.729E-04 0.333E-04
   0.426E+02 -.397E+02 0.585E+02   -.433E+02 0.427E+02 -.632E+02   0.489E+00 -.324E+01 0.477E+01   -.269E-03 0.108E-03 -.381E-04
   0.429E+02 -.400E+02 -.582E+02   -.437E+02 0.430E+02 0.629E+02   0.551E+00 -.328E+01 -.474E+01   -.281E-03 0.211E-03 0.200E-03
   0.571E+02 -.664E+02 -.139E+01   -.619E+02 0.696E+02 0.149E+01   0.494E+01 -.348E+01 -.826E-01   -.205E-03 0.422E-03 0.146E-03
   -.761E+01 -.886E+02 -.138E+01   0.787E+01 0.946E+02 0.147E+01   -.315E+00 -.598E+01 -.938E-01   -.428E-04 0.794E-04 0.573E-04
   -.756E+02 -.476E+02 0.515E+00   0.805E+02 0.505E+02 -.551E+00   -.539E+01 -.265E+01 0.569E-01   -.207E-03 -.133E-03 0.221E-03
 -----------------------------------------------------------------------------------------------
   -.688E+01 -.288E+02 0.428E+00   -.284E-13 0.156E-12 -.119E-13   0.690E+01 0.288E+02 -.444E+00   0.267E-02 0.320E-02 0.128E-01
 
 
 POSITION                                       TOTAL-FORCE (eV/Angst)
 -----------------------------------------------------------------------------------
     21.81910     20.96726     19.99494         0.011829     -0.006978      0.009652
     20.66298     21.71783     20.02869         0.003842     -0.003588     -0.010808
     19.40484     21.09338     20.03782         0.003372      0.009348      0.003899
     19.30895     19.66629     20.02617        -0.000087     -0.005764     -0.000973
     20.45808     18.89054     19.99512         0.000498      0.008093     -0.003227
     21.72308     19.52582     19.97123         0.000797     -0.007135     -0.010841
     16.89529     19.75779     20.03583         0.013659     -0.001886     -0.000431
     22.85075     18.80961     19.91860         0.009509      0.008757      0.002091
     18.13206     19.00621     20.04415        -0.002469     -0.013240     -0.009648
     22.83223     17.79196     19.88834        -0.007215      0.001032      0.009795
     23.76102     19.26474     19.89390        -0.004943     -0.006599      0.005443
     20.38326     17.80396     19.98283         0.005885      0.000989     -0.004066
     16.10560     19.00175     20.03328        -0.007002     -0.002032      0.002323
     16.82368     20.37522     19.13063        -0.007579      0.006776     -0.007132
     16.81188     20.38152     20.93580        -0.000410      0.001717      0.008544
     18.50633     21.70631     20.05320        -0.009256      0.002006      0.012622
     20.71807     22.80515     20.04549        -0.007471      0.008196     -0.004795
     22.80284     21.43462     19.98393        -0.002959      0.000308     -0.002449
 -----------------------------------------------------------------------------------
    total drift:                                0.022150      0.013742     -0.003390


--------------------------------------------------------------------------------------------------------



  FREE ENERGIE OF THE ION-ELECTRON SYSTEM (eV)
  ---------------------------------------------------
  free  energy   TOTEN  =      -106.34170698 eV

  energy  without entropy=     -106.34170698  energy(sigma->0) =     -106.34170698
 
 d Force = 0.7785553E-04[ 0.524E-04, 0.103E-03]  d Energy = 0.1026857E-03-0.248E-04
 d Force = 0.2457510E+00[ 0.246E+00, 0.246E+00]  d Ewald  = 0.2457510E+00-0.148E-07


--------------------------------------------------------------------------------------------------------


    POTLOK:  cpu time  147.6822: real time  147.7886


--------------------------------------------------------------------------------------------------------


 Conjugate gradient step on ions:
 trial-energy change:   -0.000103  1 .order   -0.000078   -0.000103   -0.000052
  (g-gl).g = 0.218E-03      g.g   = 0.287E-03  gl.gl    = 0.368E-03
 g(Force)  = 0.287E-03   g(Stress)= 0.000E+00 ortho     =-0.462E-06
 gamma     =   0.59290
 trial     =   0.36085
 opt step  =   0.73144  (harmonic =   0.73144) maximal distance =0.00162435
 next E    =  -106.341709   (d E  =  -0.00010)


--------------------------------------------------------------------------------------------------------


  
 reached required accuracy - stopping structural energy minimisation
 writing wavefunctions
     LOOP+:  cpu time  900.9244: real time  902.4063
    4ORBIT:  cpu time    0.0000: real time    0.0000

 total amount of memory used by VASP MPI-rank0   782278. kBytes
=======================================================================

   base      :      30000. kBytes
   nonlr-proj:       1633. kBytes
   fftplans  :     182426. kBytes
   grid      :     522727. kBytes
   one-center:          6. kBytes
   wavefun   :      45486. kBytes
 
  
  
 General timing and accounting informations for this job:
 ========================================================
  
                  Total CPU time used (sec):    78703.453
                            User time (sec):    75051.263
                          System time (sec):     3652.191
                         Elapsed time (sec):    78749.304
  
                   Maximum memory used (kb):     2433504.
                   Average memory used (kb):           0.
  
                          Minor page faults:    524897757
                          Major page faults:            0
                 Voluntary context switches:      2161832
