 vasp.6.4.2 20Jul23 (build Sep 06 2024 14:39:43) complex                        
  
 executed on             LinuxIFC date 2025.08.28  14:31:43
 running   90 mpi-ranks, on    6 nodes
 distrk:  each k-point on   90 cores,    1 groups
 distr:  one band on NCORE=  30 cores,    3 groups


--------------------------------------------------------------------------------------------------------


 INCAR:
   SYSTEM = 006_red
   ISTART = 1
   ICHARG = 2
   INIWAV = 1
   LHFCALC = .TRUE.
   HFSCREEN = 0.2
   NELM = 500
   ALGO = Damped
   ISPIN = 2
   EDIFF = 1E-05
   ISMEAR = 0
   SIGMA = 0.05
   PREC = accurate
   ENCUT = 500
   LREAL = auto  	
   LDIAG = .FALSE.
   LWAVE = .TRUE.
   LCHARG = .FALSE.
   LAECHG = .FALSE.
   LVHAR = .FALSE.
   LVTOT = .FALSE.
   EDIFFG = -0.02
   IBRION = 2
   NSW = 0
   ISIF = 2
   POTIM = 0.5
   IVDW = 12
   VDW_A1 = 0.383
   VDW_S8 = 2.310
   VDW_A2 = 5.685
   LPLANE = .TRUE.
   NCORE = 30
   LSCALU = .FALSE.
   NSIM = 4
   LSOL = .TRUE.
   EB_K = 35.6880
   LAMBDA_D_K = 3.04
   TAU = 0

 POTCAR:    PAW_PBE C 08Apr2002                   
 POTCAR:    PAW_PBE H 15Jun2001                   
 -----------------------------------------------------------------------------
|                                                                             |
|           W    W    AA    RRRRR   N    N  II  N    N   GGGG   !!!           |
|           W    W   A  A   R    R  NN   N  II  NN   N  G    G  !!!           |
|           W    W  A    A  R    R  N N  N  II  N N  N  G       !!!           |
|           W WW W  AAAAAA  RRRRR   N  N N  II  N  N N  G  GGG   !            |
|           WW  WW  A    A  R   R   N   NN  II  N   NN  G    G                |
|           W    W  A    A  R    R  N    N  II  N    N   GGGG   !!!           |
|                                                                             |
|     You use a magnetic or noncollinear calculation, but did not specify     |
|     the initial magnetic moment with the MAGMOM tag. Note that a            |
|     default of 1 will be used for all atoms. This ferromagnetic setup       |
|     may break the symmetry of the crystal, in particular it may rule        |
|     out finding an antiferromagnetic solution. Thence, we recommend         |
|     setting the initial magnetic moment manually or verifying carefully     |
|     that this magnetic setup is desired.                                    |
|                                                                             |
 -----------------------------------------------------------------------------

 -----------------------------------------------------------------------------
|                                                                             |
|           W    W    AA    RRRRR   N    N  II  N    N   GGGG   !!!           |
|           W    W   A  A   R    R  NN   N  II  NN   N  G    G  !!!           |
|           W    W  A    A  R    R  N N  N  II  N N  N  G       !!!           |
|           W WW W  AAAAAA  RRRRR   N  N N  II  N  N N  G  GGG   !            |
|           WW  WW  A    A  R   R   N   NN  II  N   NN  G    G                |
|           W    W  A    A  R    R  N    N  II  N    N   GGGG   !!!           |
|                                                                             |
|     For optimal performance we recommend to set                             |
|       NCORE = 2 up to number-of-cores-per-socket                            |
|     NCORE specifies how many cores store one orbital (NPAR=cpu/NCORE).      |
|     This setting can greatly improve the performance of VASP for DFT.       |
|     The default, NCORE=1 might be grossly inefficient on modern             |
|     multi-core architectures or massively parallel machines. Do your        |
|     own testing! More info at https://www.vasp.at/wiki/index.php/NCORE      |
|     Unfortunately you need to use the default for GW and RPA                |
|     calculations (for HF NCORE is supported but not extensively tested      |
|     yet).                                                                   |
|                                                                             |
 -----------------------------------------------------------------------------

 POTCAR:    PAW_PBE C 08Apr2002                   
   SHA256 =  253f7b50bb8d59471dbedb8285d89021f4a42ed1a2c5d38a03a736e69125dd95 C/POTCAR              
   COPYR  = (c) Copyright 08Apr2002 Georg Kresse                                                    
   COPYR  = This file is part of the software VASP. Any use, copying, and all other rights are regul
   COPYR  = If you do not have a valid VASP license, you may not use, copy or distribute this file. 
   VRHFIN =C: s2p2                                                                                  
   LEXCH  = PE                                                                                      
   EATOM  =   147.1560 eV,   10.8157 Ry                                                             
                                                                                                    
   TITEL  = PAW_PBE C 08Apr2002                                                                     
   LULTRA =        F    use ultrasoft PP ?                                                          
   IUNSCR =        1    unscreen: 0-lin 1-nonlin 2-no                                               
   RPACOR =    1.200    partial core radius                                                         
   POMASS =   12.011; ZVAL   =    4.000    mass and valenz                                          
   RCORE  =    1.500    outmost cutoff radius                                                       
   RWIGS  =    1.630; RWIGS  =    0.863    wigner-seitz radius (au A)                               
   ENMAX  =  400.000; ENMIN  =  300.000 eV                                                          
   ICORE  =        2    local potential                                                             
   LCOR   =        T    correct aug charges                                                         
   LPAW   =        T    paw PP                                                                      
   EAUG   =  644.873                                                                                
   DEXC   =    0.000                                                                                
   RMAX   =    1.529    core radius for proj-oper                                                   
   RAUG   =    1.300    factor for augmentation sphere                                              
   RDEP   =    1.501    radius for radial grids                                                     
   RDEPT  =    1.300    core radius for aug-charge                                                  
                                                                                                    
   Atomic configuration                                                                             
    4 entries                                                                                       
     n  l   j            E        occ.                                                              
     1  0  0.50      -273.3789   2.0000                                                             
     2  0  0.50       -13.7508   2.0000                                                             
     2  1  0.50        -5.2854   2.0000                                                             
     3  2  1.50        -5.4423   0.0000                                                             
   Description                                                                                      
     l       E           TYP  RCUT    TYP  RCUT                                                     
     0    -13.7508458     23  1.200                                                                 
     0     -8.2022199     23  1.200                                                                 
     1     -5.2854383     23  1.500                                                                 
     1     34.0145650     23  1.500                                                                 
     2     -5.4423304      7  1.500                                                                 
  local pseudopotential read in
  partial core-charges read in
  partial kinetic energy density read in
  atomic valenz-charges read in
  non local Contribution for L=           0  read in
    real space projection operators read in
  non local Contribution for L=           0  read in
    real space projection operators read in
  non local Contribution for L=           1  read in
    real space projection operators read in
  non local Contribution for L=           1  read in
    real space projection operators read in
    PAW grid and wavefunctions read in
 
   number of l-projection  operators is LMAX  =           4
   number of lm-projection operators is LMMAX =           8
 
 POTCAR:    PAW_PBE H 15Jun2001                   
   SHA256 =  030f79b5d3ab3cf0e668861823c8fb652ff669f3e15e46930bd03bfd63a607b6 H/POTCAR              
   COPYR  = (c) Copyright 15Jun2001 Georg Kresse                                                    
   COPYR  = This file is part of the software VASP. Any use, copying, and all other rights are regul
   COPYR  = If you do not have a valid VASP license, you may not use, copy or distribute this file. 
   VRHFIN =H: ultrasoft test                                                                        
   LEXCH  = PE                                                                                      
   EATOM  =    12.4884 eV,    0.9179 Ry                                                             
                                                                                                    
   TITEL  = PAW_PBE H 15Jun2001                                                                     
   LULTRA =        F    use ultrasoft PP ?                                                          
   IUNSCR =        0    unscreen: 0-lin 1-nonlin 2-no                                               
   RPACOR =    0.000    partial core radius                                                         
   POMASS =    1.000; ZVAL   =    1.000    mass and valenz                                          
   RCORE  =    1.100    outmost cutoff radius                                                       
   RWIGS  =    0.700; RWIGS  =    0.370    wigner-seitz radius (au A)                               
   ENMAX  =  250.000; ENMIN  =  200.000 eV                                                          
   RCLOC  =    0.701    cutoff for local pot                                                        
   LCOR   =        T    correct aug charges                                                         
   LPAW   =        T    paw PP                                                                      
   EAUG   =  400.000                                                                                
   RMAX   =    1.123    core radius for proj-oper                                                   
   RAUG   =    1.200    factor for augmentation sphere                                              
   RDEP   =    1.112    radius for radial grids                                                     
   RDEPT  =    0.926    core radius for aug-charge                                                  
                                                                                                    
   Atomic configuration                                                                             
    2 entries                                                                                       
     n  l   j            E        occ.                                                              
     1  0  0.50        -6.4927   1.0000                                                             
     2  1  0.50        -3.4015   0.0000                                                             
   Description                                                                                      
     l       E           TYP  RCUT    TYP  RCUT                                                     
     0     -6.4927494     23  1.100                                                                 
     0      6.8029130     23  1.100                                                                 
     1     -4.0817478     23  1.100                                                                 
  local pseudopotential read in
  atomic valenz-charges read in
  non local Contribution for L=           0  read in
    real space projection operators read in
  non local Contribution for L=           0  read in
    real space projection operators read in
  non local Contribution for L=           1  read in
    real space projection operators read in
    PAW grid and wavefunctions read in
 
   number of l-projection  operators is LMAX  =           3
   number of lm-projection operators is LMMAX =           5
 
 Optimization of the real space projectors (new method)

 maximal supplied QI-value         = 25.13
 optimisation between [QCUT,QGAM] = [ 11.31, 22.87] = [ 35.82,146.48] Ry 
 Optimized for a Real-space Cutoff    1.03 Angstroem

   l    n(q)    QCUT    max X(q) W(low)/X(q) W(high)/X(q)  e(spline) 
   0      7    11.310   115.676    0.20E-03    0.90E-03    0.20E-06
   0      7    11.310    87.132    0.20E-03    0.89E-03    0.19E-06
   1      6    11.310     4.429    0.16E-03    0.28E-03    0.12E-06
   1      6    11.310     2.733    0.12E-03    0.21E-03    0.99E-07
 Optimization of the real space projectors (new method)

 maximal supplied QI-value         = 34.20
 optimisation between [QCUT,QGAM] = [ 11.29, 22.57] = [ 35.68,142.71] Ry 
 Optimized for a Real-space Cutoff    1.20 Angstroem

   l    n(q)    QCUT    max X(q) W(low)/X(q) W(high)/X(q)  e(spline) 
   0      8    11.287    19.460    0.22E-03    0.50E-03    0.19E-06
   0      8    11.287    12.209    0.21E-03    0.48E-03    0.18E-06
   1      8    11.287     4.655    0.21E-03    0.11E-04    0.26E-06
  PAW_PBE C 08Apr2002                   :
 energy of atom  1       EATOM= -147.1560
 kinetic energy error for atom=    0.0076 (will be added to EATOM!!)
  PAW_PBE H 15Jun2001                   :
 energy of atom  2       EATOM=  -12.4884
 kinetic energy error for atom=    0.0020 (will be added to EATOM!!)
 
 
 POSCAR: C H
  positions in direct lattice
  velocities in cartesian coordinates
 exchange correlation table for  LEXCH =        8
   RHO(1)=    0.500       N(1)  =     2000
   RHO(2)=  100.500       N(2)  =     4000
 


--------------------------------------------------------------------------------------------------------


 ion  position               nearest neighbor table
   1  0.445  0.483  0.500-  18 1.09   8 1.40   2 1.40
   2  0.475  0.465  0.500-  17 1.09   1 1.40   3 1.40
   3  0.506  0.482  0.500-   2 1.40   5 1.42   4 1.51
   4  0.538  0.463  0.500-  10 1.10  11 1.10   9 1.10   3 1.51
   5  0.506  0.518  0.500-   7 1.40   3 1.42   6 1.51
   6  0.538  0.537  0.500-  13 1.10  12 1.10  14 1.10   5 1.51
   7  0.475  0.535  0.500-  16 1.09   8 1.40   5 1.40
   8  0.445  0.517  0.500-  15 1.09   1 1.40   7 1.40
   9  0.553  0.469  0.522-   4 1.10
  10  0.534  0.436  0.500-   4 1.10
  11  0.553  0.469  0.478-   4 1.10
  12  0.553  0.531  0.478-   6 1.10
  13  0.534  0.564  0.500-   6 1.10
  14  0.553  0.531  0.522-   6 1.10
  15  0.421  0.531  0.500-   8 1.09
  16  0.475  0.562  0.500-   7 1.09
  17  0.475  0.438  0.500-   2 1.09
  18  0.421  0.469  0.500-   1 1.09
 
  LATTYP: Found a simple cubic cell.
 ALAT       =    40.0000000000
  
  Lattice vectors:
  
 A1 = (  40.0000000000,   0.0000000000,   0.0000000000)
 A2 = (   0.0000000000,  40.0000000000,   0.0000000000)
 A3 = (   0.0000000000,   0.0000000000,  40.0000000000)


Analysis of symmetry for initial positions (statically):
=====================================================================
 Subroutine PRICEL returns:
 Original cell was already a primitive cell.
 

 Routine SETGRP: Setting up the symmetry group for a 
 simple cubic supercell.


 Subroutine GETGRP returns: Found  4 space group operations
 (whereof  4 operations were pure point group operations)
 out of a pool of 48 trial point group operations.


The static configuration has the point symmetry C_2v.


Analysis of symmetry for dynamics (positions and initial velocities):
=====================================================================
 Subroutine PRICEL returns:
 Original cell was already a primitive cell.
 

 Routine SETGRP: Setting up the symmetry group for a 
 simple cubic supercell.


 Subroutine GETGRP returns: Found  4 space group operations
 (whereof  4 operations were pure point group operations)
 out of a pool of 48 trial point group operations.


The dynamic configuration has the point symmetry C_2v.


Analysis of constrained symmetry for selective dynamics:
=====================================================================
 Subroutine PRICEL returns:
 Original cell was already a primitive cell.
 

 Routine SETGRP: Setting up the symmetry group for a 
 simple cubic supercell.


 Subroutine GETGRP returns: Found  4 space group operations
 (whereof  4 operations were pure point group operations)
 out of a pool of 48 trial point group operations.


The constrained configuration has the point symmetry C_2v.


Analysis of structural, dynamic, and magnetic symmetry:
=====================================================================
 Subroutine PRICEL returns:
 Original cell was already a primitive cell.
 

 Routine SETGRP: Setting up the symmetry group for a 
 simple cubic supercell.


 Subroutine GETGRP returns: Found  4 space group operations
 (whereof  4 operations were pure point group operations)
 out of a pool of 48 trial point group operations.


The overall configuration has the point symmetry C_2v.


 Subroutine INISYM returns: Found  4 space group operations
 (whereof  4 operations are pure point group operations),
 and found     1 'primitive' translations


----------------------------------------------------------------------------------------

                                     Primitive cell                                     

  volume of cell :   64000.0000

  direct lattice vectors                    reciprocal lattice vectors
    40.000000000  0.000000000  0.000000000     0.025000000  0.000000000  0.000000000
     0.000000000 40.000000000  0.000000000     0.000000000  0.025000000  0.000000000
     0.000000000  0.000000000 40.000000000     0.000000000  0.000000000  0.025000000

  length of vectors
    40.000000000 40.000000000 40.000000000     0.025000000  0.025000000  0.025000000

  position of ions in fractional coordinates (direct lattice)
     0.444588946  0.482529125  0.500000896
     0.475017560  0.465298929  0.500000370
     0.505683613  0.482304890  0.499999785
     0.538105559  0.463156637  0.499998668
     0.505683613  0.517695110  0.500000215
     0.538105559  0.536842363  0.500000332
     0.475017560  0.534701071  0.500000630
     0.444588946  0.517470875  0.500001104
     0.553415528  0.469305685  0.522049109
     0.533605307  0.436086940  0.500000883
     0.553411743  0.469302558  0.477944917
     0.553414528  0.530694315  0.477948891
     0.533605307  0.563913060  0.499998117
     0.553412743  0.530697442  0.522054083
     0.421074158  0.531304166  0.500001106
     0.475098586  0.562026578  0.500001019
     0.475098586  0.437973422  0.499999981
     0.421074158  0.468695834  0.500000894

  ion indices of the primitive-cell ions
   primitive index   ion index
                 1           1
                 2           2
                 3           3
                 4           4
                 5           5
                 6           6
                 7           7
                 8           8
                 9           9
                10          10
                11          11
                12          12
                13          13
                14          14
                15          15
                16          16
                17          17
                18          18

----------------------------------------------------------------------------------------

 
 
 KPOINTS: K-Point Grid                            

Automatic generation of k-mesh.
 Grid dimensions read from file:
 generate k-points for:    1    1    1

 Generating k-lattice:

  Cartesian coordinates                     Fractional coordinates (reciprocal lattice)
     0.025000000  0.000000000  0.000000000     1.000000000  0.000000000  0.000000000
     0.000000000  0.025000000  0.000000000     0.000000000  1.000000000  0.000000000
     0.000000000  0.000000000  0.025000000     0.000000000  0.000000000  1.000000000

  Length of vectors
     0.025000000  0.025000000  0.025000000

  Shift w.r.t. Gamma in fractional coordinates (k-lattice)
     0.000000000  0.000000000  0.000000000

 
 Subroutine IBZKPT returns following result:
 ===========================================
 
 Found      1 irreducible k-points:
 
 Following reciprocal coordinates:
            Coordinates               Weight
  0.000000  0.000000  0.000000      1.000000
 
 Following cartesian coordinates:
            Coordinates               Weight
  0.000000  0.000000  0.000000      1.000000
 
 
 Subroutine IBZKPT_HF returns following result:
 ==============================================
 
 Found      1 k-points in 1st BZ
 the following      1 k-points will be used (e.g. in the exchange kernel)
 Following reciprocal coordinates:   # in IRBZ
  0.000000  0.000000  0.000000    1.00000000   1 t-inv F


--------------------------------------------------------------------------------------------------------




 Dimension of arrays:
   k-points           NKPTS =      1   k-points in BZ     NKDIM =      1   number of bands    NBANDS=     42
   number of dos      NEDOS =    301   number of ions     NIONS =     18
   non local maximal  LDIM  =      4   non local SUM 2l+1 LMDIM =      8
   total plane-waves  NPLWV = ******
   max r-space proj   IRMAX =   2915   max aug-charges    IRDMAX=   4885
   dimension x,y,z NGX =   294 NGY =  294 NGZ =  294
   dimension x,y,z NGXF=   588 NGYF=  588 NGZF=  588
   support grid    NGXF=   588 NGYF=  588 NGZF=  588
   ions per type =               8  10
   NGX,Y,Z   is equivalent  to a cutoff of  12.22, 12.22, 12.22 a.u.
   NGXF,Y,Z  is equivalent  to a cutoff of  24.44, 24.44, 24.44 a.u.

 SYSTEM =  006_red                                 
 POSCAR =  C H                                     

 Startparameter for this run:
   NWRITE =      2    write-flag & timer
   PREC   = accura    normal or accurate (medium, high low for compatibility)
   ISTART =      1    job   : 0-new  1-cont  2-samecut
   ICHARG =      2    charge: 1-file 2-atom 10-const
   ISPIN  =      2    spin polarized calculation?
   LNONCOLLINEAR =      F non collinear calculations
   LSORBIT =      F    spin-orbit coupling
   INIWAV =      1    electr: 0-lowe 1-rand  2-diag
   LASPH  =      F    aspherical Exc in radial PAW
 Electronic Relaxation 1
   ENCUT  =  500.0 eV  36.75 Ry    6.06 a.u.  72.93 72.93 72.93*2*pi/ulx,y,z
   ENINI  =  500.0     initial cutoff
   ENAUG  =  644.9 eV  augmentation charge cutoff
   NELM   =    500;   NELMIN=  2; NELMDL=  0     # of ELM steps 
   EDIFF  = 0.1E-04   stopping-criterion for ELM
   LREAL  =      T    real-space projection
   NLSPLINE    = F    spline interpolate recip. space projectors
   LCOMPAT=      F    compatible to vasp.4.4
   GGA_COMPAT  = T    GGA compatible to vasp.4.4-vasp.4.6
   LMAXPAW     = -100 max onsite density
   LMAXMIX     =    2 max onsite mixed and CHGCAR
   VOSKOWN=      0    Vosko Wilk Nusair interpolation
   ROPT   =   -0.00025  -0.00025
 Ionic relaxation
   EDIFFG = -.2E-01   stopping-criterion for IOM
   NSW    =      0    number of steps for IOM
   NBLOCK =      1;   KBLOCK =      1    inner block; outer block 
   IBRION =     -1    ionic relax: 0-MD 1-quasi-New 2-CG
   NFREE  =      1    steps in history (QN), initial steepest desc. (CG)
   ISIF   =      2    stress and relaxation
   IWAVPR =     10    prediction:  0-non 1-charg 2-wave 3-comb
   ISYM   =      3    0-nonsym 1-usesym 2-fastsym
   LCORR  =      T    Harris-Foulkes like correction to forces

   POTIM  = 0.5000    time-step for ionic-motion
   TEIN   =    0.0    initial temperature
   TEBEG  =    0.0;   TEEND  =   0.0 temperature during run
   SMASS  =  -3.00    Nose mass-parameter (am)
   estimated Nose-frequenzy (Omega)   =  0.10E-29 period in steps = 0.13E+47 mass=  -0.366E-25a.u.
   SCALEE = 1.0000    scale energy and forces
   NPACO  =    256;   APACO  = 10.0  distance and # of slots for P.C.
   PSTRESS=    0.0 pullay stress

  Mass of Ions in am
   POMASS =  12.01  1.00
  Ionic Valenz
   ZVAL   =   4.00  1.00
  Atomic Wigner-Seitz radii
   RWIGS  =  -1.00 -1.00
  virtual crystal weights 
   VCA    =   1.00  1.00
   NELECT =      42.0000    total number of electrons
   NUPDOWN=      -1.0000    fix difference up-down

 DOS related values:
   EMIN   =  10.00;   EMAX   =-10.00  energy-range for DOS
   EFERMI =   0.00;   METHOD = LEGACY      
   ISMEAR =     0;   SIGMA  =   0.05  broadening in eV -4-tet -1-fermi 0-gaus

 Electronic relaxation 2 (details)
   IALGO  =     53    algorithm
   LDIAG  =      F    sub-space diagonalisation (order eigenvalues)
   LSUBROT=      F    optimize rotation matrix (better conditioning)
   TURBO    =      0    0=normal 1=particle mesh
   IRESTART =      0    0=no restart 2=restart with 2 vectors
   NREBOOT  =      0    no. of reboots
   NMIN     =      0    reboot dimension
   EREF     =   0.00    reference energy to select bands
   IMIX   =      4    mixing-type and parameters
     AMIX     =   0.40;   BMIX     =  1.00
     AMIX_MAG =   1.60;   BMIX_MAG =  1.00
     AMIN     =   0.10
     WC   =   100.;   INIMIX=   1;  MIXPRE=   1;  MAXMIX= -45

 Intra band minimization:
   WEIMIN = 0.0000     energy-eigenvalue tresh-hold
   EBREAK =  0.60E-07  absolut break condition
   DEPER  =   0.30     relativ break condition  

   TIME   =   0.40     timestep for ELM

  volume/ion in A,a.u.               =    3555.56     23994.07
  Fermi-wavevector in a.u.,A,eV,Ry     =   0.142265  0.268842  0.275373  0.020239
  Thomas-Fermi vector in A             =   0.804272
 
 Write flags
   LWAVE        =      T    write WAVECAR
   LDOWNSAMPLE  =      F    k-point downsampling of WAVECAR
   LCHARG       =      F    write CHGCAR
   LVTOT        =      F    write LOCPOT, total local potential
   LVHAR        =      F    write LOCPOT, Hartree potential only
   LELF         =      F    write electronic localiz. function (ELF)
   LORBIT       =      0    0 simple, 1 ext, 2 COOP (PROOUT), +10 PAW based schemes


 Dipole corrections
   LMONO  =      F    monopole corrections only (constant potential shift)
   LDIPOL =      F    correct potential (dipole corrections)
   IDIPOL =      0    1-x, 2-y, 3-z, 4-all directions 
   EPSILON=  1.0000000 bulk dielectric constant

 Exchange correlation treatment:
   GGA     =    --    GGA type
   LEXCH   =     8    internal setting for exchange type
   LIBXC   =     F    Libxc                    
   VOSKOWN =     0    Vosko Wilk Nusair interpolation
   EXXOEP  =     0    0=HF, 1=EXX-LHF (local Hartree Fock) 2=EXX OEP
   LHFCALC =     T    Hartree Fock is set to
   LSYMGRAD=     F    symmetrize gradient (conserves proper symmetry)
   PRECFOCK=normal    Normal, Fast or Accurate (Low or Medium for compatibility)
   LRHFCALC=     F    long range Hartree Fock
   LRSCOR  =     F    long range correlation only (use DFT for short range part)
   LTHOMAS =     F    Thomas Fermi screening in HF
   LMODELHF=     F    short range full HF, long range fraction AEXX
   FOCKCORR=     1    mode to apply convergence corrections
   LFOCKACE=     F    use Adeptively-Compressed-Exchange operator
   ENCUT4O =  -1.0   cutoff for four orbital integrals eV
   LMAXFOCK=     4    L truncation for augmentation on plane wave grid
   LMAXFOCKAE=  -1    L truncation for all-electron charge restoration on plane wave grid
   NMAXFOCKAE=   1    number of basis functions for all-electron charge restoration
   LFOCKAEDFT=     F  apply the AE augmentation even for DFT
   NKREDX  =     1    reduce k-point grid by
   NKREDY  =     1    reduce k-point grid by
   NKREDZ  =     1    reduce k-point grid by
   SHIFTRED=     F    shift reduced grid of Gamma
   HFKIDENT=     F    idential grid for each k-point
   ODDONLY =     F    use only odd q-grid points
   EVENONLY=     F    use only even q-grid points
   HFALPHA =   -1.0000 decay constant for conv. correction
   MCALPHA =    0.0000 extent of test-charge in conv. correction in multipole expansion
   AEXX    =    0.2500 exact exchange contribution
   HFSCREEN=    0.2000 screening length (either q_TF or 0.3 A-1)
   HFSCREENC=   0.2000 screening length for correlation (either q_TF or 0.3 A-1)
   HFRCUT  =    0.0000 spherical cutoff for potential kernel
   ALDAX   =    0.7500 LDA exchange part
   AGGAX   =    0.7500 GGA exchange part
   ALDAC   =    1.0000 LDA correlation
   AGGAC   =    1.0000 GGA correlation
   ENCUTFOCK=  -1.0 apply spherical cutoff to Coloumb kernel
   NBANDSGWLOW=     1    first orbital included in HF term
   NBLOCK_FOCK=    64    blocking factor in FOCK_ACC

 Linear response parameters
   LEPSILON=     F    determine dielectric tensor
   LRPA    =     F    only Hartree local field effects (RPA)
   LNABLA  =     F    use nabla operator in PAW spheres
   LVEL    =     F    velocity operator in full k-point grid
   CSHIFT  =0.1000    complex shift for real part using Kramers Kronig
   OMEGAMAX=  -1.0    maximum frequency
   DEG_THRESHOLD= 0.2000000E-02 threshold for treating states as degnerate
   RTIME   =   -0.100 relaxation time in fs
  (WPLASMAI=    0.000 imaginary part of plasma frequency in eV, 0.658/RTIME)
   DFIELD  = 0.0000000 0.0000000 0.0000000 field for delta impulse in time
 
  Optional k-point grid parameters
   LKPOINTS_OPT  =     F    use optional k-point grid
   KPOINTS_OPT_MODE=     1    mode for optional k-point grid
 
 Orbital magnetization related:
   ORBITALMAG=     F  switch on orbital magnetization
   LCHIMAG   =     F  perturbation theory with respect to B field
   DQ        =  0.001000  dq finite difference perturbation B field
   LLRAUG    =     F  two centre corrections for induced B field
   LBONE     =     F  B-component reconstruction in AE one-centre
   LVGVCALC  =     T  calculate vGv susceptibility
   LVGVAPPL  =     F  apply vGv susceptibility instead of pGv for G=0

 Random number generation:
   RANDOM_GENERATOR = DEFAULT
   PCG_SEED         = not used
 Solvation model:
   LSOL    =     T         switch on solvation model
   EB_K    = 35.688000     relative permittivity of the bulk solvent
   SIGMA_K =  0.600000     width of the dielectric cavity
   NC_K    =  0.002500     cutoff charge density
   TAU     =  0.000000     cavity surface tension
   LAMBDA_D_K    =  3.040000     Debye length in Angstroms
   LRHOB     =     F     write boundcharge  density
   LRHOION     =     F     write ioniccharge density



--------------------------------------------------------------------------------------------------------


 Static calculation
 charge density and potential will be updated during run
 spin polarized calculation
 Conjugate gradient for all bands (Kresse, et al. variant)
 perform Loewdin sub-space diagonalisation
    ordering is kept fixed
    before iterative eigenvector-optimisation
 modified Broyden-mixing scheme, WC =      100.0
 initial mixing is a Kerker type mixing with AMIX =  0.4000 and BMIX =      1.0000
 Hartree-type preconditioning will be used
 using additional bands           21
 real space projection scheme for non local part
 use partial core corrections
 no Harris-corrections to forces 
 use gradient corrections 
 use of overlap-Matrix (Vanderbilt PP)
 Gauss-broadening in eV      SIGMA  =   0.05


--------------------------------------------------------------------------------------------------------


  energy-cutoff  :      500.00
  volume of cell :    64000.00
      direct lattice vectors                 reciprocal lattice vectors
    40.000000000  0.000000000  0.000000000     0.025000000  0.000000000  0.000000000
     0.000000000 40.000000000  0.000000000     0.000000000  0.025000000  0.000000000
     0.000000000  0.000000000 40.000000000     0.000000000  0.000000000  0.025000000

  length of vectors
    40.000000000 40.000000000 40.000000000     0.025000000  0.025000000  0.025000000


 
 old parameters found on file WAVECAR:
  energy-cutoff  :      500.00
  volume of cell :    64000.00
      direct lattice vectors                 reciprocal lattice vectors
    40.000000000  0.000000000  0.000000000     0.025000000  0.000000000  0.000000000
     0.000000000 40.000000000  0.000000000     0.000000000  0.025000000  0.000000000
     0.000000000  0.000000000 40.000000000     0.000000000  0.000000000  0.025000000

  length of vectors

 
 k-points in units of 2pi/SCALE and weight: K-Point Grid                            
   0.00000000  0.00000000  0.00000000       1.000
 
 k-points in reciprocal lattice and weights: K-Point Grid                            
   0.00000000  0.00000000  0.00000000       1.000
 
 position of ions in fractional coordinates (direct lattice) 
   0.44458895  0.48252913  0.50000090
   0.47501756  0.46529893  0.50000037
   0.50568361  0.48230489  0.49999978
   0.53810556  0.46315664  0.49999867
   0.50568361  0.51769511  0.50000022
   0.53810556  0.53684236  0.50000033
   0.47501756  0.53470107  0.50000063
   0.44458895  0.51747087  0.50000110
   0.55341553  0.46930569  0.52204911
   0.53360531  0.43608694  0.50000088
   0.55341174  0.46930256  0.47794492
   0.55341453  0.53069431  0.47794889
   0.53360531  0.56391306  0.49999812
   0.55341274  0.53069744  0.52205408
   0.42107416  0.53130417  0.50000111
   0.47509859  0.56202658  0.50000102
   0.47509859  0.43797342  0.49999998
   0.42107416  0.46869583  0.50000089
 
 position of ions in cartesian coordinates  (Angst):
  17.78355784 19.30116500 20.00003585
  19.00070240 18.61195715 20.00001482
  20.22734450 19.29219560 19.99999139
  21.52422237 18.52626549 19.99994671
  20.22734450 20.70780440 20.00000861
  21.52422237 21.47369451 20.00001329
  19.00070240 21.38804285 20.00002518
  17.78355784 20.69883500 20.00004415
  22.13662112 18.77222740 20.88196437
  21.34421227 17.44347762 20.00003533
  22.13646971 18.77210230 19.11779666
  22.13658112 21.22777260 19.11795563
  21.34421227 22.55652238 19.99992467
  22.13650971 21.22789770 20.88216334
  16.84296633 21.25216664 20.00004426
  19.00394345 22.48106311 20.00004077
  19.00394345 17.51893689 19.99999923
  16.84296633 18.74783336 20.00003574
 


--------------------------------------------------------------------------------------------------------


 k-point   1 :   0.0000 0.0000 0.0000  plane waves: 1624525

 maximum and minimum number of plane-waves per node :     54169    54136

 maximum number of plane-waves:   1624525
 maximum index in each direction: 
   IXMAX=   72   IYMAX=   72   IZMAX=   72
   IXMIN=  -72   IYMIN=  -72   IZMIN=  -72


 real space projection operators:
  total allocation   :       1980.88 KBytes
  max/ min on nodes  :        104.33         34.41


 parallel 3D FFT for wavefunctions:
    minimum data exchange during FFTs selected (reduces bandwidth)
 parallel 3D FFT for charge:
    minimum data exchange during FFTs selected (reduces bandwidth)


 FFT grid for exact exchange (Hartree Fock) 
  NGX =224; NGY =224; NGZ =224

 
 Radii for the augmentation spheres in the non-local exchange
 for species   1 augmentation radius   0.874 (default was   0.699)
       energy cutoff for augmentation   2000.0
 for species   2 augmentation radius   0.650 (default was   0.520)
       energy cutoff for augmentation   2000.0

 real space projection operators:
  total allocation   :        418.50 KBytes
  max/ min on nodes  :         24.61          8.58

 Maximum index for augmentation-charges in exchange           76
  SETUP_FOCK is finished

 total amount of memory used by VASP MPI-rank0   496487. kBytes
=======================================================================

   base      :      30000. kBytes
   nonlr-proj:       1111. kBytes
   fftplans  :     129164. kBytes
   grid      :     263386. kBytes
   one-center:          6. kBytes
   HF        :          4. kBytes
   wavefun   :      72816. kBytes
 
     INWAV:  cpu time     12.7268: real time     12.7316
 Broyden mixing: mesh for mixing (old mesh)
   NGX =145   NGY =145   NGZ =145
  (NGX  =588   NGY  =588   NGZ  =588)
  gives a total of ****** points

 initial charge density was supplied:
 charge density of overlapping atoms calculated
 number of electron      42.0000000 magnetization      18.0000000
 charge density for first step will be calculated from the start-wavefunctions


--------------------------------------------------------------------------------------------------------


 Maximum index for non-local projection operator          190
 Maximum index for augmentation-charges          101 (set IRDMAX)


--------------------------------------------------------------------------------------------------------


 initial charge from wavefunction
 First call to EWALD:  gamma=   0.044
 Maximum number of real-space cells 3x 3x 3
 Maximum number of reciprocal cells 3x 3x 3

    FEWALD:  cpu time      0.0045: real time      0.0045


--------------------------------------- Ionic step        1  -------------------------------------------




--------------------------------------- Iteration      1(   1)  ---------------------------------------


    POTLOK:  cpu time    394.1585: real time    394.2510
    SETDIJ:  cpu time      0.1205: real time      0.1205
    TRIAL :  cpu time    134.1298: real time    134.1400
    CORREC:  cpu time      0.0114: real time      0.0114
    CHARGE:  cpu time      2.6320: real time      2.6322
    --------------------------------------------
      LOOP:  cpu time    531.0996: real time    531.2031

 eigenvalue-minimisations  :     0
 total energy-change (2. order) :-0.1257668E+03  (-0.9020805E-01)
 number of electron      41.9999996 magnetization       0.0000000
 augmentation part        0.9719154 magnetization      -0.0000004

 Free energy of the ion-electron system (eV)
  ---------------------------------------------------
  alpha Z        PSCENC =         0.12380491
  Ewald energy   TEWEN  =      3964.65754679
  -Hartree energ DENC   =     -5012.30427097
  -exchange      EXHF   =        90.84511862
  -V(xc)+E(xc)   XCENC  =       105.56972983
  PAW double counting   =      3438.58842583    -3442.48595073
  entropy T*S    EENTRO =        -0.00000000
  eigenvalues    EBANDS =      -556.79292463
  atomic energy  EATOM  =      1283.03459231
  ---------------------------------------------------
  free energy    TOTEN  =      -125.76678341 eV

  energy without entropy =     -125.76678341  energy(sigma->0) =     -125.76678341
  exchange ACFDT corr.  =        -0.00000000  see jH, gK, PRB 81, 115126


--------------------------------------------------------------------------------------------------------




--------------------------------------- Iteration      1(   2)  ---------------------------------------


    POTLOK:  cpu time    332.5729: real time    332.6005
    SETDIJ:  cpu time      0.0704: real time      0.0704
    TRIAL :  cpu time    145.3905: real time    145.4056
    CORREC:  cpu time      0.0021: real time      0.0021
    CHARGE:  cpu time      2.6223: real time      2.6226
    --------------------------------------------
      LOOP:  cpu time    480.6839: real time    480.7332

 eigenvalue-minimisations  :     0
 total energy-change (2. order) :-0.6857027E-01  (-0.4668259E-01)
 number of electron      41.9999996 magnetization       0.0000000
 augmentation part        0.9666003 magnetization      -0.0000007

 Free energy of the ion-electron system (eV)
  ---------------------------------------------------
  alpha Z        PSCENC =         0.12380491
  Ewald energy   TEWEN  =      3964.65754679
  -Hartree energ DENC   =     -5012.52517320
  -exchange      EXHF   =        90.89194447
  -V(xc)+E(xc)   XCENC  =       105.56068500
  PAW double counting   =      3525.58381278    -3529.44080883
  entropy T*S    EENTRO =        -0.00000000
  eigenvalues    EBANDS =      -557.25006442
  atomic energy  EATOM  =      1283.03459231
  ---------------------------------------------------
  free energy    TOTEN  =      -125.83535368 eV

  energy without entropy =     -125.83535368  energy(sigma->0) =     -125.83535368
  exchange ACFDT corr.  =         0.00000000  see jH, gK, PRB 81, 115126


--------------------------------------------------------------------------------------------------------




--------------------------------------- Iteration      1(   3)  ---------------------------------------


    POTLOK:  cpu time    333.2989: real time    333.3238
    SETDIJ:  cpu time      0.0725: real time      0.0725
    TRIAL :  cpu time    147.4024: real time    147.4134
    CORREC:  cpu time      0.0037: real time      0.0037
    CHARGE:  cpu time      2.7962: real time      2.7964
    --------------------------------------------
      LOOP:  cpu time    483.5938: real time    483.6362

 eigenvalue-minimisations  :     0
 total energy-change (2. order) :-0.3154744E-01  (-0.1352117E-01)
 number of electron      41.9999996 magnetization       0.0000000
 augmentation part        0.9636529 magnetization      -0.0000008

 Free energy of the ion-electron system (eV)
  ---------------------------------------------------
  alpha Z        PSCENC =         0.12380491
  Ewald energy   TEWEN  =      3964.65754679
  -Hartree energ DENC   =     -5012.46508364
  -exchange      EXHF   =        90.92652631
  -V(xc)+E(xc)   XCENC  =       105.54377967
  PAW double counting   =      3619.46485110    -3623.28255262
  entropy T*S    EENTRO =        -0.00000000
  eigenvalues    EBANDS =      -557.75956844
  atomic energy  EATOM  =      1283.03459231
  ---------------------------------------------------
  free energy    TOTEN  =      -125.86690112 eV

  energy without entropy =     -125.86690112  energy(sigma->0) =     -125.86690112
  exchange ACFDT corr.  =         0.00000000  see jH, gK, PRB 81, 115126


--------------------------------------------------------------------------------------------------------




--------------------------------------- Iteration      1(   4)  ---------------------------------------


    POTLOK:  cpu time    307.6508: real time    307.6774
    SETDIJ:  cpu time      0.0712: real time      0.0712
    TRIAL :  cpu time    148.5599: real time    148.5728
    CORREC:  cpu time      0.0041: real time      0.0041
    CHARGE:  cpu time      2.9862: real time      2.9865
    --------------------------------------------
      LOOP:  cpu time    459.3075: real time    459.3524

 eigenvalue-minimisations  :     0
 total energy-change (2. order) :-0.8584268E-02  (-0.3740345E-02)
 number of electron      41.9999996 magnetization       0.0000000
 augmentation part        0.9624812 magnetization      -0.0000007

 Free energy of the ion-electron system (eV)
  ---------------------------------------------------
  alpha Z        PSCENC =         0.12380491
  Ewald energy   TEWEN  =      3964.65754679
  -Hartree energ DENC   =     -5012.62019577
  -exchange      EXHF   =        90.95570742
  -V(xc)+E(xc)   XCENC  =       105.54176898
  PAW double counting   =      3682.58808478    -3686.38296379
  entropy T*S    EENTRO =        -0.00000000
  eigenvalues    EBANDS =      -557.75554209
  atomic energy  EATOM  =      1283.03459231
  ---------------------------------------------------
  free energy    TOTEN  =      -125.87548539 eV

  energy without entropy =     -125.87548539  energy(sigma->0) =     -125.87548539
  exchange ACFDT corr.  =        -0.00000000  see jH, gK, PRB 81, 115126


--------------------------------------------------------------------------------------------------------




--------------------------------------- Iteration      1(   5)  ---------------------------------------


    POTLOK:  cpu time    307.2401: real time    307.2629
    SETDIJ:  cpu time      0.0718: real time      0.0718
    TRIAL :  cpu time    147.6491: real time    147.6602
    CORREC:  cpu time      0.0092: real time      0.0092
    CHARGE:  cpu time      3.9308: real time      3.9311
    --------------------------------------------
      LOOP:  cpu time    458.9330: real time    458.9734

 eigenvalue-minimisations  :     0
 total energy-change (2. order) :-0.2301421E-02  (-0.1251617E-02)
 number of electron      41.9999996 magnetization       0.0000000
 augmentation part        0.9621765 magnetization      -0.0000004

 Free energy of the ion-electron system (eV)
  ---------------------------------------------------
  alpha Z        PSCENC =         0.12380491
  Ewald energy   TEWEN  =      3964.65754679
  -Hartree energ DENC   =     -5012.89651947
  -exchange      EXHF   =        90.97995224
  -V(xc)+E(xc)   XCENC  =       105.55076475
  PAW double counting   =      3714.12007477    -3717.90550469
  entropy T*S    EENTRO =        -0.00000000
  eigenvalues    EBANDS =      -557.49813721
  atomic energy  EATOM  =      1283.03459231
  ---------------------------------------------------
  free energy    TOTEN  =      -125.87778681 eV

  energy without entropy =     -125.87778681  energy(sigma->0) =     -125.87778681
  exchange ACFDT corr.  =        -0.00000000  see jH, gK, PRB 81, 115126


--------------------------------------------------------------------------------------------------------




--------------------------------------- Iteration      1(   6)  ---------------------------------------


    POTLOK:  cpu time    302.2391: real time    302.2650
    SETDIJ:  cpu time      0.0719: real time      0.0719
    TRIAL :  cpu time    148.7949: real time    148.8081
    CORREC:  cpu time      0.0011: real time      0.0011
    CHARGE:  cpu time      3.3389: real time      3.3392
    --------------------------------------------
      LOOP:  cpu time    454.4795: real time    454.5272

 eigenvalue-minimisations  :     0
 total energy-change (2. order) :-0.8165913E-03  (-0.6064560E-03)
 number of electron      41.9999996 magnetization       0.0000000
 augmentation part        0.9621959 magnetization      -0.0000003

 Free energy of the ion-electron system (eV)
  ---------------------------------------------------
  alpha Z        PSCENC =         0.12380491
  Ewald energy   TEWEN  =      3964.65754679
  -Hartree energ DENC   =     -5013.05007749
  -exchange      EXHF   =        90.99415374
  -V(xc)+E(xc)   XCENC  =       105.55891037
  PAW double counting   =      3724.93287122    -3728.71558334
  entropy T*S    EENTRO =        -0.00000000
  eigenvalues    EBANDS =      -557.33024433
  atomic energy  EATOM  =      1283.03459231
  ---------------------------------------------------
  free energy    TOTEN  =      -125.87860340 eV

  energy without entropy =     -125.87860340  energy(sigma->0) =     -125.87860340
  exchange ACFDT corr.  =        -0.00000000  see jH, gK, PRB 81, 115126


--------------------------------------------------------------------------------------------------------




--------------------------------------- Iteration      1(   7)  ---------------------------------------


    POTLOK:  cpu time    297.5910: real time    297.6165
    SETDIJ:  cpu time      0.0713: real time      0.0713
    TRIAL :  cpu time    147.6897: real time    147.7011
    CORREC:  cpu time      0.0064: real time      0.0064
    CHARGE:  cpu time      2.3916: real time      2.3918
    --------------------------------------------
      LOOP:  cpu time    447.7823: real time    447.8254

 eigenvalue-minimisations  :     0
 total energy-change (2. order) :-0.4346296E-03  (-0.3116694E-03)
 number of electron      41.9999996 magnetization       0.0000000
 augmentation part        0.9622947 magnetization      -0.0000003

 Free energy of the ion-electron system (eV)
  ---------------------------------------------------
  alpha Z        PSCENC =         0.12380491
  Ewald energy   TEWEN  =      3964.65754679
  -Hartree energ DENC   =     -5013.05470197
  -exchange      EXHF   =        90.99882068
  -V(xc)+E(xc)   XCENC  =       105.56220665
  PAW double counting   =      3724.84917745    -3728.63193725
  entropy T*S    EENTRO =        -0.00000000
  eigenvalues    EBANDS =      -557.31052227
  atomic energy  EATOM  =      1283.03459231
  ---------------------------------------------------
  free energy    TOTEN  =      -125.87903803 eV

  energy without entropy =     -125.87903803  energy(sigma->0) =     -125.87903803
  exchange ACFDT corr.  =        -0.00000000  see jH, gK, PRB 81, 115126


--------------------------------------------------------------------------------------------------------




--------------------------------------- Iteration      1(   8)  ---------------------------------------


    POTLOK:  cpu time    287.6899: real time    287.7147
    SETDIJ:  cpu time      0.0705: real time      0.0705
    TRIAL :  cpu time    146.7799: real time    146.7951
    CORREC:  cpu time      0.0007: real time      0.0006
    CHARGE:  cpu time      2.5808: real time      2.5810
    --------------------------------------------
      LOOP:  cpu time    437.1458: real time    437.2117

 eigenvalue-minimisations  :     0
 total energy-change (2. order) :-0.2292314E-03  (-0.1469301E-03)
 number of electron      41.9999996 magnetization       0.0000000
 augmentation part        0.9623855 magnetization      -0.0000004

 Free energy of the ion-electron system (eV)
  ---------------------------------------------------
  alpha Z        PSCENC =         0.12380491
  Ewald energy   TEWEN  =      3964.65754679
  -Hartree energ DENC   =     -5013.01125914
  -exchange      EXHF   =        90.99867160
  -V(xc)+E(xc)   XCENC  =       105.56256859
  PAW double counting   =      3720.42165851    -3724.20533864
  entropy T*S    EENTRO =        -0.00000000
  eigenvalues    EBANDS =      -557.34765293
  atomic energy  EATOM  =      1283.03459231
  ---------------------------------------------------
  free energy    TOTEN  =      -125.87926726 eV

  energy without entropy =     -125.87926726  energy(sigma->0) =     -125.87926726
  exchange ACFDT corr.  =         0.00000000  see jH, gK, PRB 81, 115126


--------------------------------------------------------------------------------------------------------




--------------------------------------- Iteration      1(   9)  ---------------------------------------


    POTLOK:  cpu time    271.5528: real time    271.5735
    SETDIJ:  cpu time      0.0717: real time      0.0717
    TRIAL :  cpu time    147.9944: real time    148.0073
    CORREC:  cpu time      0.0011: real time      0.0011
    CHARGE:  cpu time      2.5839: real time      2.5842
    --------------------------------------------
      LOOP:  cpu time    422.2648: real time    422.3075

 eigenvalue-minimisations  :     0
 total energy-change (2. order) :-0.1083474E-03  (-0.6434627E-04)
 number of electron      41.9999996 magnetization       0.0000000
 augmentation part        0.9624537 magnetization      -0.0000004

 Free energy of the ion-electron system (eV)
  ---------------------------------------------------
  alpha Z        PSCENC =         0.12380491
  Ewald energy   TEWEN  =      3964.65754679
  -Hartree energ DENC   =     -5012.99348598
  -exchange      EXHF   =        90.99774480
  -V(xc)+E(xc)   XCENC  =       105.56253696
  PAW double counting   =      3715.44409617    -3719.22876509
  entropy T*S    EENTRO =        -0.00000000
  eigenvalues    EBANDS =      -557.36605926
  atomic energy  EATOM  =      1283.03459231
  ---------------------------------------------------
  free energy    TOTEN  =      -125.87937561 eV

  energy without entropy =     -125.87937561  energy(sigma->0) =     -125.87937561
  exchange ACFDT corr.  =        -0.00000000  see jH, gK, PRB 81, 115126


--------------------------------------------------------------------------------------------------------




--------------------------------------- Iteration      1(  10)  ---------------------------------------


    POTLOK:  cpu time    266.7575: real time    266.7803
    SETDIJ:  cpu time      0.2509: real time      0.2509
    TRIAL :  cpu time    148.5436: real time    148.5573
    CORREC:  cpu time      0.0057: real time      0.0057
    CHARGE:  cpu time      2.8228: real time      2.8231
    --------------------------------------------
      LOOP:  cpu time    418.4101: real time    418.4609

 eigenvalue-minimisations  :     0
 total energy-change (2. order) :-0.4761830E-04  (-0.2837490E-04)
 number of electron      41.9999996 magnetization       0.0000000
 augmentation part        0.9624934 magnetization      -0.0000004

 Free energy of the ion-electron system (eV)
  ---------------------------------------------------
  alpha Z        PSCENC =         0.12380491
  Ewald energy   TEWEN  =      3964.65754679
  -Hartree energ DENC   =     -5012.99339894
  -exchange      EXHF   =        90.99708907
  -V(xc)+E(xc)   XCENC  =       105.56258256
  PAW double counting   =      3711.93486959    -3715.72033313
  entropy T*S    EENTRO =        -0.00000000
  eigenvalues    EBANDS =      -557.36698837
  atomic energy  EATOM  =      1283.03459231
  ---------------------------------------------------
  free energy    TOTEN  =      -125.87942323 eV

  energy without entropy =     -125.87942323  energy(sigma->0) =     -125.87942323
  exchange ACFDT corr.  =        -0.00000000  see jH, gK, PRB 81, 115126


--------------------------------------------------------------------------------------------------------




--------------------------------------- Iteration      1(  11)  ---------------------------------------


    POTLOK:  cpu time    257.7295: real time    257.7492
    SETDIJ:  cpu time      0.0703: real time      0.0703
    TRIAL :  cpu time    148.3954: real time    148.4065
    CORREC:  cpu time      0.0029: real time      0.0029
    CHARGE:  cpu time      2.7508: real time      2.7510
    --------------------------------------------
      LOOP:  cpu time    409.0046: real time    409.0453

 eigenvalue-minimisations  :     0
 total energy-change (2. order) :-0.2145320E-04  (-0.1380382E-04)
 number of electron      41.9999996 magnetization       0.0000000
 augmentation part        0.9625141 magnetization      -0.0000003

 Free energy of the ion-electron system (eV)
  ---------------------------------------------------
  alpha Z        PSCENC =         0.12380491
  Ewald energy   TEWEN  =      3964.65754679
  -Hartree energ DENC   =     -5012.99023273
  -exchange      EXHF   =        90.99661137
  -V(xc)+E(xc)   XCENC  =       105.56249458
  PAW double counting   =      3709.91779433    -3713.70376082
  entropy T*S    EENTRO =        -0.00000000
  eigenvalues    EBANDS =      -557.36866847
  atomic energy  EATOM  =      1283.03459231
  ---------------------------------------------------
  free energy    TOTEN  =      -125.87944468 eV

  energy without entropy =     -125.87944468  energy(sigma->0) =     -125.87944468
  exchange ACFDT corr.  =        -0.00000000  see jH, gK, PRB 81, 115126


--------------------------------------------------------------------------------------------------------




--------------------------------------- Iteration      1(  12)  ---------------------------------------


    POTLOK:  cpu time    246.1344: real time    246.1554
    SETDIJ:  cpu time      0.0713: real time      0.0713
    TRIAL :  cpu time    148.0260: real time    148.0392
    CORREC:  cpu time      0.0027: real time      0.0027
    CHARGE:  cpu time      2.4043: real time      2.4045
    --------------------------------------------
      LOOP:  cpu time    396.6831: real time    396.7226

 eigenvalue-minimisations  :     0
 total energy-change (2. order) :-0.1088920E-04  (-0.7364638E-05)
 number of electron      41.9999996 magnetization      -0.0000000
 augmentation part        0.9625280 magnetization      -0.0000002

 Free energy of the ion-electron system (eV)
  ---------------------------------------------------
  alpha Z        PSCENC =         0.12380491
  Ewald energy   TEWEN  =      3964.65754679
  -Hartree energ DENC   =     -5012.98437031
  -exchange      EXHF   =        90.99636974
  -V(xc)+E(xc)   XCENC  =       105.56237567
  PAW double counting   =      3709.04038215    -3712.82655757
  entropy T*S    EENTRO =        -0.00000000
  eigenvalues    EBANDS =      -557.37252818
  atomic energy  EATOM  =      1283.03459231
  ---------------------------------------------------
  free energy    TOTEN  =      -125.87945557 eV

  energy without entropy =     -125.87945557  energy(sigma->0) =     -125.87945557
  exchange ACFDT corr.  =         0.00000000  see jH, gK, PRB 81, 115126


--------------------------------------------------------------------------------------------------------




--------------------------------------- Iteration      1(  13)  ---------------------------------------


    POTLOK:  cpu time    234.2501: real time    234.2676
    SETDIJ:  cpu time      0.0711: real time      0.0711
    TRIAL :  cpu time    146.6040: real time    146.6149
    CORREC:  cpu time      0.0008: real time      0.0008
    CHARGE:  cpu time      2.9524: real time      2.9526
    --------------------------------------------
      LOOP:  cpu time    383.9018: real time    383.9398

 eigenvalue-minimisations  :     0
 total energy-change (2. order) :-0.6093305E-05  (-0.4308785E-05)
 number of electron      41.9999996 magnetization      -0.0000000
 augmentation part        0.9625390 magnetization      -0.0000002

 Free energy of the ion-electron system (eV)
  ---------------------------------------------------
  alpha Z        PSCENC =         0.12380491
  Ewald energy   TEWEN  =      3964.65754679
  -Hartree energ DENC   =     -5012.98367036
  -exchange      EXHF   =        90.99640871
  -V(xc)+E(xc)   XCENC  =       105.56239652
  PAW double counting   =      3708.85527886    -3712.64154157
  entropy T*S    EENTRO =        -0.00000000
  eigenvalues    EBANDS =      -557.37258007
  atomic energy  EATOM  =      1283.03459231
  ---------------------------------------------------
  free energy    TOTEN  =      -125.87946167 eV

  energy without entropy =     -125.87946167  energy(sigma->0) =     -125.87946167
  exchange ACFDT corr.  =        -0.00000000  see jH, gK, PRB 81, 115126


--------------------------------------------------------------------------------------------------------


  average scaling for gradient   1.9256


 average (electrostatic) potential at core
  the test charge radii are     0.6991  0.5201
  (the norm of the test charge is              1.0000)
       1 -54.8203       2 -54.8062       3 -55.0658       4 -54.4967       5 -55.0658
       6 -54.4967       7 -54.8062       8 -54.8203       9 -37.4899      10 -37.4598
      11 -37.4899      12 -37.4899      13 -37.4595      14 -37.4899      15 -37.7428
      16 -37.7218      17 -37.7218      18 -37.7428
 
 
 
 E-fermi :  -6.1982     XC(G=0):  -0.0224     alpha+bet : -0.0168

 Fermi energy:        -6.1981799346

 spin component 1

 k-point     1 :       0.0000    0.0000    0.0000
  band No.  band energies     occupation 
      1     -23.6339      1.00000
      2     -21.3183      1.00000
      3     -20.9006      1.00000
      4     -19.0367      1.00000
      5     -18.3486      1.00000
      6     -16.2293      1.00000
      7     -15.5961      1.00000
      8     -13.5126      1.00000
      9     -12.7463      1.00000
     10     -12.0318      1.00000
     11     -11.6787      1.00000
     12     -11.0717      1.00000
     13     -10.8316      1.00000
     14     -10.6265      1.00000
     15     -10.2889      1.00000
     16     -10.2632      1.00000
     17      -9.5243      1.00000
     18      -8.9420      1.00000
     19      -8.9318      1.00000
     20      -6.7287      1.00000
     21      -6.4449      1.00000
     22      -0.5954      0.00000
     23      -0.5640      0.00000
     24      -0.3315      0.00000
     25      -0.0366      0.00000
     26       0.0323      0.00000
     27       0.0148      0.00000
     28       0.0865      0.00000
     29       0.0988      0.00000
     30       0.0987      0.00000
     31       0.1150      0.00000
     32       0.1239      0.00000
     33       0.1303      0.00000
     34       0.1591      0.00000
     35       0.1891      0.00000
     36       0.1916      0.00000
     37       0.1908      0.00000
     38       0.1915      0.00000
     39       0.1922      0.00000
     40       0.1936      0.00000
     41       0.3585      0.00000
     42       0.3307      0.00000
 Fermi energy:        -6.1981799346

 spin component 2

 k-point     1 :       0.0000    0.0000    0.0000
  band No.  band energies     occupation 
      1     -23.6339      1.00000
      2     -21.3183      1.00000
      3     -20.9006      1.00000
      4     -19.0367      1.00000
      5     -18.3486      1.00000
      6     -16.2293      1.00000
      7     -15.5961      1.00000
      8     -13.5126      1.00000
      9     -12.7463      1.00000
     10     -12.0318      1.00000
     11     -11.6787      1.00000
     12     -11.0717      1.00000
     13     -10.8316      1.00000
     14     -10.6265      1.00000
     15     -10.2889      1.00000
     16     -10.2632      1.00000
     17      -9.5243      1.00000
     18      -8.9420      1.00000
     19      -8.9318      1.00000
     20      -6.7287      1.00000
     21      -6.4449      1.00000
     22      -0.5954      0.00000
     23      -0.5640      0.00000
     24      -0.3315      0.00000
     25      -0.0365      0.00000
     26       0.0323      0.00000
     27       0.0148      0.00000
     28       0.0865      0.00000
     29       0.0988      0.00000
     30       0.0987      0.00000
     31       0.1151      0.00000
     32       0.1239      0.00000
     33       0.1304      0.00000
     34       0.1592      0.00000
     35       0.1891      0.00000
     36       0.1917      0.00000
     37       0.1909      0.00000
     38       0.1916      0.00000
     39       0.1936      0.00000
     40       0.1929      0.00000
     41       0.4300      0.00000
     42       0.3479      0.00000


--------------------------------------------------------------------------------------------------------


 soft charge-density along one line, spin component           1
         0         1         2         3         4         5         6         7         8         9
 total charge-density along one line
 
 soft charge-density along one line, spin component           2
         0         1         2         3         4         5         6         7         8         9
 total charge-density along one line
 
 pseudopotential strength for first ion, spin component:           1
  9.973  13.260   0.000   0.000   0.001  -0.001  -0.000  -0.002
 13.260  17.630   0.000   0.000   0.001  -0.001  -0.000  -0.003
  0.000   0.000  -4.194  -0.000   0.000   8.177   0.000  -0.000
  0.000   0.000  -0.000  -4.195  -0.000   0.000   8.182   0.000
  0.001   0.001   0.000  -0.000  -4.194  -0.000   0.000   8.177
 -0.001  -0.001   8.177   0.000  -0.000 -18.058  -0.000  -0.000
 -0.000  -0.000   0.000   8.182   0.000  -0.000 -18.073  -0.000
 -0.002  -0.003  -0.000   0.000   8.177  -0.000  -0.000 -18.058
 pseudopotential strength for first ion, spin component:           2
  9.973  13.260   0.000   0.000   0.001  -0.001  -0.000  -0.002
 13.260  17.630   0.000   0.000   0.001  -0.001  -0.000  -0.003
  0.000   0.000  -4.194  -0.000   0.000   8.177   0.000  -0.000
  0.000   0.000  -0.000  -4.195  -0.000   0.000   8.182   0.000
  0.001   0.001   0.000  -0.000  -4.194  -0.000   0.000   8.177
 -0.001  -0.001   8.177   0.000  -0.000 -18.058  -0.000  -0.000
 -0.000  -0.000   0.000   8.182   0.000  -0.000 -18.073  -0.000
 -0.002  -0.003  -0.000   0.000   8.177  -0.000  -0.000 -18.058
 total augmentation occupancy for first ion, spin component:           1
  8.779  -3.961   0.125  -0.000   0.215   0.025  -0.000   0.043
 -3.961   1.822  -0.079   0.000  -0.137  -0.015   0.000  -0.026
  0.125  -0.079   1.852   0.000  -0.042   0.177   0.000  -0.008
 -0.000   0.000   0.000   1.157  -0.000   0.000   0.076  -0.000
  0.215  -0.137  -0.042  -0.000   1.800  -0.008  -0.000   0.167
  0.025  -0.015   0.177   0.000  -0.008   0.018   0.000  -0.001
 -0.000   0.000   0.000   0.076  -0.000   0.000   0.005  -0.000
  0.043  -0.026  -0.008  -0.000   0.167  -0.001  -0.000   0.016
 total augmentation occupancy for first ion, spin component:           2
  0.000  -0.000  -0.000   0.000  -0.000  -0.000   0.000  -0.000
 -0.000   0.000   0.000  -0.000   0.000   0.000  -0.000   0.000
 -0.000   0.000   0.000   0.000   0.000   0.000  -0.000  -0.000
  0.000  -0.000   0.000   0.000  -0.000  -0.000   0.000   0.000
 -0.000   0.000   0.000  -0.000   0.000   0.000  -0.000  -0.000
 -0.000   0.000   0.000  -0.000   0.000   0.000  -0.000  -0.000
  0.000  -0.000  -0.000   0.000  -0.000  -0.000   0.000  -0.000
 -0.000   0.000  -0.000   0.000  -0.000  -0.000  -0.000  -0.000


------------------------ aborting loop because EDIFF is reached ----------------------------------------


    FORLOC:  cpu time      0.2638: real time      0.2638
    FORHF :  cpu time     72.5992: real time     72.6056
    FORNL :  cpu time      4.8513: real time      4.8517
    STRESS:  cpu time     14.2510: real time     14.2523
    FORCOR:  cpu time     14.6257: real time     14.6269
    OFIELD:  cpu time      0.0193: real time      0.0193
 WARNING: Using user supplied parameters
     VDW_A1 = 0.383
     VDW_A2 = 5.685
     VDW_S8 = 2.31
     because the xc functional is not supported. Required parameters not
     defined in the INCAR file will be replaced with PBE defaults ones.


 ---------------------------------------------------------------------------------------------

         DFTD3 V3.0 Rev 1        
 IVDW         = 12
 DF unknown   
 parameters
 VDW_S6       =    1.0000
 VDW_S8       =    2.3100
 VDW_A1       =    0.3830
 VDW_A2       =    5.6850
 k1-k3        =   16.0000    1.3333   -4.0000
 VDW_RADIUS   =   50.2022 A
 VDW_CNRADIUS =   21.1671 A
 Edisp (eV)   -0.32024

 E6    (eV) :    -0.1659
 E8    (eV) :    -0.1543
 % E8        : 48.19
    FORVDW:  cpu time      0.0086: real time      0.0088

  FORCE on cell =-STRESS in cart. coord.  units (eV):
  Direction    XX          YY          ZZ          XY          YZ          ZX
  --------------------------------------------------------------------------------------
  Alpha Z     0.12380     0.12380     0.12380
  Ewald    2197.35081  1861.22130   -93.91551     0.00063     0.02070    -0.03435
  Hartree  2287.41850  2003.41590   722.15166    -0.00193     0.01482    -0.02380
  E(xc)    -113.47570  -113.52323  -114.94775     0.00000     0.00001    -0.00002
  Local   -4860.86912 -4234.94031 -1053.27038     0.00218    -0.03519     0.05748
  n-local   -51.74437   -52.94478   -50.26241    -0.00008    -0.00001     0.00004
  augment    -1.72221    -1.77323    -1.68410    -0.00000     0.00000     0.00000
  Kinetic   580.34756   576.32809   626.56839    -0.00008    -0.00032     0.00037
  Fock      -40.38513   -40.54023   -37.33482    -0.00002    -0.00002     0.00004
  vdW        -0.13158    -0.09363    -0.00490     0.00000    -0.00000     0.00000
  -------------------------------------------------------------------------------------
  Total      -3.08743    -2.72632    -2.57602     0.00000     0.00000     0.00000
  in kB      -0.07729    -0.06825    -0.06449     0.00000     0.00000     0.00000
  external pressure =       -0.07 kB  Pullay stress =        0.00 kB


 VOLUME and BASIS-vectors are now :
 -----------------------------------------------------------------------------
  energy-cutoff  :      500.00
  volume of cell :    64000.00
      direct lattice vectors                 reciprocal lattice vectors
    40.000000000  0.000000000  0.000000000     0.025000000  0.000000000  0.000000000
     0.000000000 40.000000000  0.000000000     0.000000000  0.025000000  0.000000000
     0.000000000  0.000000000 40.000000000     0.000000000  0.000000000  0.025000000

  length of vectors
    40.000000000 40.000000000 40.000000000     0.025000000  0.025000000  0.025000000


 FORCES acting on ions:
    Electron-Ion                     Ewald-Force                    Non-Local-Force
 -----------------------------------------------------------------------------------------------
   0.188E+03 0.935E+02 -.307E-02   -.189E+03 -.935E+02 0.307E-02   0.939E+00 0.497E+00 0.000E+00
   0.552E+02 0.186E+03 -.161E-02   -.552E+02 -.186E+03 0.167E-02   -.757E-01 0.917E+00 0.000E+00
   -.585E+02 0.788E+02 0.168E-02   0.580E+02 -.787E+02 -.163E-02   -.325E+00 0.212E+00 0.000E+00
   -.144E+03 0.121E+03 0.461E-02   0.143E+03 -.122E+03 -.438E-02   -.366E+00 0.588E+00 0.000E+00
   -.585E+02 -.788E+02 0.240E-03   0.580E+02 0.787E+02 -.206E-03   -.325E+00 -.212E+00 0.000E+00
   -.144E+03 -.121E+03 -.156E-02   0.143E+03 0.122E+03 0.155E-02   -.366E+00 -.588E+00 0.000E+00
   0.552E+02 -.186E+03 -.359E-03   -.552E+02 0.186E+03 0.316E-03   -.757E-01 -.917E+00 0.000E+00
   0.188E+03 -.935E+02 -.461E-02   -.189E+03 0.935E+02 0.465E-02   0.939E+00 -.497E+00 0.000E+00
   -.577E+02 0.898E+01 -.548E+02   0.605E+02 -.787E+01 0.589E+02   -.299E+01 -.115E+01 -.426E+01
   -.140E+02 0.800E+02 -.467E-02   0.132E+02 -.852E+02 0.511E-02   0.831E+00 0.536E+01 0.000E+00
   -.577E+02 0.899E+01 0.548E+02   0.604E+02 -.787E+01 -.589E+02   -.299E+01 -.115E+01 0.426E+01
   -.577E+02 -.898E+01 0.548E+02   0.605E+02 0.787E+01 -.589E+02   -.299E+01 0.115E+01 0.426E+01
   -.140E+02 -.800E+02 0.541E-02   0.132E+02 0.852E+02 -.581E-02   0.831E+00 -.536E+01 0.000E+00
   -.577E+02 -.899E+01 -.548E+02   0.604E+02 0.788E+01 0.589E+02   -.299E+01 0.115E+01 -.426E+01
   0.753E+02 -.417E+02 -.379E-03   -.798E+02 0.444E+02 0.411E-03   0.486E+01 -.286E+01 0.000E+00
   0.118E+02 -.860E+02 -.116E-02   -.118E+02 0.912E+02 0.122E-02   -.449E-02 -.560E+01 0.000E+00
   0.118E+02 0.860E+02 0.735E-03   -.118E+02 -.912E+02 -.793E-03   -.449E-02 0.560E+01 0.000E+00
   0.753E+02 0.417E+02 -.267E-03   -.798E+02 -.444E+02 0.292E-03   0.486E+01 0.286E+01 0.000E+00
 -----------------------------------------------------------------------------------------------
   0.255E+00 -.987E-03 -.437E-03   -.568E-13 0.924E-13 -.135E-13   -.239E+00 -.222E-14 0.000E+00
 
 
 POSITION                                       TOTAL-FORCE (eV/Angst)
 -----------------------------------------------------------------------------------
     17.78356     19.30117     20.00004         0.181069      0.147776      0.000000
     19.00070     18.61196     20.00001         0.042365      0.191422      0.000000
     20.22734     19.29220     19.99999        -0.185504      0.135226      0.000000
     21.52422     18.52627     19.99995         0.030400      0.006831      0.000000
     20.22734     20.70780     20.00001        -0.185504     -0.135226      0.000000
     21.52422     21.47369     20.00001         0.030400     -0.006831      0.000000
     19.00070     21.38804     20.00003         0.042365     -0.191422      0.000000
     17.78356     20.69883     20.00004         0.181069     -0.147776      0.000000
     22.13662     18.77223     20.88196        -0.150944     -0.053314     -0.187209
     21.34421     17.44348     20.00004         0.027567      0.246715      0.000000
     22.13647     18.77210     19.11780        -0.150944     -0.053314      0.187209
     22.13658     21.22777     19.11796        -0.150944      0.053314      0.187209
     21.34421     22.55652     19.99992         0.027567     -0.246715      0.000000
     22.13651     21.22790     20.88216        -0.150944      0.053314     -0.187209
     16.84297     21.25217     20.00004         0.214733     -0.131470      0.000000
     19.00394     22.48106     20.00004        -0.008741     -0.265496      0.000000
     19.00394     17.51894     20.00000        -0.008741      0.265496      0.000000
     16.84297     18.74783     20.00004         0.214733      0.131470      0.000000
 -----------------------------------------------------------------------------------
    total drift:                                0.021939     -0.000987     -0.000437


--------------------------------------------------------------------------------------------------------



  FREE ENERGIE OF THE ION-ELECTRON SYSTEM (eV)
  ---------------------------------------------------
  free  energy   TOTEN  =      -126.19970162 eV

  energy  without entropy=     -126.19970162  energy(sigma->0) =     -126.19970162
 


--------------------------------------------------------------------------------------------------------


    POTLOK:  cpu time    230.8552: real time    230.8743


--------------------------------------------------------------------------------------------------------


 writing wavefunctions
     LOOP+:  cpu time   6173.2006: real time   6176.1008
    4ORBIT:  cpu time      0.0000: real time      0.0000

 total amount of memory used by VASP MPI-rank0   497891. kBytes
=======================================================================

   base      :      30000. kBytes
   nonlr-proj:       2515. kBytes
   fftplans  :     129164. kBytes
   grid      :     263386. kBytes
   one-center:          6. kBytes
   HF        :          4. kBytes
   wavefun   :      72816. kBytes
   fock_wrk  :          0. kBytes
 
  
  
 General timing and accounting informations for this job:
 ========================================================
  
                  Total CPU time used (sec):     6223.710
                            User time (sec):     2882.658
                          System time (sec):     3341.052
                         Elapsed time (sec):     6228.652
  
                   Maximum memory used (kb):     1633356.
                   Average memory used (kb):          N/A
  
                          Minor page faults:     13493168
                          Major page faults:            0
                 Voluntary context switches:         3296
