
                                 *****************
                                 * O   R   C   A *
                                 *****************

                                            #,                                       
                                            ###                                      
                                            ####                                     
                                            #####                                    
                                            ######                                   
                                           ########,                                 
                                     ,,################,,,,,                         
                               ,,#################################,,                 
                          ,,##########################################,,             
                       ,#########################################, ''#####,          
                    ,#############################################,,   '####,        
                  ,##################################################,,,,####,       
                ,###########''''           ''''###############################       
              ,#####''   ,,,,##########,,,,          '''####'''          '####       
            ,##' ,,,,###########################,,,                        '##       
           ' ,,###''''                  '''############,,,                           
         ,,##''                                '''############,,,,        ,,,,,,###''
      ,#''                                            '''#######################'''  
     '                                                          ''''####''''         
             ,#######,   #######,   ,#######,      ##                                
            ,#'     '#,  ##    ##  ,#'     '#,    #''#        ,####,   ,####,        
            ##       ##  ##   ,#'  ##            #'  '#       #'       #'  '#        
            ##       ##  #######   ##           ,######,      #####,   #    #        
            '#,     ,#'  ##    ##  '#,     ,#' ,#      #,     #,   #   #,  ,#        
             '#######'   ##     ##  '#######'  #'      '#     '####' # '####'        



                #########################################################
                #                        -***-                          #
                #          Department of theory and spectroscopy        #
                #                                                       #
                #                      Frank Neese                      #
                #                                                       #
                #     Directorship, Architecture, Infrastructure        #
                #                    SHARK, DRIVERS                     #
                #        Core code/Algorithms in most modules           #
                #                                                       #
                #        Max Planck Institute fuer Kohlenforschung      #
                #                Kaiser Wilhelm Platz 1                 #
                #                 D-45470 Muelheim/Ruhr                 #
                #                      Germany                          #
                #                                                       #
                #                  All rights reserved                  #
                #                        -***-                          #
                #########################################################


                         Program Version 6.0.0  -   RELEASE  -


 With contributions from (in alphabetic order):
   Daniel Aravena         : Magnetic Suceptibility
   Michael Atanasov       : Ab Initio Ligand Field Theory (pilot matlab implementation)
   Alexander A. Auer      : GIAO ZORA, VPT2 properties, NMR spectrum
   Ute Becker             : All parallelization in ORCA, NUMFREQ, NUMCALC
   Giovanni Bistoni       : ED, misc. LED, open-shell LED, HFLD
   Martin Brehm           : Molecular dynamics
   Dmytro Bykov           : pre 5.0 version of the SCF Hessian
   Marcos Casanova-Páez   : Triplet and SCS-CIS(D). UHF-(DLPNO)-IP/EA/STEOM-CCSD. UHF-CVS-IP/STEOM-CCSD
   Vijay G. Chilkuri      : MRCI spin determinant printing, contributions to CSF-ICE
   Pauline Colinet        : FMM embedding
   Dipayan Datta          : RHF DLPNO-CCSD density
   Achintya Kumar Dutta   : EOM-CC, STEOM-CC
   Nicolas Foglia         : Exact transition moments, OPA infrastructure, MCD improvements
   Dmitry Ganyushin       : Spin-Orbit,Spin-Spin,Magnetic field MRCI
   Miquel Garcia          : C-PCM and meta-GGA Hessian, CCSD/C-PCM, Gaussian charge scheme
   Tiago L. C. Gouveia    : GS-ROHF, GS-ROCIS
   Yang Guo               : DLPNO-NEVPT2, F12-NEVPT2, CIM, IAO-localization
   Andreas Hansen         : Spin unrestricted coupled pair/coupled cluster methods
   Ingolf Harden          : AUTO-CI MPn and infrastructure 
   Benjamin Helmich-Paris : MC-RPA, TRAH-(SCF,CASSCF), AVAS, COSX integrals, SCF dyn. polar.
   Lee Huntington         : MR-EOM, pCC
   Robert Izsak           : Overlap fitted RIJCOSX, COSX-SCS-MP3, EOM
   Riya Kayal             : Wick's Theorem for AUTO-CI, AUTO-CI UHF-CCSDT
   Emily Kempfer          : AUTO-CI, RHF CISDT and CCSDT
   Christian Kollmar      : KDIIS, OOCD, Brueckner-CCSD(T), CCSD density, CASPT2, CASPT2-K, improved NEVPT2
   Axel Koslowski         : Symmetry handling
   Simone Kossmann        : Meta GGA functionals, TD-DFT gradient, OOMP2, (MP2 Hessian; deprecated post 5.0)
   Lucas Lang             : DCDCAS
   Marvin Lechner         : AUTO-CI (C++ implementation), FIC-MRCC
   Spencer Leger          : CASSCF response
   Dagmar Lenk            : GEPOL surface, SMD, ORCA-2-JSON
   Dimitrios Liakos       : Extrapolation schemes; Compound Job, initial MDCI parallelization
   Dimitrios Manganas     : Further ROCIS development; embedding schemes. LFT, Crystal Embedding
   Dimitrios Pantazis     : SARC Basis sets
   Anastasios Papadopoulos: AUTO-CI, single reference methods and gradients
   Taras Petrenko         : pre 6.0 DFT Hessian and TD-DFT gradient, (ASA, deprecated), ECA, 1-Electron XAS/XES, NRVS
   Peter Pinski           : DLPNO-MP2, DLPNO-MP2 Gradient
   Christoph Reimann      : Effective Core Potentials
   Marius Retegan         : Local ZFS, SOC
   Christoph Riplinger    : Optimizer, TS searches, QM/MM, DLPNO-CCSD(T), (RO)-DLPNO pert. Triples
   Michael Roemelt        : Original ROCIS implementation
   Masaaki Saitow         : Open-shell DLPNO-CCSD energy and density
   Barbara Sandhoefer     : DKH picture change effects
   Kantharuban Sivalingam : CASSCF convergence/infrastructure, NEVPT2 and variants, FIC-MRCI
   Bernardo de Souza      : ESD, SOC TD-DFT
   Georgi Stoychev        : AutoAux, RI-MP2 NMR, DLPNO-MP2 response, X2C
   Van Anh Tran           : RI-MP2 g-tensors
   Willem Van den Heuvel  : Paramagnetic NMR
   Zikuan Wang            : NOTCH, Electric field optimization 
   Frank Wennmohs         : Technical directorship and infrastructure
   Hang Xu                : AUTO-CI-Response properties 


 We gratefully acknowledge several colleagues who have allowed us to
 interface, adapt or use parts of their codes:
   Stefan Grimme, W. Hujo, H. Kruse, P. Pracht,  : VdW corrections, initial TS optimization,
                  C. Bannwarth, S. Ehlert,         DFT functionals, gCP, sTDA/sTD-DF
                  L. Wittmann, M. Mueller
   Ed Valeev, F. Pavosevic, A. Kumar             : LibInt (2-el integral package), F12 methods
   Garnet Chan, S. Sharma, J. Yang, R. Olivares  : DMRG
   Ulf Ekstrom                                   : XCFun DFT Library
   Mihaly Kallay                                 : mrcc  (arbitrary order and MRCC methods)
   Frank Weinhold                                : gennbo (NPA and NBO analysis)
   Simon Mueller                                 : openCOSMO-RS
   Christopher J. Cramer and Donald G. Truhlar   : smd solvation model
   Lars Goerigk                                  : TD-DFT with DH, B97 family of functionals
   V. Asgeirsson, H. Jonsson                     : NEB implementation
   FAccTs GmbH                                   : IRC, NEB, NEB-TS, DLPNO-Multilevel, CI-OPT
                                                   MM, QMMM, 2- and 3-layer-ONIOM, Crystal-QMMM,
                                                   LR-CPCM, SF, NACMEs, symmetry and pop. for TD-DFT,
                                                   nearIR, NL-DFT gradient (VV10), updates on ESD,
                                                   ML-optimized integration grids, MBIS, APM,
                                                   GOAT, DOCKER, SOLVATOR, interface openCOSMO-RS
   S Lehtola, MJT Oliveira, MAL Marques          : LibXC Library
   Liviu Ungur et al                             : ANISO software


 Your calculation uses the libint2 library for the computation of 2-el integrals
 For citations please refer to: http://libint.valeyev.net

 Your ORCA version has been built with support for libXC version: 6.2.2
 For citations please refer to: https://libxc.gitlab.io

 This ORCA versions uses:
   CBLAS   interface :  Fast vector & matrix operations
   LAPACKE interface :  Fast linear algebra routines
   SCALAPACK package :  Parallel linear algebra routines
   Shared memory     :  Shared parallel matrices
   BLAS/LAPACK       :  OpenBLAS 0.3.27  USE64BITINT DYNAMIC_ARCH NO_AFFINITY Sandybridge SINGLE_THREADED
        Core in use  :  Sandybridge
   Copyright (c) 2011-2014, The OpenBLAS Project


NOTE: MaxCore=3500 MB was set to SCF,MP2,MDCI,CIPSI,MRCI and CIS
      => If you want to overwrite this, your respective input block should be placed after the MaxCore statement
Your calculation utilizes the atom-pairwise dispersion correction
with the Becke-Johnson damping scheme (D3BJ)


Your calculation utilizes the SMD solvation module
Please cite in your paper:
A.V. Marenich, C.J. Cramer, D.G. Truhlar J. Phys. Chem. B, 113, (2009), 6378 

Warning: RI is on but no J-basis has been assigned. Assigning Def2/J (nothing to worry about!)
================================================================================

----- Orbital basis set information -----
Your calculation utilizes the basis: aug-cc-pVTZ 
    H, B-Ne : Obtained from the ccRepo (grant-hill.group.shef.ac.uk/ccrepo) Feb. 2017
              R. A. Kendall, T. H. Dunning, Jr., R. J. Harrison, J. Chem. Phys. 96, 6796 (1992)
         He : Obtained from the ccRepo (grant-hill.group.shef.ac.uk/ccrepo) Feb. 2017
              D. E. Woon, T. H. Dunning, Jr., J. Chem. Phys. 100, 2975 (1994)
  Li-Be, Na : Obtained from the ccRepo (grant-hill.group.shef.ac.uk/ccrepo) Feb. 2017
              B. P. Prascher, D. E. Woon, K. A. Peterson, T. H. Dunning, Jr., A. K. Wilson, Theor. Chem. Acc. 128, 69 (2011)
         Mg : Obtained from the Peterson Research Group Website (tyr0.chem.wsu.edu/~kipeters) Feb. 2017
              B. P. Prascher, D. E. Woon, K. A. Peterson, T. H. Dunning, Jr., A. K. Wilson, Theor. Chem. Acc. 128, 69 (2011)
      Al-Ar : Obtained from the ccRepo (grant-hill.group.shef.ac.uk/ccrepo) Feb. 2017
              D. E. Woon, T. H. Dunning, Jr., J. Chem. Phys. 98, 1358 (1993)
      Sc-Zn : Obtained from the ccRepo (grant-hill.group.shef.ac.uk/ccrepo) Feb. 2017
              N. B. Balabanov, K. A. Peterson, J. Chem. Phys. 123, 064107 (2005)
              N. B. Balabanov, K. A. Peterson, J. Chem. Phys. 125, 074110 (2006)
      Ga-Kr : Obtained from the ccRepo (grant-hill.group.shef.ac.uk/ccrepo) Feb. 2017
              A. K. Wilson, D. E. Woon, K. A. Peterson, T. H. Dunning, Jr., J. Chem. Phys. 110, 7667 (1999)
     Ag, Au : Obtained from the Peterson Research Group Website (tyr0.chem.wsu.edu/~kipeters) Feb. 2017
              K. A. Peterson, C. Puzzarini, Theor. Chem. Acc. 114, 283 (2005)

----- AuxJ basis set information -----
Your calculation utilizes the auxiliary basis: def2/J
   F. Weigend, Phys. Chem. Chem. Phys. 8, 1057 (2006).

================================================================================
                                        WARNINGS
                       Please study these warnings very carefully!
================================================================================


================================================================================
                                       INPUT FILE
================================================================================
NAME = cs_rporg_w09_ox_solv_05.inp
|  1> !PBE0 aug-cc-pVTZ d3 TightSCF SlowConv RIJCOSX defgrid2
|  2> 
|  3> %pal
|  4> nprocs 15
|  5> end
|  6> 
|  7> %scf
|  8> MaxIter 1500
|  9> end
| 10> 
| 11> %maxcore 3500
| 12> 
| 13> !CPCM
| 14> %cpcm smd true
| 15> SMDsolvent "WATER"
| 16> surfacetype gepol_ses
| 17> rsolv 1.40
| 18> end
| 19> 
| 20> * xyz 0 1
| 21> C          -0.05907366598530     -0.02793506437793     -0.04390048443000
| 22> C          -0.02890735437417      1.45710089193008      0.08222581496885
| 23> C           0.02781409212755      2.06300295185481      1.29625580282132
| 24> C           0.05780784816423      1.27059537024470      2.55865678848172
| 25> C           0.02728706606325     -0.21148353395784      2.45495612270071
| 26> C          -0.02843189949116     -0.83640031526210      1.20261036404921
| 27> C          -0.05547047371799     -2.22955810695340      1.11889579291072
| 28> C          -0.02722158045044     -2.99492416088675      2.28117734907788
| 29> C           0.02796540531077     -2.37140543755571      3.53091392418760
| 30> C           0.05520008600593     -0.98250737910286      3.61837358653962
| 31> H           0.09847557758253     -0.46770840832251      4.58128936060527
| 32> H           0.04990261703070     -2.97596484746596      4.44240334694328
| 33> H          -0.04820318575023     -4.08675470796317      2.21598714046560
| 34> H          -0.09870498752579     -2.68915740048288      0.12846959179026
| 35> C           0.06194462166156      3.55006381235348      1.44143215923311
| 36> H          -0.84116618668105      4.01208400301480      1.00272169259353
| 37> H           0.12018684562378      3.82673225712869      2.50411119237925
| 38> H           0.93021072875079      3.98022200468594      0.91048633813469
| 39> C          -0.06163879144342      2.23535286557775     -1.19335579257479
| 40> H           0.84200005659416      2.86322691783085     -1.29721049713274
| 41> H          -0.11947303398066      1.55280359233205     -2.05354858361608
| 42> H          -0.92952293856559      2.91875817267932     -1.21877475276670
| 43> O           0.10605373554418      1.82136872263288      3.64196829309901
| 44> O          -0.10703458249363     -0.56180561393426     -1.13565794046132
| 45> *
| 46> 
| 47>                          ****END OF INPUT****
================================================================================

                       ****************************
                       * Single Point Calculation *
                       ****************************

---------------------------------
CARTESIAN COORDINATES (ANGSTROEM)
---------------------------------
  C     -0.059074   -0.027935   -0.043900
  C     -0.028907    1.457101    0.082226
  C      0.027814    2.063003    1.296256
  C      0.057808    1.270595    2.558657
  C      0.027287   -0.211484    2.454956
  C     -0.028432   -0.836400    1.202610
  C     -0.055470   -2.229558    1.118896
  C     -0.027222   -2.994924    2.281177
  C      0.027965   -2.371405    3.530914
  C      0.055200   -0.982507    3.618374
  H      0.098476   -0.467708    4.581289
  H      0.049903   -2.975965    4.442403
  H     -0.048203   -4.086755    2.215987
  H     -0.098705   -2.689157    0.128470
  C      0.061945    3.550064    1.441432
  H     -0.841166    4.012084    1.002722
  H      0.120187    3.826732    2.504111
  H      0.930211    3.980222    0.910486
  C     -0.061639    2.235353   -1.193356
  H      0.842000    2.863227   -1.297210
  H     -0.119473    1.552804   -2.053549
  H     -0.929523    2.918758   -1.218775
  O      0.106054    1.821369    3.641968
  O     -0.107035   -0.561806   -1.135658

----------------------------
CARTESIAN COORDINATES (A.U.)
----------------------------
  NO LB      ZA    FRAG     MASS         X           Y           Z
   0 C     6.0000    0    12.011   -0.111633   -0.052790   -0.082960
   1 C     6.0000    0    12.011   -0.054627    2.753522    0.155384
   2 C     6.0000    0    12.011    0.052561    3.898511    2.449568
   3 C     6.0000    0    12.011    0.109241    2.401077    4.835161
   4 C     6.0000    0    12.011    0.051565   -0.399646    4.639195
   5 C     6.0000    0    12.011   -0.053729   -1.580568    2.272604
   6 C     6.0000    0    12.011   -0.104824   -4.213254    2.114407
   7 C     6.0000    0    12.011   -0.051441   -5.659586    4.310800
   8 C     6.0000    0    12.011    0.052847   -4.481307    6.672460
   9 C     6.0000    0    12.011    0.104313   -1.856670    6.837735
  10 H     1.0000    0     1.008    0.186092   -0.883841    8.657382
  11 H     1.0000    0     1.008    0.094302   -5.623759    8.394926
  12 H     1.0000    0     1.008   -0.091091   -7.722847    4.187609
  13 H     1.0000    0     1.008   -0.186525   -5.081771    0.242772
  14 C     6.0000    0    12.011    0.117058    6.708648    2.723912
  15 H     1.0000    0     1.008   -1.589574    7.581740    1.894869
  16 H     1.0000    0     1.008    0.227120    7.231476    4.732084
  17 H     1.0000    0     1.008    1.757844    7.521530    1.720570
  18 C     6.0000    0    12.011   -0.116480    4.224205   -2.255116
  19 H     1.0000    0     1.008    1.591150    5.410715   -2.451373
  20 H     1.0000    0     1.008   -0.225771    2.934374   -3.880644
  21 H     1.0000    0     1.008   -1.756544    5.515654   -2.303151
  22 O     8.0000    0    15.999    0.200413    3.441888    6.882323
  23 O     8.0000    0    15.999   -0.202266   -1.061659   -2.146082

--------------------------------
INTERNAL COORDINATES (ANGSTROEM)
--------------------------------
 C      0   0   0     0.000000000000     0.00000000     0.00000000
 C      1   0   0     1.490687640414     0.00000000     0.00000000
 C      2   1   0     1.358014521321   121.39666483     0.00000000
 C      3   2   1     1.490793630718   121.37939371   359.78824334
 C      4   3   2     1.486015889722   118.07450771     0.15160478
 C      5   4   3     1.400712492230   120.54199328     0.00000000
 C      6   5   4     1.395932608140   119.97644319   179.94493496
 C      7   6   5     1.391934485632   119.88731295     0.00000000
 C      8   7   6     1.397734849286   120.13975919     0.00000000
 C      9   8   7     1.391915492099   120.13761842     0.00000000
 H     10   9   8     1.092747700264   121.75089674   180.00966468
 H      9   8   7     1.093977280004   119.94952529   179.99143578
 H      8   7   6     1.093976203850   119.90951176   180.01170488
 H      7   6   5     1.092723566902   118.35194121   180.01392744
 C      3   2   1     1.494520347916   122.12271432   179.85518624
 H     15   3   2     1.105232401924   111.02187394    60.17174371
 H     15   3   2     1.099647358236   110.20771968   180.74872139
 H     15   3   2     1.104909755633   111.01666584   301.55872711
 C      2   1   3     1.494608951854   116.49235238   179.88379098
 H     19   2   1     1.105248747040   110.98323419   240.23997195
 H     19   2   1     1.099613544741   110.21667503     0.82924319
 H     19   2   1     1.104948790731   111.03196184   121.63982331
 O      4   3   2     1.216241245554   120.95336731   180.14128359
 O      1   2   3     1.216245187450   120.93283556   180.15692724

---------------------------
INTERNAL COORDINATES (A.U.)
---------------------------
 C      0   0   0     0.000000000000     0.00000000     0.00000000
 C      1   0   0     2.816991391604     0.00000000     0.00000000
 C      2   1   0     2.566275531185   121.39666483     0.00000000
 C      3   2   1     2.817191684252   121.37939371   359.78824334
 C      4   3   2     2.808163062230   118.07450771     0.15160478
 C      5   4   3     2.646963002678   120.54199328     0.00000000
 C      6   5   4     2.637930330794   119.97644319   179.94493496
 C      7   6   5     2.630374974204   119.88731295     0.00000000
 C      8   7   6     2.641336072988   120.13975919     0.00000000
 C      9   8   7     2.630339081629   120.13761842     0.00000000
 H     10   9   8     2.064993886971   121.75089674   180.00966468
 H      9   8   7     2.067317455939   119.94952529   179.99143578
 H      8   7   6     2.067315422302   119.90951176   180.01170488
 H      7   6   5     2.064948281526   118.35194121   180.01392744
 C      3   2   1     2.824234159134   122.12271432   179.85518624
 H     15   3   2     2.088586553973   111.02187394    60.17174371
 H     15   3   2     2.078032350956   110.20771968   180.74872139
 H     15   3   2     2.087976840844   111.01666584   301.55872711
 C      2   1   3     2.824401596312   116.49235238   179.88379098
 H     19   2   1     2.088617441766   110.98323419   240.23997195
 H     19   2   1     2.077968452711   110.21667503     0.82924319
 H     19   2   1     2.088050606489   111.03196184   121.63982331
 O      4   3   2     2.298362866876   120.95336731   180.14128359
 O      1   2   3     2.298370315981   120.93283556   180.15692724

---------------------
BASIS SET INFORMATION
---------------------
There are 3 groups of distinct atoms

 Group   1 Type C   : 19s6p3d2f contracted to 5s4p3d2f pattern {88111/3111/111/11}
 Group   2 Type H   : 6s3p2d contracted to 4s3p2d pattern {3111/111/11}
 Group   3 Type O   : 19s6p3d2f contracted to 5s4p3d2f pattern {88111/3111/111/11}

Atom   0C    basis set group =>   1
Atom   1C    basis set group =>   1
Atom   2C    basis set group =>   1
Atom   3C    basis set group =>   1
Atom   4C    basis set group =>   1
Atom   5C    basis set group =>   1
Atom   6C    basis set group =>   1
Atom   7C    basis set group =>   1
Atom   8C    basis set group =>   1
Atom   9C    basis set group =>   1
Atom  10H    basis set group =>   2
Atom  11H    basis set group =>   2
Atom  12H    basis set group =>   2
Atom  13H    basis set group =>   2
Atom  14C    basis set group =>   1
Atom  15H    basis set group =>   2
Atom  16H    basis set group =>   2
Atom  17H    basis set group =>   2
Atom  18C    basis set group =>   1
Atom  19H    basis set group =>   2
Atom  20H    basis set group =>   2
Atom  21H    basis set group =>   2
Atom  22O    basis set group =>   3
Atom  23O    basis set group =>   3
---------------------------------
AUXILIARY/J BASIS SET INFORMATION
---------------------------------
There are 3 groups of distinct atoms

 Group   1 Type C   : 12s5p4d2f1g contracted to 6s4p3d1f1g pattern {711111/2111/211/2/1}
 Group   2 Type H   : 5s2p1d contracted to 3s1p1d pattern {311/2/1}
 Group   3 Type O   : 12s5p4d2f1g contracted to 6s4p3d1f1g pattern {711111/2111/211/2/1}

Atom   0C    basis set group =>   1
Atom   1C    basis set group =>   1
Atom   2C    basis set group =>   1
Atom   3C    basis set group =>   1
Atom   4C    basis set group =>   1
Atom   5C    basis set group =>   1
Atom   6C    basis set group =>   1
Atom   7C    basis set group =>   1
Atom   8C    basis set group =>   1
Atom   9C    basis set group =>   1
Atom  10H    basis set group =>   2
Atom  11H    basis set group =>   2
Atom  12H    basis set group =>   2
Atom  13H    basis set group =>   2
Atom  14C    basis set group =>   1
Atom  15H    basis set group =>   2
Atom  16H    basis set group =>   2
Atom  17H    basis set group =>   2
Atom  18C    basis set group =>   1
Atom  19H    basis set group =>   2
Atom  20H    basis set group =>   2
Atom  21H    basis set group =>   2
Atom  22O    basis set group =>   3
Atom  23O    basis set group =>   3


           ************************************************************
           *        Program running with 15 parallel MPI-processes    *
           *              working on a common directory               *
           ************************************************************
------------------------------------------------------------------------------
                             ORCA STARTUP CALCULATIONS
                           -- RI-GTO INTEGRALS CHOSEN --
------------------------------------------------------------------------------
------------------------------------------------------------------------------
                   ___                                                        
                  /   \      - P O W E R E D   B Y -                         
                 /     \                                                     
                 |  |  |   _    _      __       _____    __    __             
                 |  |  |  | |  | |    /  \     |  _  \  |  |  /  |          
                  \  \/   | |  | |   /    \    | | | |  |  | /  /          
                 / \  \   | |__| |  /  /\  \   | |_| |  |  |/  /          
                |  |  |   |  __  | /  /__\  \  |    /   |      \           
                |  |  |   | |  | | |   __   |  |    \   |  |\   \          
                \     /   | |  | | |  |  |  |  | |\  \  |  | \   \       
                 \___/    |_|  |_| |__|  |__|  |_| \__\ |__|  \__/        
                                                                              
                      - O R C A' S   B I G   F R I E N D -                    
                                      &                                       
                       - I N T E G R A L  F E E D E R -                       
                                                                              
 v1 FN, 2020, v2 2021, v3 2022-2024                                           
------------------------------------------------------------------------------


----------------------
SHARK INTEGRAL PACKAGE
----------------------

Number of atoms                             ...     24
Number of basis functions                   ...    958
Number of shells                            ...    370
Maximum angular momentum                    ...      3
Integral batch strategy                     ... SHARK/LIBINT Hybrid
RI-J (if used) integral strategy            ... SPLIT-RIJ (Revised 2003 algorithm where possible)
Printlevel                                  ...      1
Contraction scheme used                     ... PARTIAL GENERAL contraction
Prescreening option                         ... SCHWARTZ
   Thresh                                   ... 2.500e-11
   Tcut                                     ... 2.500e-12
   Tpresel                                  ... 2.500e-12 
Coulomb Range Separation                    ... NOT USED
Exchange Range Separation                   ... NOT USED
Multipole approximations                    ... NOT USED
Finite Nucleus Model                        ... NOT USED
CABS basis                                  ... NOT available
Auxiliary Coulomb fitting basis             ... AVAILABLE
   # of basis functions in Aux-J            ...    796
   # of shells in Aux-J                     ...    260
   Maximum angular momentum in Aux-J        ...      4
Auxiliary J/K fitting basis                 ... NOT available
Auxiliary Correlation fitting basis         ... NOT available
Auxiliary 'external' fitting basis          ... NOT available

Checking pre-screening integrals            ... done (  0.1 sec) Dimension = 370
Save PGC pre-screening integrals            ... done (  0.1 sec) Dimension = 370
Calculate PGC overlap integrals             ... done (  0.2 sec) Dimension = 286
Calculating pre-screening integrals (ORCA)  ... done (  0.3 sec) Dimension = 286
Check shell pair data                       ... done (  1.1 sec)
Shell pair information
Shell pair cut-off parameter TPreSel        ...   2.5e-12
Total number of shell pairs                 ...     68635
Shell pairs after pre-screening             ...     53609
Total number of primitive shell pairs       ...     87643
Primitive shell pairs kept                  ...     63204
          la=0 lb=0:  11968 shell pairs
          la=1 lb=0:  13594 shell pairs
          la=1 lb=1:   3392 shell pairs
          la=2 lb=0:   9503 shell pairs
          la=2 lb=1:   4747 shell pairs
          la=2 lb=2:   1718 shell pairs
          la=3 lb=0:   4480 shell pairs
          la=3 lb=1:   2221 shell pairs
          la=3 lb=2:   1596 shell pairs
          la=3 lb=3:    390 shell pairs

Calculating one electron integrals          ... done (  0.1 sec)
Calculating RI/J V-Matrix + Cholesky decomp.... done (  0.1 sec)
Calculating Nuclear repulsion               ... done (  0.0 sec) ENN=    832.224313641640 Eh

Diagonalization of the overlap matrix:
Smallest eigenvalue                        ... 1.649e-07
Time for diagonalization                   ...    0.269 sec
Threshold for overlap eigenvalues          ... 1.000e-07
Number of eigenvalues below threshold      ... 0

IMPORTANT:
Smallest eigenvalue of S below the DiffSThresh (1.000e-06) while
Thresh>1e-12 and/or TCut>1e-13! In order to avoid SCF convergence issues,
Thresh will be set to at least 1e-12 and TCut to at least 1e-13.
This can be turned off by adding %SCF DiffSThresh -1 END to the input.

Time for construction of square roots      ...    0.193 sec
Total time needed                          ...    0.526 sec

-------------------
DFT GRID GENERATION
-------------------

General Integration Accuracy     IntAcc      ... 4.388
Radial Grid Type                 RadialGrid  ... OptM3 with GC (2021)
Angular Grid (max. ang.)         AngularGrid ... 4 (Lebedev-302)
Angular grid pruning method      GridPruning ... 4 (adaptive)
Weight generation scheme         WeightScheme... mBecke (2022)
Basis function cutoff            BFCut       ... 1.0000e-11
Integration weight cutoff        WCut        ... 1.0000e-14
Partially contracted basis set               ... off
Rotationally invariant grid construction     ... off
Angular grids for H and He will be reduced by one unit
Diffuse basis detected: some atoms will have their outermost
                        angular grid increased by 1.

Total number of grid points                  ...   121194
Total number of batches                      ...     1905
Average number of points per batch           ...       63
Average number of grid points per atom       ...     5050

---------------------
SHARK GRID GENERATION
---------------------

General Integration Accuracy     IntAcc      ... 4.388
Radial Grid Type                 RadialGrid  ... OptM3 with GC (2021)
Angular Grid (max. ang.)         AngularGrid ... 4 (Lebedev-302)
Angular grid pruning method      GridPruning ... 4 (adaptive)
Weight generation scheme         WeightScheme... mBecke (2022)
Basis function cutoff            BFCut       ... 1.0000e-11
Integration weight cutoff        WCut        ... 1.0000e-14
Partially contracted basis set               ... off
Rotationally invariant grid construction     ... off
Angular grids for H and He will be reduced by one unit
Diffuse basis detected: some atoms will have their outermost
                        angular grid increased by 1.
Steep s-basis detected: some atoms will have their radial
                        grid points doubled.

Total number of grid points                  ...   208939
Total number of batches                      ...     3277
Average number of points per batch           ...       63
Average number of grid points per atom       ...     8706

--------------------
COSX GRID GENERATION
--------------------

GRIDX 1
-------
General Integration Accuracy     IntAcc      ... 3.816
Radial Grid Type                 RadialGrid  ... OptM3 with GC (2021)
Angular Grid (max. ang.)         AngularGrid ... 1 (Lebedev-50)
Angular grid pruning method      GridPruning ... 4 (adaptive)
Weight generation scheme         WeightScheme... mBecke (2022)
Basis function cutoff            BFCut       ... 1.0000e-11
Integration weight cutoff        WCut        ... 1.0000e-14
Partially contracted basis set               ... on
Rotationally invariant grid construction     ... off
Angular grids for H and He will be reduced by one unit
Diffuse basis detected: some atoms will have their outermost
                        angular grid increased by 1.

Total number of grid points                  ...    15206
Total number of batches                      ...      130
Average number of points per batch           ...      116
Average number of grid points per atom       ...      634
UseSFitting                                  ... on

GRIDX 2
-------
General Integration Accuracy     IntAcc      ... 4.020
Radial Grid Type                 RadialGrid  ... OptM3 with GC (2021)
Angular Grid (max. ang.)         AngularGrid ... 2 (Lebedev-110)
Angular grid pruning method      GridPruning ... 4 (adaptive)
Weight generation scheme         WeightScheme... mBecke (2022)
Basis function cutoff            BFCut       ... 1.0000e-11
Integration weight cutoff        WCut        ... 1.0000e-14
Partially contracted basis set               ... on
Rotationally invariant grid construction     ... off
Angular grids for H and He will be reduced by one unit
Diffuse basis detected: some atoms will have their outermost
                        angular grid increased by 1.

Total number of grid points                  ...    36958
Total number of batches                      ...      304
Average number of points per batch           ...      121
Average number of grid points per atom       ...     1540
UseSFitting                                  ... on

GRIDX 3
-------
General Integration Accuracy     IntAcc      ... 4.338
Radial Grid Type                 RadialGrid  ... OptM3 with GC (2021)
Angular Grid (max. ang.)         AngularGrid ... 3 (Lebedev-194)
Angular grid pruning method      GridPruning ... 4 (adaptive)
Weight generation scheme         WeightScheme... mBecke (2022)
Basis function cutoff            BFCut       ... 1.0000e-11
Integration weight cutoff        WCut        ... 1.0000e-14
Partially contracted basis set               ... on
Rotationally invariant grid construction     ... off
Angular grids for H and He will be reduced by one unit
Diffuse basis detected: some atoms will have their outermost
                        angular grid increased by 1.

Total number of grid points                  ...    81828
Total number of batches                      ...      652
Average number of points per batch           ...      125
Average number of grid points per atom       ...     3410
UseSFitting                                  ... on
Initializing property integral containers    ... done (  0.2 sec)

SHARK setup successfully completed in  11.4 seconds

Maximum memory used throughout the entire STARTUP-calculation: 103.1 MB


           ************************************************************
           *        Program running with 15 parallel MPI-processes    *
           *              working on a common directory               *
           ************************************************************
-------------------------------------------------------------------------------
                                 ORCA GUESS
                   Start orbitals & Density for SCF / CASSCF
-------------------------------------------------------------------------------

------------
SCF SETTINGS
------------
Hamiltonian:
 Density Functional     Method          .... DFT(GTOs)
 Exchange Functional    Exchange        .... PBE
   PBE kappa parameter   XKappa         ....  0.804000
   PBE mue parameter    XMuePBE         ....  0.219520
 Correlation Functional Correlation     .... PBE
   PBE beta parameter  CBetaPBE         ....  0.066725
 LDA part of GGA corr.  LDAOpt          .... PW91-LDA
 Gradients option       PostSCFGGA      .... off
 Hybrid DFT is turned on
   Fraction HF Exchange ScalHFX         ....  0.250000
   Scaling of DF-GGA-X  ScalDFX         ....  0.750000
   Scaling of DF-GGA-C  ScalDFC         ....  1.000000
   Scaling of DF-LDA-C  ScalLDAC        ....  1.000000
   Perturbative correction              ....  0.000000
   NL short-range parameter             ....  6.900000
 RI-approximation to the Coulomb term is turned on
   Number of AuxJ basis functions       .... 796
   RIJ-COSX (HFX calculated with COS-X)).... on


General Settings:
 Integral files         IntName         .... cs_rporg_w09_ox_solv_05
 Hartree-Fock type      HFTyp           .... RHF
 Total Charge           Charge          ....    0
 Multiplicity           Mult            ....    1
 Number of Electrons    NEL             ....   98
 Basis Dimension        Dim             ....  874
 Nuclear Repulsion      ENuc            ....    832.2243136416 Eh

Convergence Acceleration:
 AO-DIIS                CNVDIIS         .... on
   Start iteration      DIISMaxIt       ....     0
   Startup error        DIISStart       ....  0.200000
   # of expansion vecs  DIISMaxEq       ....     5
   Bias factor          DIISBfac        ....   1.050
   Max. coefficient     DIISMaxC        ....  10.000
 MO-DIIS                CNVKDIIS        .... off
 Trust-Rad. Augm. Hess. CNVTRAH         .... auto
   Auto Start mean grad. ratio tolernc. ....  1.125000
   Auto Start start iteration           ....    50
   Auto Start num. interpolation iter.  ....    10
   Max. Number of Micro iterations      ....    24
   Max. Number of Macro iterations      .... Maxiter - #DIIS iter
   Number of Davidson start vectors     ....     2
   Converg. threshold    (grad. norm)   ....   1.000e-05
   Grad. Scal. Fac. for Micro threshold ....   0.100
   Minimum threshold for Micro iter.    ....   1.000e-02
   NR start threshold (gradient norm)   ....   1.000e-04
   Initial trust radius                 ....   0.400
   Minimum AH scaling param. (alpha)    ....   1.000
   Maximum AH scaling param. (alpha)    .... 1000.000
   Quad. conv. algorithm                .... NR
   White noise on init. David. guess    .... on
   Maximum white noise                  ....   0.010
   Pseudo random numbers                .... off
   Inactive MOs                         .... canonical
   Orbital update algorithm             .... Taylor
   Preconditioner                       .... Diag
   Full preconditioner red. dimension   ....   250
 SOSCF                  CNVSOSCF        .... on
   Start iteration      SOSCFMaxIt      ....   150
   Startup grad/error   SOSCFStart      ....  0.001000
   Hessian update       SOSCFHessUp     .... L-BFGS
 Level Shifting         CNVShift        .... on
   Level shift para.    LevelShift      ....    0.2500
   Turn off err/grad.   ShiftErr        ....    0.0000
 Zerner damping         CNVZerner       .... off
 Static damping         CNVDamp         .... on
   Fraction old density DampFac         ....    0.8500
   Max. Damping (<1)    DampMax         ....    0.9800
   Min. Damping (>=0)   DampMin         ....    0.0000
   Turn off err/grad.   DampErr         ....    0.0300

SCF Procedure:
 Maximum # iterations   MaxIter         ....  1500
 SCF integral mode      SCFMode         .... Direct
   Integral package                     .... SHARK and LIBINT hybrid scheme
 Reset frequency        DirectResetFreq ....    20
 Integral Threshold     Thresh          ....  1.000e-12 Eh
 Primitive CutOff       TCut            ....  1.000e-13 Eh

Convergence Tolerance:
 Convergence Check Mode ConvCheckMode   .... Total+1el-Energy
 Convergence forced     ConvForced      .... 0
 Energy Change          TolE            ....  1.000e-08 Eh
 1-El. energy change                    ....  1.000e-05 Eh
 Orbital Gradient       TolG            ....  1.000e-05
 Orbital Rotation angle TolX            ....  1.000e-05
 DIIS Error             TolErr          ....  5.000e-07

------------------------------
INITIAL GUESS: MODEL POTENTIAL
------------------------------
Loading Hartree-Fock densities                     ... done
Calculating cut-offs                               ... done
Initializing the effective Hamiltonian             ... done
Setting up the integral package (SHARK)            ... done
Starting the Coulomb interaction                   ... done (   0.6 sec)
Making the grid                                    ... done (   0.4 sec)
Mapping shells                                     ... done
Starting the XC term evaluation                    ... done (   0.5 sec)
  promolecular density results
     # of electrons  =     97.995395249
     EX              =    -80.597982325
     EC              =     -3.276918665
     EX+EC           =    -83.874900990
Transforming the Hamiltonian                       ... done (   0.2 sec)
Diagonalizing the Hamiltonian                      ... done (   0.3 sec)
Back transforming the eigenvectors                 ... done (   0.2 sec)
Now organizing SCF variables                       ... done
                      ------------------
                      INITIAL GUESS DONE (   2.7 sec)
                      ------------------
             **** ENERGY FILE WAS UPDATED (cs_rporg_w09_ox_solv_05.en.tmp) ****
Finished Guess after   4.2 sec
Maximum memory used throughout the entire GUESS-calculation: 80.1 MB


           ************************************************************
           *        Program running with 15 parallel MPI-processes    *
           *              working on a common directory               *
           ************************************************************

-------------------------------------------------------------------------------------------
                                      ORCA LEAN-SCF
                              memory conserving SCF solver
-------------------------------------------------------------------------------------------

--------------------
CPCM SOLVATION MODEL
--------------------
CPCM parameters:
  Epsilon                                         ...      78.3550
  Refrac                                          ...       1.3328
  Rsolv                                           ...       1.4000
  Surface type                                    ...    GEPOL SES
  Discretization scheme                           ... Constant num. charges
  Epsilon function type                           ...         CPCM
Solvent:                                          ... WATER
SMD-CDS solvent descriptors:
  Soln                                            ...       1.3328
  Soln25                                          ...       1.3323
  Sola                                            ...       0.0000
  Solb                                            ...       0.0000
  Solg                                            ...       0.0000
  Solc                                            ...       0.0000
  Solh                                            ...       0.0000
Radii:
  Scheme                                          ... Element-dependent radii
  Radius for C  used is    3.4960 Bohr (=   1.8500 Ang.)
  Radius for H  used is    2.2677 Bohr (=   1.2000 Ang.)
  Radius for O  used is    2.8724 Bohr (=   1.5200 Ang.)
Calculating surface                               ...        done! (  0.1s)
Cavity surface points                             ...          830
Cavity Volume                                     ...    1289.4378
Cavity Surface-area                               ...     719.2773
Calculating surface distance matrix               ...        done! (  0.0s)
Performing Cholesky decomposition & store         ...        done! (  0.0s)
Overall time for CPCM initialization              ...                 0.1s

----------------------------------------D-I-I-S--------------------------------------------
Iteration    Energy (Eh)           Delta-E    RMSDP     MaxDP     DIISErr   Damp  Time(sec)
-------------------------------------------------------------------------------------------
               ***  Starting incremental Fock matrix formation  ***
    1    -612.9563704751861906     0.00e+00  2.61e-03  1.48e-01  2.60e-01  0.850  18.7
    2    -613.0387408838774945    -8.24e-02  2.40e-03  1.49e-01  1.86e-01  0.850  12.2
                               ***Turning on AO-DIIS***
    3    -613.0920032794925874    -5.33e-02  1.71e-03  1.19e-01  1.22e-01  0.850  12.4
    4    -613.1262015904006830    -3.42e-02  1.37e-03  9.41e-02  1.01e-01  0.850  12.7
    5    -613.1512662329711247    -2.51e-02  1.16e-03  7.85e-02  8.76e-02  0.850  11.4
    6    -613.1714217598311052    -2.02e-02  9.94e-04  6.71e-02  7.54e-02  0.850  11.9
    7    -613.1881968254411959    -1.68e-02  8.54e-04  5.76e-02  6.27e-02  0.850  11.3
    8    -613.2020707750292559    -1.39e-02  7.19e-04  4.91e-02  5.10e-02  0.850  12.4
    9    -613.2133631267357714    -1.13e-02  6.08e-04  4.15e-02  4.27e-02  0.850  11.3
   10    -613.2226407755830451    -9.28e-03  5.17e-04  3.51e-02  3.65e-02  0.850  11.0
   11    -613.2303592726844954    -7.72e-03  4.42e-04  2.99e-02  3.10e-02  0.850  11.2
   12    -613.2368176869168792    -6.46e-03  3.76e-04  2.55e-02  2.60e-02  0.850  11.0
   13    -613.2422223304193949    -5.40e-03  2.12e-03  1.44e-01  2.16e-02  0.000  11.0
   14    -613.2713329876736452    -2.91e-02  6.12e-05  2.27e-03  2.09e-03  0.000  12.1
                              *** Initializing SOSCF ***
---------------------------------------S-O-S-C-F--------------------------------------
Iteration    Energy (Eh)           Delta-E    RMSDP     MaxDP     MaxGrad    Time(sec)
--------------------------------------------------------------------------------------
   15    -613.2713468493199116    -1.39e-05  1.95e-05  1.37e-03  7.76e-04    12.1
               *** Restarting incremental Fock matrix formation ***
   16    -613.2713482777263607    -1.43e-06  1.43e-03  5.84e-02  6.34e-05    18.4
   17    -613.2713487565162040    -4.79e-07  2.18e-04  1.17e-02  3.06e-05    16.8
   18    -613.2713487521176603     4.40e-09  1.94e-04  1.03e-02  3.24e-05    17.0
                 **** Energy Check signals convergence ****

               *****************************************************
               *                     SUCCESS                       *
               *           SCF CONVERGED AFTER  18 CYCLES          *
               *****************************************************

Recomputing exchange energy using gridx3       ... done (   22.807 sec)
Old exchange energy                            :    -20.543640997 Eh
New exchange energy                            :    -20.543629073 Eh
Exchange energy change after final integration :      0.000011924 Eh
Total energy after final integration           :   -613.271336829 Eh

SMD CDS free energy correction energy :                 5.60707     Kcal/mol
Total Energy after SMD CDS correction =              -613.262401393 Eh
             **** ENERGY FILE WAS UPDATED (cs_rporg_w09_ox_solv_05.en.tmp) ****

----------------
TOTAL SCF ENERGY
----------------

Total Energy       :       -613.26240139253855 Eh          -16687.71833 eV

Components:
Nuclear Repulsion  :        832.22431364163970 Eh           22645.97487 eV
Electronic Energy  :      -1445.47558751442944 Eh          -39333.39041 eV
One Electron Energy:      -2483.44891074233601 Eh          -67578.08046 eV
Two Electron Energy:       1037.97332322790658 Eh           28244.69006 eV
CPCM Dielectric    :         -0.02007487932790 Eh              -0.54627 eV
SMD CDS (Gcds)     :          0.00893543606497 Eh               0.24315 eV

Virial components:
Potential Energy   :      -1222.75668943408505 Eh          -33272.90108 eV
Kinetic Energy     :        609.49428804154650 Eh           16585.18275 eV
Virial Ratio       :          2.00618236040095

DFT components:
N(Alpha)           :       48.999975179020 electrons
N(Beta)            :       48.999975179020 electrons
N(Total)           :       97.999950358041 electrons
E(X)               :      -61.494890821547 Eh       
E(C)               :       -3.280721198931 Eh       
E(XC)              :      -64.775612020478 Eh       

CPCM Solvation Model Properties:
Surface-charge          :         -0.05423126398963
Corrected charge        :          0.00000000000000
Outlying charge corr.   :          0.00019764636224 Eh               0.00538 eV
Free-energy (cav+disp)  :          0.00893543606497 Eh               0.24315 eV

---------------
SCF CONVERGENCE
---------------

  Last Energy change         ...   -4.3985e-09  Tolerance :   1.0000e-08
  Last MAX-Density change    ...    1.0336e-02  Tolerance :   1.0000e-07
  Last RMS-Density change    ...    1.9418e-04  Tolerance :   5.0000e-09
  Last DIIS Error            ...    7.7649e-04  Tolerance :   5.0000e-07
  Last Orbital Gradient      ...    3.2375e-05  Tolerance :   1.0000e-05
  Last Orbital Rotation      ...    7.4147e-05  Tolerance :   1.0000e-05


----------------
ORBITAL ENERGIES
----------------

  NO   OCC          E(Eh)            E(eV) 
   0   2.0000     -19.217977      -522.9477 
   1   2.0000     -19.217946      -522.9469 
   2   2.0000     -10.332048      -281.1493 
   3   2.0000     -10.332011      -281.1483 
   4   2.0000     -10.263010      -279.2707 
   5   2.0000     -10.262179      -279.2481 
   6   2.0000     -10.256713      -279.0994 
   7   2.0000     -10.256103      -279.0828 
   8   2.0000     -10.247300      -278.8432 
   9   2.0000     -10.247157      -278.8393 
  10   2.0000     -10.246637      -278.8252 
  11   2.0000     -10.246189      -278.8130 
  12   2.0000     -10.220687      -278.1190 
  13   2.0000     -10.220662      -278.1183 
  14   2.0000      -1.096055       -29.8252 
  15   2.0000      -1.094273       -29.7767 
  16   2.0000      -0.909105       -24.7380 
  17   2.0000      -0.869662       -23.6647 
  18   2.0000      -0.803824       -21.8732 
  19   2.0000      -0.793331       -21.5876 
  20   2.0000      -0.764123       -20.7928 
  21   2.0000      -0.712441       -19.3865 
  22   2.0000      -0.691421       -18.8145 
  23   2.0000      -0.640771       -17.4363 
  24   2.0000      -0.623426       -16.9643 
  25   2.0000      -0.595190       -16.1960 
  26   2.0000      -0.561389       -15.2762 
  27   2.0000      -0.526944       -14.3389 
  28   2.0000      -0.512341       -13.9415 
  29   2.0000      -0.478682       -13.0256 
  30   2.0000      -0.477001       -12.9799 
  31   2.0000      -0.475057       -12.9270 
  32   2.0000      -0.464030       -12.6269 
  33   2.0000      -0.453963       -12.3530 
  34   2.0000      -0.436964       -11.8904 
  35   2.0000      -0.430783       -11.7222 
  36   2.0000      -0.422971       -11.5096 
  37   2.0000      -0.419150       -11.4056 
  38   2.0000      -0.401913       -10.9366 
  39   2.0000      -0.398212       -10.8359 
  40   2.0000      -0.388376       -10.5683 
  41   2.0000      -0.386789       -10.5251 
  42   2.0000      -0.372347       -10.1321 
  43   2.0000      -0.368311       -10.0223 
  44   2.0000      -0.302196        -8.2232 
  45   2.0000      -0.296512        -8.0685 
  46   2.0000      -0.283271        -7.7082 
  47   2.0000      -0.282080        -7.6758 
  48   2.0000      -0.273805        -7.4506 
  49   0.0000      -0.115414        -3.1406 
  50   0.0000      -0.045079        -1.2267 
  51   0.0000      -0.019592        -0.5331 
  52   0.0000       0.000275         0.0075 
  53   0.0000       0.010356         0.2818 
  54   0.0000       0.016502         0.4490 
  55   0.0000       0.027705         0.7539 
  56   0.0000       0.028337         0.7711 
  57   0.0000       0.029380         0.7995 
  58   0.0000       0.039014         1.0616 
  59   0.0000       0.041180         1.1206 
*Only the first 10 virtual orbitals were printed.

                    ********************************
                    * MULLIKEN POPULATION ANALYSIS *
                    ********************************

-----------------------
MULLIKEN ATOMIC CHARGES
-----------------------
   0 C :    1.480053
   1 C :   -0.152678
   2 C :   -0.181565
   3 C :    1.484854
   4 C :    0.773133
   5 C :    0.751453
   6 C :   -1.164781
   7 C :   -0.475803
   8 C :   -0.453526
   9 C :   -1.178671
  10 H :    0.259394
  11 H :    0.718291
  12 H :    0.716882
  13 H :    0.246938
  14 C :   -0.826820
  15 H :    0.243790
  16 H :    0.195663
  17 H :    0.240744
  18 C :   -0.833886
  19 H :    0.247107
  20 H :    0.180140
  21 H :    0.244448
  22 O :   -1.259197
  23 O :   -1.255965
Sum of atomic charges:    0.0000000

--------------------------------
MULLIKEN REDUCED ORBITAL CHARGES
--------------------------------
  0 C s       :     3.114217  s :     3.114217
      pz      :     0.381147  p :     1.305723
      px      :     0.652832
      py      :     0.271745
      dz2     :    -0.025785  d :     0.125725
      dxz     :     0.024057
      dyz     :     0.084282
      dx2y2   :     0.033315
      dxy     :     0.009856
      f0      :    -0.020085  f :    -0.025718
      f+1     :     0.002389
      f-1     :    -0.000151
      f+2     :    -0.011825
      f-2     :     0.002325
      f+3     :     0.002209
      f-3     :    -0.000581

  1 C s       :     3.234079  s :     3.234079
      pz      :     0.982984  p :     2.645659
      px      :     0.915347
      py      :     0.747328
      dz2     :     0.007881  d :     0.349091
      dxz     :     0.034164
      dyz     :     0.255409
      dx2y2   :     0.036831
      dxy     :     0.014806
      f0      :    -0.038701  f :    -0.076151
      f+1     :    -0.000524
      f-1     :    -0.008906
      f+2     :    -0.020697
      f-2     :    -0.005752
      f+3     :    -0.000615
      f-3     :    -0.000955

  2 C s       :     3.258040  s :     3.258040
      pz      :     1.074547  p :     2.662634
      px      :     0.915734
      py      :     0.672353
      dz2     :     0.103080  d :     0.337220
      dxz     :     0.031192
      dyz     :     0.185403
      dx2y2   :    -0.000638
      dxy     :     0.018185
      f0      :    -0.041272  f :    -0.076329
      f+1     :    -0.004379
      f-1     :    -0.015024
      f+2     :    -0.013791
      f-2     :    -0.000354
      f+3     :    -0.002191
      f-3     :     0.000681

  3 C s       :     3.099963  s :     3.099963
      pz      :     0.599377  p :     1.311462
      px      :     0.652471
      py      :     0.059614
      dz2     :     0.022229  d :     0.129816
      dxz     :     0.036323
      dyz     :     0.030714
      dx2y2   :     0.042993
      dxy     :    -0.002443
      f0      :    -0.018396  f :    -0.026095
      f+1     :     0.002527
      f-1     :    -0.002558
      f+2     :    -0.011070
      f-2     :     0.001867
      f+3     :     0.002518
      f-3     :    -0.000983

  4 C s       :     3.275446  s :     3.275446
      pz      :     0.569560  p :     2.022227
      px      :     1.006740
      py      :     0.445927
      dz2     :    -0.123560  d :     0.035145
      dxz     :    -0.024258
      dyz     :     0.173493
      dx2y2   :     0.009715
      dxy     :    -0.000246
      f0      :    -0.049151  f :    -0.105951
      f+1     :     0.000342
      f-1     :    -0.006471
      f+2     :    -0.044740
      f-2     :    -0.003514
      f+3     :    -0.000069
      f-3     :    -0.002348

  5 C s       :     3.262874  s :     3.262874
      pz      :     0.706999  p :     2.048762
      px      :     1.006943
      py      :     0.334819
      dz2     :     0.091503  d :     0.042915
      dxz     :    -0.001987
      dyz     :     0.020249
      dx2y2   :    -0.044916
      dxy     :    -0.021934
      f0      :    -0.063803  f :    -0.106004
      f+1     :    -0.003281
      f-1     :    -0.016536
      f+2     :    -0.019164
      f-2     :    -0.001059
      f+3     :     0.001030
      f-3     :    -0.003192

  6 C s       :     4.220347  s :     4.220347
      pz      :     0.728905  p :     2.709321
      px      :     0.928642
      py      :     1.051774
      dz2     :     0.045623  d :     0.248278
      dxz     :     0.011082
      dyz     :     0.147575
      dx2y2   :     0.029043
      dxy     :     0.014955
      f0      :    -0.005696  f :    -0.013164
      f+1     :     0.000988
      f-1     :    -0.001845
      f+2     :    -0.007386
      f-2     :     0.000051
      f+3     :     0.001212
      f-3     :    -0.000489

  7 C s       :     3.608142  s :     3.608142
      pz      :     0.887224  p :     2.762828
      px      :     0.927031
      py      :     0.948573
      dz2     :     0.084168  d :     0.102960
      dxz     :     0.029610
      dyz     :    -0.012076
      dx2y2   :    -0.009551
      dxy     :     0.010809
      f0      :    -0.000393  f :     0.001873
      f+1     :     0.000734
      f-1     :    -0.002281
      f+2     :    -0.001597
      f-2     :     0.001099
      f+3     :     0.000824
      f-3     :     0.003487

  8 C s       :     3.588035  s :     3.588035
      pz      :     0.872615  p :     2.768642
      px      :     0.925502
      py      :     0.970525
      dz2     :    -0.044814  d :     0.095785
      dxz     :     0.016926
      dyz     :     0.109117
      dx2y2   :    -0.008463
      dxy     :     0.023019
      f0      :    -0.004357  f :     0.001064
      f+1     :     0.001136
      f-1     :     0.003422
      f+2     :    -0.000413
      f-2     :     0.000500
      f+3     :     0.000992
      f-3     :    -0.000216

  9 C s       :     4.205440  s :     4.205440
      pz      :     1.087437  p :     2.730463
      px      :     0.929233
      py      :     0.713792
      dz2     :     0.048314  d :     0.255883
      dxz     :     0.013143
      dyz     :     0.145279
      dx2y2   :     0.035837
      dxy     :     0.013309
      f0      :    -0.010719  f :    -0.013115
      f+1     :     0.000995
      f-1     :     0.001634
      f+2     :    -0.004646
      f-2     :     0.000397
      f+3     :     0.000922
      f-3     :    -0.001699

 10 H s       :     0.717603  s :     0.717603
      pz      :     0.010385  p :     0.016543
      px      :     0.020746
      py      :    -0.014587
      dz2     :     0.002692  d :     0.006459
      dxz     :     0.003590
      dyz     :    -0.000932
      dx2y2   :     0.000047
      dxy     :     0.001062

 11 H s       :     0.291419  s :     0.291419
      pz      :    -0.011312  p :    -0.016259
      px      :     0.015793
      py      :    -0.020740
      dz2     :     0.000518  d :     0.006549
      dxz     :     0.003149
      dyz     :     0.001160
      dx2y2   :     0.000512
      dxy     :     0.001210

 12 H s       :     0.297503  s :     0.297503
      pz      :     0.002658  p :    -0.020796
      px      :     0.016095
      py      :    -0.039549
      dz2     :     0.000870  d :     0.006411
      dxz     :    -0.000097
      dyz     :     0.001560
      dx2y2   :    -0.000364
      dxy     :     0.004441

 13 H s       :     0.729781  s :     0.729781
      pz      :    -0.025719  p :     0.016819
      px      :     0.020535
      py      :     0.022003
      dz2     :    -0.000341  d :     0.006461
      dxz     :     0.004021
      dyz     :     0.002424
      dx2y2   :    -0.000253
      dxy     :     0.000610

 14 C s       :     3.563170  s :     3.563170
      pz      :     1.132646  p :     3.207890
      px      :     1.128226
      py      :     0.947019
      dz2     :    -0.009058  d :     0.042534
      dxz     :     0.015149
      dyz     :     0.008148
      dx2y2   :     0.012937
      dxy     :     0.015359
      f0      :     0.007732  f :     0.013226
      f+1     :     0.000333
      f-1     :     0.002939
      f+2     :    -0.001464
      f-2     :     0.000861
      f+3     :     0.003296
      f-3     :    -0.000472

 15 H s       :     0.705105  s :     0.705105
      pz      :     0.005799  p :     0.043886
      px      :     0.015157
      py      :     0.022931
      dz2     :     0.002120  d :     0.007218
      dxz     :     0.000777
      dyz     :     0.000168
      dx2y2   :     0.002526
      dxy     :     0.001627

 16 H s       :     0.770221  s :     0.770221
      pz      :    -0.003287  p :     0.027055
      px      :     0.010825
      py      :     0.019517
      dz2     :    -0.000336  d :     0.007060
      dxz     :     0.003107
      dyz     :     0.002407
      dx2y2   :     0.001645
      dxy     :     0.000236

 17 H s       :     0.709388  s :     0.709388
      pz      :     0.004815  p :     0.042578
      px      :     0.015041
      py      :     0.022722
      dz2     :     0.002735  d :     0.007291
      dxz     :     0.000064
      dyz     :     0.000383
      dx2y2   :     0.002331
      dxy     :     0.001778

 18 C s       :     3.560089  s :     3.560089
      pz      :     0.973885  p :     3.218034
      px      :     1.127269
      py      :     1.116880
      dz2     :     0.009758  d :     0.042590
      dxz     :     0.000389
      dyz     :     0.002244
      dx2y2   :     0.000340
      dxy     :     0.029860
      f0      :     0.000429  f :     0.013173
      f+1     :     0.003655
      f-1     :     0.003829
      f+2     :     0.003150
      f-2     :     0.000421
      f+3     :     0.000450
      f-3     :     0.001239

 19 H s       :     0.703571  s :     0.703571
      pz      :     0.015625  p :     0.042132
      px      :     0.013831
      py      :     0.012676
      dz2     :    -0.000439  d :     0.007190
      dxz     :     0.002163
      dyz     :     0.003013
      dx2y2   :     0.002258
      dxy     :     0.000196

 20 H s       :     0.783743  s :     0.783743
      pz      :     0.013669  p :     0.029018
      px      :     0.010354
      py      :     0.004995
      dz2     :     0.004382  d :     0.007099
      dxz     :     0.001584
      dyz     :    -0.000312
      dx2y2   :    -0.000289
      dxy     :     0.001733

 21 H s       :     0.706213  s :     0.706213
      pz      :     0.014927  p :     0.042044
      px      :     0.014258
      py      :     0.012859
      dz2     :    -0.000449  d :     0.007295
      dxz     :     0.001947
      dyz     :     0.003320
      dx2y2   :     0.002604
      dxy     :    -0.000129

 22 O s       :     4.352516  s :     4.352516
      pz      :     1.532911  p :     4.847869
      px      :     1.420494
      py      :     1.894465
      dz2     :     0.011641  d :     0.052992
      dxz     :     0.017476
      dyz     :     0.012689
      dx2y2   :     0.004932
      dxy     :     0.006253
      f0      :     0.001911  f :     0.005820
      f+1     :     0.001135
      f-1     :     0.000603
      f+2     :     0.000877
      f-2     :     0.000978
      f+3     :     0.000116
      f-3     :     0.000200

 23 O s       :     4.349734  s :     4.349734
      pz      :     1.552085  p :     4.847341
      px      :     1.420730
      py      :     1.874527
      dz2     :     0.013141  d :     0.053053
      dxz     :     0.018771
      dyz     :     0.012560
      dx2y2   :     0.003614
      dxy     :     0.004967
      f0      :     0.001886  f :     0.005837
      f+1     :     0.001226
      f-1     :     0.000669
      f+2     :     0.000875
      f-2     :     0.000938
      f+3     :     0.000065
      f-3     :     0.000177



                     *******************************
                     * LOEWDIN POPULATION ANALYSIS *
                     *******************************

----------------------
LOEWDIN ATOMIC CHARGES
----------------------
   0 C :   -0.510380
   1 C :   -0.079005
   2 C :   -0.078819
   3 C :   -0.510306
   4 C :   -0.119032
   5 C :   -0.118978
   6 C :    0.218733
   7 C :    0.223671
   8 C :    0.223745
   9 C :    0.218695
  10 H :   -0.172088
  11 H :   -0.156346
  12 H :   -0.156355
  13 H :   -0.172046
  14 C :    0.571367
  15 H :   -0.142255
  16 H :   -0.200531
  17 H :   -0.143335
  18 C :    0.571278
  19 H :   -0.142322
  20 H :   -0.200729
  21 H :   -0.143269
  22 O :    0.509186
  23 O :    0.509121

-------------------------------
LOEWDIN REDUCED ORBITAL CHARGES
-------------------------------
  0 C s       :     2.477881  s :     2.477881
      pz      :     0.850004  p :     2.198048
      px      :     0.521365
      py      :     0.826679
      dz2     :     0.345923  d :     1.196262
      dxz     :     0.187327
      dyz     :     0.379461
      dx2y2   :     0.152770
      dxy     :     0.130781
      f0      :     0.184654  f :     0.638188
      f+1     :     0.061310
      f-1     :     0.138114
      f+2     :     0.115602
      f-2     :     0.070473
      f+3     :     0.034341
      f-3     :     0.033693

  1 C s       :     2.467258  s :     2.467258
      pz      :     0.848033  p :     2.239684
      px      :     0.584933
      py      :     0.806718
      dz2     :     0.246905  d :     0.896347
      dxz     :     0.147030
      dyz     :     0.271595
      dx2y2   :     0.125603
      dxy     :     0.105214
      f0      :     0.142167  f :     0.475716
      f+1     :     0.032312
      f-1     :     0.078667
      f+2     :     0.082114
      f-2     :     0.071177
      f+3     :     0.036599
      f-3     :     0.032681

  2 C s       :     2.467289  s :     2.467289
      pz      :     0.853275  p :     2.239594
      px      :     0.584862
      py      :     0.801457
      dz2     :     0.235016  d :     0.896262
      dxz     :     0.101830
      dyz     :     0.282099
      dx2y2   :     0.126935
      dxy     :     0.150382
      f0      :     0.134061  f :     0.475674
      f+1     :     0.052397
      f-1     :     0.086925
      f+2     :     0.087432
      f-2     :     0.032581
      f+3     :     0.055106
      f-3     :     0.027172

  3 C s       :     2.477880  s :     2.477880
      pz      :     0.851801  p :     2.198026
      px      :     0.521377
      py      :     0.824847
      dz2     :     0.349141  d :     1.196248
      dxz     :     0.184431
      dyz     :     0.374778
      dx2y2   :     0.154253
      dxy     :     0.133645
      f0      :     0.184911  f :     0.638153
      f+1     :     0.065560
      f-1     :     0.137228
      f+2     :     0.116071
      f-2     :     0.062918
      f+3     :     0.037635
      f-3     :     0.033831

  4 C s       :     2.456967  s :     2.456967
      pz      :     0.851653  p :     2.273233
      px      :     0.610228
      py      :     0.811353
      dz2     :     0.253470  d :     0.891186
      dxz     :     0.135438
      dyz     :     0.260201
      dx2y2   :     0.140511
      dxy     :     0.101565
      f0      :     0.138797  f :     0.497646
      f+1     :     0.029899
      f-1     :     0.085956
      f+2     :     0.095265
      f-2     :     0.071154
      f+3     :     0.037478
      f-3     :     0.039097

  5 C s       :     2.456956  s :     2.456956
      pz      :     0.822424  p :     2.273243
      px      :     0.610221
      py      :     0.840598
      dz2     :     0.221719  d :     0.891154
      dxz     :     0.115296
      dyz     :     0.295214
      dx2y2   :     0.137231
      dxy     :     0.121694
      f0      :     0.141371  f :     0.497625
      f+1     :     0.059330
      f-1     :     0.082465
      f+2     :     0.096205
      f-2     :     0.038284
      f+3     :     0.040906
      f-3     :     0.039065

  6 C s       :     2.479847  s :     2.479847
      pz      :     0.844842  p :     2.262385
      px      :     0.576110
      py      :     0.841433
      dz2     :     0.172133  d :     0.694821
      dxz     :     0.058394
      dyz     :     0.244864
      dx2y2   :     0.117021
      dxy     :     0.102409
      f0      :     0.084714  f :     0.344214
      f+1     :     0.027369
      f-1     :     0.059514
      f+2     :     0.072769
      f-2     :     0.028053
      f+3     :     0.037289
      f-3     :     0.034506

  7 C s       :     2.490873  s :     2.490873
      pz      :     0.855113  p :     2.276016
      px      :     0.584962
      py      :     0.835940
      dz2     :     0.261272  d :     0.678655
      dxz     :     0.112268
      dyz     :     0.173186
      dx2y2   :     0.094452
      dxy     :     0.037476
      f0      :     0.110956  f :     0.330785
      f+1     :     0.025617
      f-1     :     0.062198
      f+2     :     0.054799
      f-2     :     0.054804
      f+3     :     0.006026
      f-3     :     0.016386

  8 C s       :     2.490841  s :     2.490841
      pz      :     0.842371  p :     2.276024
      px      :     0.584991
      py      :     0.848662
      dz2     :     0.147749  d :     0.678615
      dxz     :     0.061692
      dyz     :     0.272486
      dx2y2   :     0.108655
      dxy     :     0.088033
      f0      :     0.086545  f :     0.330775
      f+1     :     0.033994
      f-1     :     0.054426
      f+2     :     0.071786
      f-2     :     0.017949
      f+3     :     0.034490
      f-3     :     0.031585

  9 C s       :     2.479843  s :     2.479843
      pz      :     0.833277  p :     2.262380
      px      :     0.576087
      py      :     0.853017
      dz2     :     0.159830  d :     0.694854
      dxz     :     0.053211
      dyz     :     0.244275
      dx2y2   :     0.129934
      dxy     :     0.107603
      f0      :     0.083869  f :     0.344228
      f+1     :     0.025770
      f-1     :     0.057197
      f+2     :     0.073457
      f-2     :     0.031947
      f+3     :     0.034999
      f-3     :     0.036988

 10 H s       :     0.642157  s :     0.642157
      pz      :     0.125326  p :     0.306774
      px      :     0.073101
      py      :     0.108347
      dz2     :     0.072450  d :     0.223158
      dxz     :     0.045134
      dyz     :     0.059061
      dx2y2   :     0.029724
      dxy     :     0.016788

 11 H s       :     0.656260  s :     0.656260
      pz      :     0.121024  p :     0.291795
      px      :     0.075818
      py      :     0.094954
      dz2     :     0.070996  d :     0.208291
      dxz     :     0.040363
      dyz     :     0.050168
      dx2y2   :     0.027067
      dxy     :     0.019697

 12 H s       :     0.656306  s :     0.656306
      pz      :     0.075034  p :     0.291767
      px      :     0.075803
      py      :     0.140930
      dz2     :     0.017101  d :     0.208282
      dxz     :     0.003183
      dyz     :     0.080669
      dx2y2   :     0.050461
      dxy     :     0.056868

 13 H s       :     0.642165  s :     0.642165
      pz      :     0.140240  p :     0.306733
      px      :     0.073106
      py      :     0.093387
      dz2     :     0.069735  d :     0.223148
      dxz     :     0.048726
      dyz     :     0.067908
      dx2y2   :     0.023581
      dxy     :     0.013199

 14 C s       :     2.440018  s :     2.440018
      pz      :     0.782361  p :     2.288078
      px      :     0.768473
      py      :     0.737244
      dz2     :     0.107908  d :     0.508401
      dxz     :     0.051044
      dyz     :     0.123631
      dx2y2   :     0.108429
      dxy     :     0.117389
      f0      :     0.033373  f :     0.192136
      f+1     :     0.003354
      f-1     :     0.025545
      f+2     :     0.041855
      f-2     :     0.019287
      f+3     :     0.034943
      f-3     :     0.033778

 15 H s       :     0.606390  s :     0.606390
      pz      :     0.098686  p :     0.310242
      px      :     0.127315
      py      :     0.084241
      dz2     :     0.050035  d :     0.225623
      dxz     :     0.049267
      dyz     :     0.015759
      dx2y2   :     0.069367
      dxy     :     0.041196

 16 H s       :     0.612882  s :     0.612882
      pz      :     0.155564  p :     0.338319
      px      :     0.087465
      py      :     0.095289
      dz2     :     0.060755  d :     0.249330
      dxz     :     0.082259
      dyz     :     0.077843
      dx2y2   :     0.023433
      dxy     :     0.005040

 17 H s       :     0.606513  s :     0.606513
      pz      :     0.103718  p :     0.310824
      px      :     0.123829
      py      :     0.083276
      dz2     :     0.059977  d :     0.225998
      dxz     :     0.042725
      dyz     :     0.018568
      dx2y2   :     0.064761
      dxy     :     0.039967

 18 C s       :     2.440004  s :     2.440004
      pz      :     0.752173  p :     2.288148
      px      :     0.768496
      py      :     0.767478
      dz2     :     0.143865  d :     0.508411
      dxz     :     0.059103
      dyz     :     0.148094
      dx2y2   :     0.048057
      dxy     :     0.109291
      f0      :     0.043753  f :     0.192159
      f+1     :     0.034224
      f-1     :     0.036410
      f+2     :     0.032546
      f-2     :     0.018222
      f+3     :     0.005156
      f-3     :     0.021848

 19 H s       :     0.606366  s :     0.606366
      pz      :     0.082507  p :     0.310284
      px      :     0.127344
      py      :     0.100433
      dz2     :     0.020980  d :     0.225673
      dxz     :     0.040144
      dyz     :     0.042921
      dx2y2   :     0.071216
      dxy     :     0.050412

 20 H s       :     0.612951  s :     0.612951
      pz      :     0.113178  p :     0.338378
      px      :     0.087473
      py      :     0.137727
      dz2     :     0.074646  d :     0.249399
      dxz     :     0.037998
      dyz     :     0.055479
      dx2y2   :     0.031957
      dxy     :     0.049319

 21 H s       :     0.606538  s :     0.606538
      pz      :     0.082985  p :     0.310786
      px      :     0.123784
      py      :     0.104018
      dz2     :     0.019589  d :     0.225945
      dxz     :     0.036479
      dyz     :     0.048070
      dx2y2   :     0.075693
      dxy     :     0.046114

 22 O s       :     3.160752  s :     3.160752
      pz      :     1.424711  p :     4.010875
      px      :     1.142649
      py      :     1.443515
      dz2     :     0.088504  d :     0.239037
      dxz     :     0.028791
      dyz     :     0.080994
      dx2y2   :     0.029411
      dxy     :     0.011338
      f0      :     0.028949  f :     0.080150
      f+1     :     0.009105
      f-1     :     0.019052
      f+2     :     0.012968
      f-2     :     0.007637
      f+3     :     0.000685
      f-3     :     0.001755

 23 O s       :     3.160730  s :     3.160730
      pz      :     1.420612  p :     4.010942
      px      :     1.142718
      py      :     1.447612
      dz2     :     0.088749  d :     0.239056
      dxz     :     0.030806
      dyz     :     0.081992
      dx2y2   :     0.028183
      dxy     :     0.009326
      f0      :     0.029123  f :     0.080151
      f+1     :     0.009459
      f-1     :     0.019539
      f+2     :     0.012454
      f-2     :     0.007465
      f+3     :     0.000499
      f-3     :     0.001612



                      *****************************
                      * MAYER POPULATION ANALYSIS *
                      *****************************

  NA   - Mulliken gross atomic population
  ZA   - Total nuclear charge
  QA   - Mulliken gross atomic charge
  VA   - Mayer's total valence
  BVA  - Mayer's bonded valence
  FA   - Mayer's free valence

  ATOM       NA         ZA         QA         VA         BVA        FA
  0 C      4.5199     6.0000     1.4801     1.9903     1.9903     0.0000
  1 C      6.1527     6.0000    -0.1527     3.7542     3.7542    -0.0000
  2 C      6.1816     6.0000    -0.1816     3.8036     3.8036     0.0000
  3 C      4.5151     6.0000     1.4849     1.9852     1.9852     0.0000
  4 C      5.2269     6.0000     0.7731     1.6989     1.6989     0.0000
  5 C      5.2485     6.0000     0.7515     1.7272     1.7272    -0.0000
  6 C      7.1648     6.0000    -1.1648     2.1148     2.1148     0.0000
  7 C      6.4758     6.0000    -0.4758     2.7569     2.7569     0.0000
  8 C      6.4535     6.0000    -0.4535     2.7425     2.7425     0.0000
  9 C      7.1787     6.0000    -1.1787     2.1914     2.1914     0.0000
 10 H      0.7406     1.0000     0.2594     1.1299     1.1299     0.0000
 11 H      0.2817     1.0000     0.7183     0.2537     0.2537    -0.0000
 12 H      0.2831     1.0000     0.7169     0.2423     0.2423    -0.0000
 13 H      0.7531     1.0000     0.2469     1.1438     1.1438     0.0000
 14 C      6.8268     6.0000    -0.8268     3.5120     3.5120     0.0000
 15 H      0.7562     1.0000     0.2438     0.9797     0.9797     0.0000
 16 H      0.8043     1.0000     0.1957     0.9896     0.9896     0.0000
 17 H      0.7593     1.0000     0.2407     0.9815     0.9815    -0.0000
 18 C      6.8339     6.0000    -0.8339     3.5368     3.5368    -0.0000
 19 H      0.7529     1.0000     0.2471     0.9718     0.9718    -0.0000
 20 H      0.8199     1.0000     0.1801     1.0109     1.0109    -0.0000
 21 H      0.7556     1.0000     0.2444     0.9762     0.9762    -0.0000
 22 O      9.2592     8.0000    -1.2592     1.0064     1.0064     0.0000
 23 O      9.2560     8.0000    -1.2560     1.0135     1.0135     0.0000

  Mayer bond orders larger than 0.100000
B(  0-C ,  1-C ) :   1.1151 B(  0-C ,  2-C ) :  -0.3635 B(  0-C ,  3-C ) :   0.7253 
B(  0-C ,  4-C ) :  -0.3285 B(  0-C ,  5-C ) :   0.7428 B(  0-C ,  6-C ) :   0.4175 
B(  0-C ,  7-C ) :   0.1062 B(  0-C , 18-C ) :  -0.1153 B(  0-C , 23-O ) :  -0.2252 
B(  1-C ,  2-C ) :   1.4848 B(  1-C ,  3-C ) :  -0.3787 B(  1-C ,  4-C ) :  -0.2189 
B(  1-C ,  5-C ) :   0.6326 B(  1-C , 14-C ) :   0.1617 B(  1-C , 18-C ) :   0.4872 
B(  1-C , 19-H ) :  -0.1170 B(  1-C , 21-H ) :  -0.1177 B(  1-C , 22-O ) :   0.1166 
B(  1-C , 23-O ) :   0.3347 B(  2-C ,  3-C ) :   1.1301 B(  2-C ,  4-C ) :   0.6546 
B(  2-C ,  5-C ) :  -0.2150 B(  2-C , 14-C ) :   0.4805 B(  2-C , 15-H ) :  -0.1179 
B(  2-C , 17-H ) :  -0.1213 B(  2-C , 18-C ) :   0.1476 B(  2-C , 22-O ) :   0.3404 
B(  2-C , 23-O ) :   0.1169 B(  3-C ,  4-C ) :   0.7050 B(  3-C ,  5-C ) :  -0.2994 
B(  3-C ,  7-C ) :   0.1013 B(  3-C ,  8-C ) :   0.1024 B(  3-C ,  9-C ) :   0.4362 
B(  3-C , 14-C ) :  -0.1298 B(  3-C , 22-O ) :  -0.2167 B(  4-C ,  5-C ) :   0.8886 
B(  4-C ,  6-C ) :  -0.4314 B(  4-C ,  8-C ) :  -0.1940 B(  4-C ,  9-C ) :   0.1424 
B(  4-C , 22-O ) :   0.3240 B(  5-C ,  7-C ) :  -0.1870 B(  5-C ,  9-C ) :  -0.4718 
B(  5-C , 23-O ) :   0.3576 B(  6-C ,  7-C ) :   1.3214 B(  6-C , 12-H ) :  -0.1343 
B(  6-C , 13-H ) :   0.8398 B(  7-C ,  8-C ) :   1.3189 B(  7-C , 12-H ) :   0.1662 
B(  8-C ,  9-C ) :   1.3172 B(  8-C , 11-H ) :   0.1823 B(  9-C , 10-H ) :   0.8142 
B(  9-C , 11-H ) :  -0.1167 B( 10-H , 22-O ) :   0.2318 B( 13-H , 23-O ) :   0.2377 
B( 14-C , 15-H ) :   0.9864 B( 14-C , 16-H ) :   0.9199 B( 14-C , 17-H ) :   0.9908 
B( 18-C , 19-H ) :   0.9809 B( 18-C , 20-H ) :   0.9403 B( 18-C , 21-H ) :   0.9844 


-------
TIMINGS
-------

Total SCF time: 0 days 0 hours 4 min 23 sec 

Total time                  ....     263.847 sec
Sum of individual times     ....     261.616 sec  ( 99.2%)

SCF preparation             ....       2.710 sec  (  1.0%)
Fock matrix formation       ....     217.178 sec  ( 82.3%)
  Startup                   ....       4.969 sec  (  2.3% of F)
  Split-RI-J                ....      21.711 sec  ( 10.0% of F)
  Chain of spheres X        ....     135.536 sec  ( 62.4% of F)
  XC integration            ....      37.209 sec  ( 17.1% of F)
    XC Preparation          ....       0.000 sec  (  0.0% of XC)
    Basis function eval.    ....       4.605 sec  ( 12.4% of XC)
    Density eval.           ....      10.079 sec  ( 27.1% of XC)
    XC-Functional eval.     ....       0.182 sec  (  0.5% of XC)
    XC-Potential eval.      ....      14.397 sec  ( 38.7% of XC)
  CPCM terms                ....      10.505 sec  (  4.8% of F)
Diagonalization             ....       0.000 sec  (  0.0%)
Density matrix formation    ....       7.638 sec  (  2.9%)
Total Energy calculation    ....       5.151 sec  (  2.0%)
Population analysis         ....       1.033 sec  (  0.4%)
Orbital Transformation      ....       1.884 sec  (  0.7%)
Orbital Orthonormalization  ....       0.000 sec  (  0.0%)
DIIS solution               ....      22.816 sec  (  8.6%)
SOSCF solution              ....       3.206 sec  (  1.2%)
Finished LeanSCF after 264.4 sec

Maximum memory used throughout the entire LEANSCF-calculation: 147.8 MB


-------------------------------------------------------------------------------
                          DFT DISPERSION CORRECTION                            
                                                                               
                              DFTD3 V3.1  Rev 1                                
                          USING Becke-Johnson damping                          
-------------------------------------------------------------------------------
The PBE0 functional is recognized
Active option DFTDOPT                   ...         4   

molecular C6(AA) [au] = 6930.246383 


            DFT-D V3
 parameters
 s6 scaling factor         :     1.0000 
 a1 scaling factor         :     0.4145 
 s8 scaling factor         :     1.2177 
 a2 scaling factor         :     4.8593 
 ad hoc parameters k1-k3   :    16.0000     1.3333    -4.0000 

 Edisp/kcal,au: -16.532214744873  -0.026345758374 
 E6   /kcal   : -10.265487744 
 E8   /kcal   :  -6.266727001 
 % E8         :  37.906155333 

-------------------------   ----------------
Dispersion correction           -0.026345758
-------------------------   ----------------


-------------------------   --------------------
FINAL SINGLE POINT ENERGY      -613.288747150913
-------------------------   --------------------



           ************************************************************
           *        Program running with 15 parallel MPI-processes    *
           *              working on a common directory               *
           ************************************************************

------------------------------------------------------------------------------
                              ORCA PROPERTY CALCULATIONS
------------------------------------------------------------------------------

GBWName                                 ... cs_rporg_w09_ox_solv_05.gbw
Number of atoms                         ...     24
Number of basis functions               ...    958
Max core memory                         ...   3500 MB

Electric properties:
Dipole moment                           ... YES
Quadrupole moment                       ...  NO
Static polarizability (Dipole/Dipole)   ...  NO
Static polarizability (Dipole/Quad.)    ...  NO
Static polarizability (Quad./Quad.)     ...  NO
Static polarizability (Velocity)        ...  NO

Atomic electric properties:
Dipole moment                           ...  NO
Quadrupole moment                       ...  NO
Static polarizability                   ...  NO

Choice of electric origin               ... Center of mass
Position of electric origin             ...    -0.000453     0.408273     2.758171

General magnetic properties:
Magnetizability                         ...  NO

EPR properties:
g-Tensor (aka g-matrix)                 ...  NO
Zero-Field splitting spin-orbit         ...  NO
Zero-field splitting spin-spin          ...  NO
Hyperfine couplings                     ...  NO (   0 nuclei)
Quadrupole couplings                    ...  NO (   0 nuclei)
Contact density                         ...  NO (   0 nuclei)

NMR properties:
Chemical shifts                         ...  NO (   0 nuclei)
Spin-rotation constants                 ...  NO (   0 nuclei)
Spin-spin couplings                     ...  NO (   0 nuclei,    0 pairs)

Choice of magnetic origin               ... GIAO
Position of magnetic origin             ...     0.000000     0.000000     0.000000

Properties with geometric perturbations:
SCF Hessian                             ...  NO
IR spectrum                             ...  NO
VCD spectrum                            ...  NO
X-ray spectroscopy properties:
SCF XES/XAS/RIXS spectra                ...  NO


-------------
DIPOLE MOMENT
-------------

Method             : SCF
Type of density    : Electron Density
Multiplicity       :   1
Irrep              :   0
Energy             :  -613.2624013925385498 Eh
Relativity type    : 
Basis              : AO
                                X                 Y                 Z
Electronic contribution:     -0.004902579      -6.539290297       3.264362817
Nuclear contribution   :      0.005720256       6.367214391      -3.176836513
                        -----------------------------------------
Total Dipole Moment    :      0.000817677      -0.172075906       0.087526304
                        -----------------------------------------
Magnitude (a.u.)       :      0.193058644
Magnitude (Debye)      :      0.490716076



--------------------
Rotational spectrum 
--------------------
 
Rotational constants in cm-1:             0.037375             0.021586             0.013754 
Rotational constants in MHz :          1120.461464           647.130480           412.334281 

Dipole components along the rotational axes: 
x,y,z [a.u.] :    -0.193051     0.001518    -0.000747 
x,y,z [Debye]:    -0.490697     0.003860    -0.001900 

 

Dipole moment calculation done in   0.3 sec 

Maximum memory used throughout the entire PROP-calculation: 82.6 MB

--------------------------------
SUGGESTED CITATIONS FOR THIS RUN
--------------------------------

Below you find a list of papers that are relevant to this ORCA run
We neither can nor want to force you to cite these papers, but we appreciate if you do
You receive ORCA, which is the product of decades of hard work by many enthusiastic individuals, for free
The only thing we kindly ask in return is that you cite our papers,
We deeply appreciate it, if you show your appreciation for ORCA by not just citing the generic ORCA reference.

Please note that relegating all ORCA citations to the supporting information does *not* help us.
SI sections are not indexed - citations you put there will not count into any citation statistics
But we need these citations in order to attract the funding resources that allow us to do what we are doing

Therefore, if you are a happy ORCA user, please consider citing a few of the papers listed below in the main body of your paper

In addition to the list printed below, the program has created the file cs_rporg_w09_ox_solv_05.bibtex that contains the list in bibtex format
You can import this file easily into all common literature databanks and citation aid programs


List of essential papers. We consider these as the minimum necessary citations

  1. Neese,F.
     Software update: the ORCA program system, version 5.0
     WIRES Comput. Molec. Sci., 2022 12(1)e1606
     doi.org/10.1002/wcms.1606

List of papers to cite with high priority. The work reported in these papers was absolutely
necessary for this run to complete.
Our perspective: the developers of density functionals and basis sets usually get cited in chemistry papers
Good! But without the algorithms to do something with them, the functionals or basis sets would not do anything.
Hence, in our opinion, the algorithm design and method developments papers are equally worthy of getting cited

  1. Neese,F.
     An improvement of the resolution of the identity approximation for the formation of the Coulomb matrix
     J. Comp. Chem., 2003 24(14)1740-1747
     doi.org/10.1002/jcc.10318
  2. Neese,F.; Wennmohs,F.; Hansen,A.; Becker,U.
     Efficient, approximate and parallel Hartree-Fock and hybrid DFT calculations. A 'chain-of-spheres' algorithm for the Hartree-Fock exchange
     Chem. Phys., 2009 356(1-3)98-109
     doi.org/10.1016/j.chemphys.2008.10.036
  3. Garcia-Rates,M.; Neese,F.
     Effect of the Solute Cavity on the Solvation Energy and its Derivatives within the Framework of the Gaussian Charge Scheme
     J. Comput. Chem., 2020 41 922-939
     doi.org/10.1002/jcc.26139
  4. Helmich-Paris,B.; de Souza,B.; Neese,F.; Izsák,R.
     An improved chain of spheres for exchange algorithm
     J. Chem. Phys., 2021 155 104109
     doi.org/doi: 10.1063/5.0058766.
  5. Neese,F.
     The SHARK Integral Generation and Digestion System
     J. Comp. Chem., 2022  1-16
     doi.org/10.1002/jcc.26942
  6. Grimme,S.; Antony,J.; Ehrlich,S.; Krieg,H.
     A consistent and accurate ab initio parametrization of density functional dispersion correction (DFT-D) for the 94 elements H-Pu
     J. Chem. Phys., 2010 132 154104-XXXX
     doi.org/10.1063/1.3382344
  7. Grimme,S.; Ehrlich,S.; Goerigk,L.
     Effect of the damping function in dispersion corrected density functional theory
     J. Comput. Chem., 2011 32(7)1456-1465
     doi.org/10.1002/jcc.21759

List of suggested additional citations. These are papers that are important in the 'surrounding' of 
of this run, or papers that preceded the highly important papers. If you like your results we are grateful for a citation.

  1. Izsak,R.; Neese,F.
     An overlap fitted chain of spheres exchange method
     J. Chem. Phys., 2011 135 144105
     doi.org/10.1063/1.3646921
  2. Izsak,R.; Hansen,A.; Neese,F.
     The resolution of identity and chain of spheres approximations for the LPNO-CCSD singles Fock term
     Molec. Phys., 2012 110 2413-2417
     doi.org/10.1080/00268976.2012.687466
  3. Neese,F.
     The ORCA program system
     WIRES Comput. Molec. Sci., 2012 2(1)73-78
     doi.org/10.1002/wcms.81
  4. Izsak,R.; Neese,F.; Klopper,W.
     Robust fitting techniques in the chain of spheres approximation to the Fock exchange: The role of the complementary space
     J. Chem. Phys., 2013 139 
     doi.org/10.1063/1.4819264
  5. Neese,F.
     Software update: the ORCA program system, version 4.0
     WIRES Comput. Molec. Sci., 2018 8(1)1-6
     doi.org/10.1002/wcms.1327
  6. Neese,F.; Wennmohs,F.; Becker,U.; Riplinger,C.
     The ORCA quantum chemistry program package
     J. Chem. Phys., 2020 152 Art. No. L224108
     doi.org/10.1063/5.0004608

List of optional additional citations

  1. Neese,F.
     Approximate second-order SCF convergence for spin unrestricted wavefunctions
     Chem. Phys. Lett., 2000 325(1-3)93-98
     doi.org/10.1016/s0009-2614(00)00662-x

Timings for individual modules:

Sum of individual times          ...      287.282 sec (=   4.788 min)
Startup calculation              ...       13.076 sec (=   0.218 min)   4.6 %
SCF iterations                   ...      271.219 sec (=   4.520 min)  94.4 %
Property calculations            ...        2.988 sec (=   0.050 min)   1.0 %
                             ****ORCA TERMINATED NORMALLY****
TOTAL RUN TIME: 0 days 0 hours 4 minutes 51 seconds 809 msec
