
                                 *****************
                                 * O   R   C   A *
                                 *****************

                                            #,                                       
                                            ###                                      
                                            ####                                     
                                            #####                                    
                                            ######                                   
                                           ########,                                 
                                     ,,################,,,,,                         
                               ,,#################################,,                 
                          ,,##########################################,,             
                       ,#########################################, ''#####,          
                    ,#############################################,,   '####,        
                  ,##################################################,,,,####,       
                ,###########''''           ''''###############################       
              ,#####''   ,,,,##########,,,,          '''####'''          '####       
            ,##' ,,,,###########################,,,                        '##       
           ' ,,###''''                  '''############,,,                           
         ,,##''                                '''############,,,,        ,,,,,,###''
      ,#''                                            '''#######################'''  
     '                                                          ''''####''''         
             ,#######,   #######,   ,#######,      ##                                
            ,#'     '#,  ##    ##  ,#'     '#,    #''#        ,####,   ,####,        
            ##       ##  ##   ,#'  ##            #'  '#       #'       #'  '#        
            ##       ##  #######   ##           ,######,      #####,   #    #        
            '#,     ,#'  ##    ##  '#,     ,#' ,#      #,     #,   #   #,  ,#        
             '#######'   ##     ##  '#######'  #'      '#     '####' # '####'        



                #########################################################
                #                        -***-                          #
                #          Department of theory and spectroscopy        #
                #                                                       #
                #                      Frank Neese                      #
                #                                                       #
                #     Directorship, Architecture, Infrastructure        #
                #                    SHARK, DRIVERS                     #
                #        Core code/Algorithms in most modules           #
                #                                                       #
                #        Max Planck Institute fuer Kohlenforschung      #
                #                Kaiser Wilhelm Platz 1                 #
                #                 D-45470 Muelheim/Ruhr                 #
                #                      Germany                          #
                #                                                       #
                #                  All rights reserved                  #
                #                        -***-                          #
                #########################################################


                         Program Version 6.0.0  -   RELEASE  -


 With contributions from (in alphabetic order):
   Daniel Aravena         : Magnetic Suceptibility
   Michael Atanasov       : Ab Initio Ligand Field Theory (pilot matlab implementation)
   Alexander A. Auer      : GIAO ZORA, VPT2 properties, NMR spectrum
   Ute Becker             : All parallelization in ORCA, NUMFREQ, NUMCALC
   Giovanni Bistoni       : ED, misc. LED, open-shell LED, HFLD
   Martin Brehm           : Molecular dynamics
   Dmytro Bykov           : pre 5.0 version of the SCF Hessian
   Marcos Casanova-Páez   : Triplet and SCS-CIS(D). UHF-(DLPNO)-IP/EA/STEOM-CCSD. UHF-CVS-IP/STEOM-CCSD
   Vijay G. Chilkuri      : MRCI spin determinant printing, contributions to CSF-ICE
   Pauline Colinet        : FMM embedding
   Dipayan Datta          : RHF DLPNO-CCSD density
   Achintya Kumar Dutta   : EOM-CC, STEOM-CC
   Nicolas Foglia         : Exact transition moments, OPA infrastructure, MCD improvements
   Dmitry Ganyushin       : Spin-Orbit,Spin-Spin,Magnetic field MRCI
   Miquel Garcia          : C-PCM and meta-GGA Hessian, CCSD/C-PCM, Gaussian charge scheme
   Tiago L. C. Gouveia    : GS-ROHF, GS-ROCIS
   Yang Guo               : DLPNO-NEVPT2, F12-NEVPT2, CIM, IAO-localization
   Andreas Hansen         : Spin unrestricted coupled pair/coupled cluster methods
   Ingolf Harden          : AUTO-CI MPn and infrastructure 
   Benjamin Helmich-Paris : MC-RPA, TRAH-(SCF,CASSCF), AVAS, COSX integrals, SCF dyn. polar.
   Lee Huntington         : MR-EOM, pCC
   Robert Izsak           : Overlap fitted RIJCOSX, COSX-SCS-MP3, EOM
   Riya Kayal             : Wick's Theorem for AUTO-CI, AUTO-CI UHF-CCSDT
   Emily Kempfer          : AUTO-CI, RHF CISDT and CCSDT
   Christian Kollmar      : KDIIS, OOCD, Brueckner-CCSD(T), CCSD density, CASPT2, CASPT2-K, improved NEVPT2
   Axel Koslowski         : Symmetry handling
   Simone Kossmann        : Meta GGA functionals, TD-DFT gradient, OOMP2, (MP2 Hessian; deprecated post 5.0)
   Lucas Lang             : DCDCAS
   Marvin Lechner         : AUTO-CI (C++ implementation), FIC-MRCC
   Spencer Leger          : CASSCF response
   Dagmar Lenk            : GEPOL surface, SMD, ORCA-2-JSON
   Dimitrios Liakos       : Extrapolation schemes; Compound Job, initial MDCI parallelization
   Dimitrios Manganas     : Further ROCIS development; embedding schemes. LFT, Crystal Embedding
   Dimitrios Pantazis     : SARC Basis sets
   Anastasios Papadopoulos: AUTO-CI, single reference methods and gradients
   Taras Petrenko         : pre 6.0 DFT Hessian and TD-DFT gradient, (ASA, deprecated), ECA, 1-Electron XAS/XES, NRVS
   Peter Pinski           : DLPNO-MP2, DLPNO-MP2 Gradient
   Christoph Reimann      : Effective Core Potentials
   Marius Retegan         : Local ZFS, SOC
   Christoph Riplinger    : Optimizer, TS searches, QM/MM, DLPNO-CCSD(T), (RO)-DLPNO pert. Triples
   Michael Roemelt        : Original ROCIS implementation
   Masaaki Saitow         : Open-shell DLPNO-CCSD energy and density
   Barbara Sandhoefer     : DKH picture change effects
   Kantharuban Sivalingam : CASSCF convergence/infrastructure, NEVPT2 and variants, FIC-MRCI
   Bernardo de Souza      : ESD, SOC TD-DFT
   Georgi Stoychev        : AutoAux, RI-MP2 NMR, DLPNO-MP2 response, X2C
   Van Anh Tran           : RI-MP2 g-tensors
   Willem Van den Heuvel  : Paramagnetic NMR
   Zikuan Wang            : NOTCH, Electric field optimization 
   Frank Wennmohs         : Technical directorship and infrastructure
   Hang Xu                : AUTO-CI-Response properties 


 We gratefully acknowledge several colleagues who have allowed us to
 interface, adapt or use parts of their codes:
   Stefan Grimme, W. Hujo, H. Kruse, P. Pracht,  : VdW corrections, initial TS optimization,
                  C. Bannwarth, S. Ehlert,         DFT functionals, gCP, sTDA/sTD-DF
                  L. Wittmann, M. Mueller
   Ed Valeev, F. Pavosevic, A. Kumar             : LibInt (2-el integral package), F12 methods
   Garnet Chan, S. Sharma, J. Yang, R. Olivares  : DMRG
   Ulf Ekstrom                                   : XCFun DFT Library
   Mihaly Kallay                                 : mrcc  (arbitrary order and MRCC methods)
   Frank Weinhold                                : gennbo (NPA and NBO analysis)
   Simon Mueller                                 : openCOSMO-RS
   Christopher J. Cramer and Donald G. Truhlar   : smd solvation model
   Lars Goerigk                                  : TD-DFT with DH, B97 family of functionals
   V. Asgeirsson, H. Jonsson                     : NEB implementation
   FAccTs GmbH                                   : IRC, NEB, NEB-TS, DLPNO-Multilevel, CI-OPT
                                                   MM, QMMM, 2- and 3-layer-ONIOM, Crystal-QMMM,
                                                   LR-CPCM, SF, NACMEs, symmetry and pop. for TD-DFT,
                                                   nearIR, NL-DFT gradient (VV10), updates on ESD,
                                                   ML-optimized integration grids, MBIS, APM,
                                                   GOAT, DOCKER, SOLVATOR, interface openCOSMO-RS
   S Lehtola, MJT Oliveira, MAL Marques          : LibXC Library
   Liviu Ungur et al                             : ANISO software


 Your calculation uses the libint2 library for the computation of 2-el integrals
 For citations please refer to: http://libint.valeyev.net

 Your ORCA version has been built with support for libXC version: 6.2.2
 For citations please refer to: https://libxc.gitlab.io

 This ORCA versions uses:
   CBLAS   interface :  Fast vector & matrix operations
   LAPACKE interface :  Fast linear algebra routines
   SCALAPACK package :  Parallel linear algebra routines
   Shared memory     :  Shared parallel matrices
   BLAS/LAPACK       :  OpenBLAS 0.3.27  USE64BITINT DYNAMIC_ARCH NO_AFFINITY SkylakeX SINGLE_THREADED
        Core in use  :  SkylakeX
   Copyright (c) 2011-2014, The OpenBLAS Project


NOTE: MaxCore=3000 MB was set to SCF,MP2,MDCI,CIPSI,MRCI and CIS
      => If you want to overwrite this, your respective input block should be placed after the MaxCore statement
Your calculation utilizes the atom-pairwise dispersion correction
with the Becke-Johnson damping scheme (D3BJ)


Your calculation utilizes the SMD solvation module
Please cite in your paper:
A.V. Marenich, C.J. Cramer, D.G. Truhlar J. Phys. Chem. B, 113, (2009), 6378 

Warning: RI is on but no J-basis has been assigned. Assigning Def2/J (nothing to worry about!)
================================================================================

----- Orbital basis set information -----
Your calculation utilizes the basis: aug-cc-pVTZ 
    H, B-Ne : Obtained from the ccRepo (grant-hill.group.shef.ac.uk/ccrepo) Feb. 2017
              R. A. Kendall, T. H. Dunning, Jr., R. J. Harrison, J. Chem. Phys. 96, 6796 (1992)
         He : Obtained from the ccRepo (grant-hill.group.shef.ac.uk/ccrepo) Feb. 2017
              D. E. Woon, T. H. Dunning, Jr., J. Chem. Phys. 100, 2975 (1994)
  Li-Be, Na : Obtained from the ccRepo (grant-hill.group.shef.ac.uk/ccrepo) Feb. 2017
              B. P. Prascher, D. E. Woon, K. A. Peterson, T. H. Dunning, Jr., A. K. Wilson, Theor. Chem. Acc. 128, 69 (2011)
         Mg : Obtained from the Peterson Research Group Website (tyr0.chem.wsu.edu/~kipeters) Feb. 2017
              B. P. Prascher, D. E. Woon, K. A. Peterson, T. H. Dunning, Jr., A. K. Wilson, Theor. Chem. Acc. 128, 69 (2011)
      Al-Ar : Obtained from the ccRepo (grant-hill.group.shef.ac.uk/ccrepo) Feb. 2017
              D. E. Woon, T. H. Dunning, Jr., J. Chem. Phys. 98, 1358 (1993)
      Sc-Zn : Obtained from the ccRepo (grant-hill.group.shef.ac.uk/ccrepo) Feb. 2017
              N. B. Balabanov, K. A. Peterson, J. Chem. Phys. 123, 064107 (2005)
              N. B. Balabanov, K. A. Peterson, J. Chem. Phys. 125, 074110 (2006)
      Ga-Kr : Obtained from the ccRepo (grant-hill.group.shef.ac.uk/ccrepo) Feb. 2017
              A. K. Wilson, D. E. Woon, K. A. Peterson, T. H. Dunning, Jr., J. Chem. Phys. 110, 7667 (1999)
     Ag, Au : Obtained from the Peterson Research Group Website (tyr0.chem.wsu.edu/~kipeters) Feb. 2017
              K. A. Peterson, C. Puzzarini, Theor. Chem. Acc. 114, 283 (2005)

----- AuxJ basis set information -----
Your calculation utilizes the auxiliary basis: def2/J
   F. Weigend, Phys. Chem. Chem. Phys. 8, 1057 (2006).

================================================================================
                                        WARNINGS
                       Please study these warnings very carefully!
================================================================================

Using LibXC functional ID 497 : Re-regularized SCAN exchange by Furness et al
[ 1]  J. W. Furness, A. D. Kaplan, J. Ning, J. P. Perdew, and J. Sun.,  J. Phys. Chem. Lett. 11, 8208-8215 (2020)
[ 2]  J. W. Furness, A. D. Kaplan, J. Ning, J. P. Perdew, and J. Sun.,  J. Phys. Chem. Lett. 11, 9248-9248 (2020)
Using LibXC functional ID 498 : Re-regularized SCAN correlation by Furness et al
[ 1]  J. W. Furness, A. D. Kaplan, J. Ning, J. P. Perdew, and J. Sun.,  J. Phys. Chem. Lett. 11, 8208-8215 (2020)
[ 2]  J. W. Furness, A. D. Kaplan, J. Ning, J. P. Perdew, and J. Sun.,  J. Phys. Chem. Lett. 11, 9248-9248 (2020)
Using LibXC functional ID 497 : Re-regularized SCAN exchange by Furness et al
[ 1]  J. W. Furness, A. D. Kaplan, J. Ning, J. P. Perdew, and J. Sun.,  J. Phys. Chem. Lett. 11, 8208-8215 (2020)
[ 2]  J. W. Furness, A. D. Kaplan, J. Ning, J. P. Perdew, and J. Sun.,  J. Phys. Chem. Lett. 11, 9248-9248 (2020)
Using LibXC functional ID 498 : Re-regularized SCAN correlation by Furness et al
[ 1]  J. W. Furness, A. D. Kaplan, J. Ning, J. P. Perdew, and J. Sun.,  J. Phys. Chem. Lett. 11, 8208-8215 (2020)
[ 2]  J. W. Furness, A. D. Kaplan, J. Ning, J. P. Perdew, and J. Sun.,  J. Phys. Chem. Lett. 11, 9248-9248 (2020)


WARNING: Found flag for RIJCOSX approximation but no HF exchange needed!
  ===> : RIJCOSX  will be disabled and Split-RI-J is turned on

WARNING: your system is open-shell and RHF/RKS was chosen
  ===> : WILL SWITCH to UHF/UKS


================================================================================
                                       INPUT FILE
================================================================================
NAME = cs_rporg_077_ox_solv_03.inp
|  1> !r2SCAN aug-cc-pVTZ d3 TightSCF SlowConv RIJCOSX defgrid2
|  2>  
|  3> %pal
|  4> nprocs 4
|  5> end
|  6>  
|  7> %scf
|  8> MaxIter 1500
|  9> end
| 10>  
| 11> %maxcore 3000
| 12>  
| 13> !CPCM
| 14> %cpcm smd true
| 15> SMDsolvent "MeCN"
| 16> surfacetype gepol_ses
| 17> rsolv 2.19
| 18> end 
| 19>  
| 20> * xyz 1 2
| 21> C           2.57979434838040     -0.76512868779033      0.55002877373972
| 22> N           1.26500932172402     -1.28908125363632      0.40636602507995
| 23> C           0.28298609020251     -0.62522563405020     -0.18777766408559
| 24> N           0.31055121241113      0.70973986743819     -0.21944975029898
| 25> C          -0.90428464054798      1.50462363713153     -0.44239867601191
| 26> C          -2.03947642318260      1.21762022221086      0.53873406977095
| 27> C          -2.86207876844258     -0.03194236210921      0.24124470818338
| 28> C          -2.09231646642057     -1.34422284732392      0.30081277590326
| 29> C          -0.89800263393673     -1.40686847310809     -0.66426598959003
| 30> H          -1.19352492058052     -1.04767852417754     -1.66637286512155
| 31> H          -0.55567841992770     -2.44756644418100     -0.76734795095617
| 32> H          -1.73641294806257     -1.54754065839741      1.32696955727058
| 33> H          -2.77055233723731     -2.17340424344339      0.04048078954003
| 34> H          -3.70277523981103     -0.07756392292857      0.95370276319110
| 35> H          -3.31960998926737      0.07384959946049     -0.76068861915501
| 36> H          -1.62677902226913      1.18604117824051      1.56422468629433
| 37> H          -2.70692750664589      2.09548743827220      0.50583543871622
| 38> H          -1.23343592081792      1.34322694259980     -1.48570258502121
| 39> H          -0.59336721164102      2.55553341754968     -0.36087201839100
| 40> C           1.54294297274965      1.42951819328861      0.10261663203758
| 41> C           2.75435971769682      0.56347028127833     -0.16667570355996
| 42> H           3.66676062867917      1.07905197663072      0.17154765035364
| 43> H           2.85358487208654      0.39538376428371     -1.25327533388472
| 44> H           1.55803196576022      2.33719006220635     -0.52185668580850
| 45> H           1.49212710050547      1.76061659958086      1.15811318961915
| 46> H           2.78164201792086     -0.70742891166271      1.63950028346109
| 47> H           3.28595160067412     -1.53996281736316      0.18807279872366
| 48> *
| 49> 
| 50>                          ****END OF INPUT****
================================================================================

                       ****************************
                       * Single Point Calculation *
                       ****************************

---------------------------------
CARTESIAN COORDINATES (ANGSTROEM)
---------------------------------
  C      2.579794   -0.765129    0.550029
  N      1.265009   -1.289081    0.406366
  C      0.282986   -0.625226   -0.187778
  N      0.310551    0.709740   -0.219450
  C     -0.904285    1.504624   -0.442399
  C     -2.039476    1.217620    0.538734
  C     -2.862079   -0.031942    0.241245
  C     -2.092316   -1.344223    0.300813
  C     -0.898003   -1.406868   -0.664266
  H     -1.193525   -1.047679   -1.666373
  H     -0.555678   -2.447566   -0.767348
  H     -1.736413   -1.547541    1.326970
  H     -2.770552   -2.173404    0.040481
  H     -3.702775   -0.077564    0.953703
  H     -3.319610    0.073850   -0.760689
  H     -1.626779    1.186041    1.564225
  H     -2.706928    2.095487    0.505835
  H     -1.233436    1.343227   -1.485703
  H     -0.593367    2.555533   -0.360872
  C      1.542943    1.429518    0.102617
  C      2.754360    0.563470   -0.166676
  H      3.666761    1.079052    0.171548
  H      2.853585    0.395384   -1.253275
  H      1.558032    2.337190   -0.521857
  H      1.492127    1.760617    1.158113
  H      2.781642   -0.707429    1.639500
  H      3.285952   -1.539963    0.188073

----------------------------
CARTESIAN COORDINATES (A.U.)
----------------------------
  NO LB      ZA    FRAG     MASS         X           Y           Z
   0 C     6.0000    0    12.011    4.875105   -1.445884    1.039404
   1 N     7.0000    0    14.007    2.390521   -2.436011    0.767920
   2 C     6.0000    0    12.011    0.534766   -1.181505   -0.354848
   3 N     7.0000    0    14.007    0.586857    1.341214   -0.414700
   4 C     6.0000    0    12.011   -1.708850    2.843327   -0.836012
   5 C     6.0000    0    12.011   -3.854052    2.300969    1.018060
   6 C     6.0000    0    12.011   -5.408545   -0.060362    0.455886
   7 C     6.0000    0    12.011   -3.953905   -2.540213    0.568454
   8 C     6.0000    0    12.011   -1.696979   -2.658596   -1.255281
   9 H     1.0000    0     1.008   -2.255435   -1.979825   -3.148988
  10 H     1.0000    0     1.008   -1.050080   -4.625230   -1.450077
  11 H     1.0000    0     1.008   -3.281345   -2.924428    2.507609
  12 H     1.0000    0     1.008   -5.235585   -4.107139    0.076498
  13 H     1.0000    0     1.008   -6.997231   -0.146575    1.802237
  14 H     1.0000    0     1.008   -6.273154    0.139556   -1.437493
  15 H     1.0000    0     1.008   -3.074167    2.241293    2.955956
  16 H     1.0000    0     1.008   -5.115352    3.959897    0.955890
  17 H     1.0000    0     1.008   -2.330856    2.538331   -2.807571
  18 H     1.0000    0     1.008   -1.121302    4.829258   -0.681949
  19 C     6.0000    0    12.011    2.915740    2.701398    0.193917
  20 C     6.0000    0    12.011    5.204986    1.064805   -0.314971
  21 H     1.0000    0     1.008    6.929173    2.039113    0.324178
  22 H     1.0000    0     1.008    5.392494    0.747167   -2.368347
  23 H     1.0000    0     1.008    2.944254    4.416649   -0.986166
  24 H     1.0000    0     1.008    2.819712    3.327083    2.188517
  25 H     1.0000    0     1.008    5.256542   -1.336847    3.098207
  26 H     1.0000    0     1.008    6.209549   -2.910108    0.355406

--------------------------------
INTERNAL COORDINATES (ANGSTROEM)
--------------------------------
 C      0   0   0     0.000000000000     0.00000000     0.00000000
 N      1   0   0     1.422612014194     0.00000000     0.00000000
 C      2   1   0     1.325926330638   123.04839609     0.00000000
 N      3   2   1     1.335625638857   119.72027743   334.16010506
 C      4   3   2     1.468799707391   121.83273180   200.73207427
 C      5   4   3     1.527629800830   114.54809380    55.52164174
 C      6   5   4     1.525313472968   115.42982927   280.24350646
 C      7   6   5     1.522551289179   115.20085217    62.96092284
 C      3   2   1     1.494235931417   117.79790381   160.97959963
 H      9   3   2     1.104793660058   109.30448305   222.73888278
 H      9   3   2     1.100392668665   106.18404694   338.77691258
 H      8   7   6     1.104990129651   110.96270726    65.04981290
 H      8   7   6     1.102414816327   109.14700319   181.75236605
 H      7   6   5     1.102927179794   108.60103696   185.42121696
 H      7   6   5     1.106524807491   108.73969196   300.20024536
 H      6   5   4     1.105869515502   108.88215345    45.86498363
 H      6   5   4     1.103278803285   106.31487859   159.70623707
 H      5   4   3     1.105835659067   108.08367605   291.29987100
 H      5   4   3     1.098966610084   105.79840726   176.87151817
 C      4   3   2     1.463077935021   120.25722070    14.58023144
 C     20   4   3     1.513303630422   110.70623835    25.47385065
 H     21  20   4     1.101224293265   109.91683277   185.51279850
 H     21  20   4     1.103991605530   109.52562696    67.73516766
 H     20   4   3     1.101845190595   106.98023183   146.63190725
 H     20   4   3     1.107375903019   108.55753346   261.93151848
 H      1   2   3     1.109513369166   106.64554201   119.25698117
 H      1   2   3     1.109070836857   107.34860273   230.16623051

---------------------------
INTERNAL COORDINATES (A.U.)
---------------------------
 C      0   0   0     0.000000000000     0.00000000     0.00000000
 N      1   0   0     2.688347101653     0.00000000     0.00000000
 C      2   1   0     2.505637638661   123.04839609     0.00000000
 N      3   2   1     2.523966674883   119.72027743   334.16010506
 C      4   3   2     2.775629192554   121.83273180   200.73207427
 C      5   4   3     2.886801957586   114.54809380    55.52164174
 C      6   5   4     2.882424732290   115.42982927   280.24350646
 C      7   6   5     2.877204961398   115.20085217    62.96092284
 C      3   2   1     2.823696689842   117.79790381   160.97959963
 H      9   3   2     2.087757452001   109.30448305   222.73888278
 H      9   3   2     2.079440783551   106.18404694   338.77691258
 H      8   7   6     2.088128725726   110.96270726    65.04981290
 H      8   7   6     2.083262088835   109.14700319   181.75236605
 H      7   6   5     2.084230315469   108.60103696   185.42121696
 H      7   6   5     2.091028846548   108.73969196   300.20024536
 H      6   5   4     2.089790524151   108.88215345    45.86498363
 H      6   5   4     2.084894787568   106.31487859   159.70623707
 H      5   4   3     2.089726544760   108.08367605   291.29987100
 H      5   4   3     2.076745923383   105.79840726   176.87151817
 C      4   3   2     2.764816609773   120.25722070    14.58023144
 C     20   4   3     2.859729418966   110.70623835    25.47385065
 H     21  20   4     2.081012326291   109.91683277   185.51279850
 H     21  20   4     2.086241788600   109.52562696    67.73516766
 H     20   4   3     2.082185652202   106.98023183   146.63190725
 H     20   4   3     2.092637184010   108.55753346   261.93151848
 H      1   2   3     2.096676409648   106.64554201   119.25698117
 H      1   2   3     2.095840144779   107.34860273   230.16623051

---------------------
BASIS SET INFORMATION
---------------------
There are 3 groups of distinct atoms

 Group   1 Type C   : 19s6p3d2f contracted to 5s4p3d2f pattern {88111/3111/111/11}
 Group   2 Type N   : 19s6p3d2f contracted to 5s4p3d2f pattern {88111/3111/111/11}
 Group   3 Type H   : 6s3p2d contracted to 4s3p2d pattern {3111/111/11}

Atom   0C    basis set group =>   1
Atom   1N    basis set group =>   2
Atom   2C    basis set group =>   1
Atom   3N    basis set group =>   2
Atom   4C    basis set group =>   1
Atom   5C    basis set group =>   1
Atom   6C    basis set group =>   1
Atom   7C    basis set group =>   1
Atom   8C    basis set group =>   1
Atom   9H    basis set group =>   3
Atom  10H    basis set group =>   3
Atom  11H    basis set group =>   3
Atom  12H    basis set group =>   3
Atom  13H    basis set group =>   3
Atom  14H    basis set group =>   3
Atom  15H    basis set group =>   3
Atom  16H    basis set group =>   3
Atom  17H    basis set group =>   3
Atom  18H    basis set group =>   3
Atom  19C    basis set group =>   1
Atom  20C    basis set group =>   1
Atom  21H    basis set group =>   3
Atom  22H    basis set group =>   3
Atom  23H    basis set group =>   3
Atom  24H    basis set group =>   3
Atom  25H    basis set group =>   3
Atom  26H    basis set group =>   3
---------------------------------
AUXILIARY/J BASIS SET INFORMATION
---------------------------------
There are 3 groups of distinct atoms

 Group   1 Type C   : 12s5p4d2f1g contracted to 6s4p3d1f1g pattern {711111/2111/211/2/1}
 Group   2 Type N   : 12s5p4d2f1g contracted to 6s4p3d1f1g pattern {711111/2111/211/2/1}
 Group   3 Type H   : 5s2p1d contracted to 3s1p1d pattern {311/2/1}

Atom   0C    basis set group =>   1
Atom   1N    basis set group =>   2
Atom   2C    basis set group =>   1
Atom   3N    basis set group =>   2
Atom   4C    basis set group =>   1
Atom   5C    basis set group =>   1
Atom   6C    basis set group =>   1
Atom   7C    basis set group =>   1
Atom   8C    basis set group =>   1
Atom   9H    basis set group =>   3
Atom  10H    basis set group =>   3
Atom  11H    basis set group =>   3
Atom  12H    basis set group =>   3
Atom  13H    basis set group =>   3
Atom  14H    basis set group =>   3
Atom  15H    basis set group =>   3
Atom  16H    basis set group =>   3
Atom  17H    basis set group =>   3
Atom  18H    basis set group =>   3
Atom  19C    basis set group =>   1
Atom  20C    basis set group =>   1
Atom  21H    basis set group =>   3
Atom  22H    basis set group =>   3
Atom  23H    basis set group =>   3
Atom  24H    basis set group =>   3
Atom  25H    basis set group =>   3
Atom  26H    basis set group =>   3


           ************************************************************
           *        Program running with 4 parallel MPI-processes     *
           *              working on a common directory               *
           ************************************************************
------------------------------------------------------------------------------
                             ORCA STARTUP CALCULATIONS
                           -- RI-GTO INTEGRALS CHOSEN --
------------------------------------------------------------------------------
------------------------------------------------------------------------------
                   ___                                                        
                  /   \      - P O W E R E D   B Y -                         
                 /     \                                                     
                 |  |  |   _    _      __       _____    __    __             
                 |  |  |  | |  | |    /  \     |  _  \  |  |  /  |          
                  \  \/   | |  | |   /    \    | | | |  |  | /  /          
                 / \  \   | |__| |  /  /\  \   | |_| |  |  |/  /          
                |  |  |   |  __  | /  /__\  \  |    /   |      \           
                |  |  |   | |  | | |   __   |  |    \   |  |\   \          
                \     /   | |  | | |  |  |  |  | |\  \  |  | \   \       
                 \___/    |_|  |_| |__|  |__|  |_| \__\ |__|  \__/        
                                                                              
                      - O R C A' S   B I G   F R I E N D -                    
                                      &                                       
                       - I N T E G R A L  F E E D E R -                       
                                                                              
 v1 FN, 2020, v2 2021, v3 2022-2024                                           
------------------------------------------------------------------------------


----------------------
SHARK INTEGRAL PACKAGE
----------------------

Number of atoms                             ...     27
Number of basis functions                   ...    940
Number of shells                            ...    364
Maximum angular momentum                    ...      3
Integral batch strategy                     ... SHARK/LIBINT Hybrid
RI-J (if used) integral strategy            ... SPLIT-RIJ (Revised 2003 algorithm where possible)
Printlevel                                  ...      1
Contraction scheme used                     ... PARTIAL GENERAL contraction
Prescreening option                         ... SCHWARTZ
   Thresh                                   ... 2.500e-11
   Tcut                                     ... 2.500e-12
   Tpresel                                  ... 2.500e-12 
Coulomb Range Separation                    ... NOT USED
Exchange Range Separation                   ... NOT USED
Multipole approximations                    ... NOT USED
Finite Nucleus Model                        ... NOT USED
CABS basis                                  ... NOT available
Auxiliary Coulomb fitting basis             ... AVAILABLE
   # of basis functions in Aux-J            ...    715
   # of shells in Aux-J                     ...    245
   Maximum angular momentum in Aux-J        ...      4
Auxiliary J/K fitting basis                 ... NOT available
Auxiliary Correlation fitting basis         ... NOT available
Auxiliary 'external' fitting basis          ... NOT available

Checking pre-screening integrals            ... done (  0.0 sec) Dimension = 364
Save PGC pre-screening integrals            ... done (  0.0 sec) Dimension = 364
Calculate PGC overlap integrals             ... done (  0.1 sec) Dimension = 298
Calculating pre-screening integrals (ORCA)  ... done (  0.3 sec) Dimension = 298
Check shell pair data                       ... done (  0.0 sec)
Shell pair information
Shell pair cut-off parameter TPreSel        ...   2.5e-12
Total number of shell pairs                 ...     66430
Shell pairs after pre-screening             ...     56331
Total number of primitive shell pairs       ...     87652
Primitive shell pairs kept                  ...     68318
          la=0 lb=0:  12641 shell pairs
          la=1 lb=0:  14646 shell pairs
          la=1 lb=1:   3981 shell pairs
          la=2 lb=0:  10246 shell pairs
          la=2 lb=1:   5545 shell pairs
          la=2 lb=2:   1992 shell pairs
          la=3 lb=0:   3714 shell pairs
          la=3 lb=1:   1939 shell pairs
          la=3 lb=2:   1377 shell pairs
          la=3 lb=3:    250 shell pairs

Calculating one electron integrals          ... done (  0.1 sec)
Calculating RI/J V-Matrix + Cholesky decomp.... done (  0.1 sec)
Calculating Nuclear repulsion               ... done (  0.0 sec) ENN=    663.687175566960 Eh

Diagonalization of the overlap matrix:
Smallest eigenvalue                        ... 1.316e-06
Time for diagonalization                   ...    0.165 sec
Threshold for overlap eigenvalues          ... 1.000e-07
Number of eigenvalues below threshold      ... 0
Time for construction of square roots      ...    0.113 sec
Total time needed                          ...    0.303 sec

-------------------
DFT GRID GENERATION
-------------------

General Integration Accuracy     IntAcc      ... 4.388
Radial Grid Type                 RadialGrid  ... OptM3 with GC (2021)
Angular Grid (max. ang.)         AngularGrid ... 4 (Lebedev-302)
Angular grid pruning method      GridPruning ... 4 (adaptive)
Weight generation scheme         WeightScheme... mBecke (2022)
Basis function cutoff            BFCut       ... 1.0000e-11
Integration weight cutoff        WCut        ... 1.0000e-14
Partially contracted basis set               ... off
Rotationally invariant grid construction     ... off
Angular grids for H and He will be reduced by one unit
Diffuse basis detected: some atoms will have their outermost
                        angular grid increased by 1.

Total number of grid points                  ...   121688
Total number of batches                      ...     1914
Average number of points per batch           ...       63
Average number of grid points per atom       ...     4507

---------------------
SHARK GRID GENERATION
---------------------

General Integration Accuracy     IntAcc      ... 4.388
Radial Grid Type                 RadialGrid  ... OptM3 with GC (2021)
Angular Grid (max. ang.)         AngularGrid ... 4 (Lebedev-302)
Angular grid pruning method      GridPruning ... 4 (adaptive)
Weight generation scheme         WeightScheme... mBecke (2022)
Basis function cutoff            BFCut       ... 1.0000e-11
Integration weight cutoff        WCut        ... 1.0000e-14
Partially contracted basis set               ... off
Rotationally invariant grid construction     ... off
Angular grids for H and He will be reduced by one unit
Diffuse basis detected: some atoms will have their outermost
                        angular grid increased by 1.
Steep s-basis detected: some atoms will have their radial
                        grid points doubled.

Total number of grid points                  ...   189924
Total number of batches                      ...     2981
Average number of points per batch           ...       63
Average number of grid points per atom       ...     7034
Initializing property integral containers    ... done (  0.0 sec)

SHARK setup successfully completed in   7.6 seconds

Maximum memory used throughout the entire STARTUP-calculation: 122.6 MB


           ************************************************************
           *        Program running with 4 parallel MPI-processes     *
           *              working on a common directory               *
           ************************************************************
-------------------------------------------------------------------------------
                                 ORCA GUESS
                   Start orbitals & Density for SCF / CASSCF
-------------------------------------------------------------------------------

------------
SCF SETTINGS
------------
Hamiltonian:
 Density Functional     Method          .... DFT(GTOs)
  Functional kind                       .... Exchange
  Functional name                       .... Re-regularized SCAN exchange by Furness et al
  Functional family                     .... MGGA
  Functional refs                              
    [ 0] J. W. Furness, A. D. Kaplan, J. Ning, J. P. Perdew, and J. Sun.,  J. Phys. Chem. Lett. 11, 8208-8215 (2020), doi: 10.1021/acs.jpclett.0c02405
    [ 1] J. W. Furness, A. D. Kaplan, J. Ning, J. P. Perdew, and J. Sun.,  J. Phys. Chem. Lett. 11, 9248-9248 (2020), doi: 10.1021/acs.jpclett.0c03077
  Functional external parameters        .... 6
    Parameter  0 _c1        =  6.670000e-01 : c1 parameter        
    Parameter  1 _c2        =  8.000000e-01 : c2 parameter        
    Parameter  2 _d         =  1.240000e+00 : d parameter         
    Parameter  3 _k1        =  6.500000e-02 : k1 parameter        
    Parameter  4 _eta       =  1.000000e-03 : eta parameter       
    Parameter  5 _dp2       =  3.610000e-01 : dp2 parameter       
  Functional kind                       .... Correlation
  Functional name                       .... Re-regularized SCAN correlation by Furness et al
  Functional family                     .... MGGA
  Functional refs                              
    [ 0] J. W. Furness, A. D. Kaplan, J. Ning, J. P. Perdew, and J. Sun.,  J. Phys. Chem. Lett. 11, 8208-8215 (2020), doi: 10.1021/acs.jpclett.0c02405
    [ 1] J. W. Furness, A. D. Kaplan, J. Ning, J. P. Perdew, and J. Sun.,  J. Phys. Chem. Lett. 11, 9248-9248 (2020), doi: 10.1021/acs.jpclett.0c03077
  Functional external parameters        .... 1
    Parameter  0 _eta       =  1.000000e-03 : Regularization parameter
 Gradients option       PostSCFGGA      .... off
   NL short-range parameter             .... 12.300000
 RI-approximation to the Coulomb term is turned on
   Number of AuxJ basis functions       .... 715


General Settings:
 Integral files         IntName         .... cs_rporg_077_ox_solv_03
 Hartree-Fock type      HFTyp           .... UHF
 Total Charge           Charge          ....    1
 Multiplicity           Mult            ....    2
 Number of Electrons    NEL             ....   83
 Basis Dimension        Dim             ....  874
 Nuclear Repulsion      ENuc            ....    663.6871755670 Eh

Convergence Acceleration:
 AO-DIIS                CNVDIIS         .... on
   Start iteration      DIISMaxIt       ....     0
   Startup error        DIISStart       ....  0.200000
   # of expansion vecs  DIISMaxEq       ....     5
   Bias factor          DIISBfac        ....   1.050
   Max. coefficient     DIISMaxC        ....  10.000
 MO-DIIS                CNVKDIIS        .... off
 Trust-Rad. Augm. Hess. CNVTRAH         .... auto
   Auto Start mean grad. ratio tolernc. ....  1.125000
   Auto Start start iteration           ....    50
   Auto Start num. interpolation iter.  ....    10
   Max. Number of Micro iterations      ....    24
   Max. Number of Macro iterations      .... Maxiter - #DIIS iter
   Number of Davidson start vectors     ....     2
   Converg. threshold    (grad. norm)   ....   1.000e-05
   Grad. Scal. Fac. for Micro threshold ....   0.100
   Minimum threshold for Micro iter.    ....   1.000e-02
   NR start threshold (gradient norm)   ....   1.000e-04
   Initial trust radius                 ....   0.400
   Minimum AH scaling param. (alpha)    ....   1.000
   Maximum AH scaling param. (alpha)    .... 1000.000
   Quad. conv. algorithm                .... NR
   White noise on init. David. guess    .... on
   Maximum white noise                  ....   0.010
   Pseudo random numbers                .... off
   Inactive MOs                         .... canonical
   Orbital update algorithm             .... Taylor
   Preconditioner                       .... Diag
   Full preconditioner red. dimension   ....   250
 SOSCF                  CNVSOSCF        .... on
   Start iteration      SOSCFMaxIt      ....   150
   Startup grad/error   SOSCFStart      ....  0.001000
   Hessian update       SOSCFHessUp     .... L-BFGS
 Level Shifting         CNVShift        .... on
   Level shift para.    LevelShift      ....    0.2500
   Turn off err/grad.   ShiftErr        ....    0.0000
 Zerner damping         CNVZerner       .... off
 Static damping         CNVDamp         .... on
   Fraction old density DampFac         ....    0.8500
   Max. Damping (<1)    DampMax         ....    0.9800
   Min. Damping (>=0)   DampMin         ....    0.0000
   Turn off err/grad.   DampErr         ....    0.0300

SCF Procedure:
 Maximum # iterations   MaxIter         ....  1500
 SCF integral mode      SCFMode         .... Direct
   Integral package                     .... SHARK and LIBINT hybrid scheme
 Reset frequency        DirectResetFreq ....    20
 Integral Threshold     Thresh          ....  2.500e-11 Eh
 Primitive CutOff       TCut            ....  2.500e-12 Eh

Convergence Tolerance:
 Convergence Check Mode ConvCheckMode   .... Total+1el-Energy
 Convergence forced     ConvForced      .... 0
 Energy Change          TolE            ....  1.000e-08 Eh
 1-El. energy change                    ....  1.000e-05 Eh
 Orbital Gradient       TolG            ....  1.000e-05
 Orbital Rotation angle TolX            ....  1.000e-05
 DIIS Error             TolErr          ....  5.000e-07

------------------------------
INITIAL GUESS: MODEL POTENTIAL
------------------------------
Loading Hartree-Fock densities                     ... done
Calculating cut-offs                               ... done
Initializing the effective Hamiltonian             ... done
Setting up the integral package (SHARK)            ... done
Starting the Coulomb interaction                   ... done (   1.1 sec)
Making the grid                                    ... done (   0.6 sec)
Mapping shells                                     ... done
Starting the XC term evaluation                    ... done (   1.9 sec)
  promolecular density results
     # of electrons  =     83.989682187
     EX              =    -63.886482025
     EC              =     -2.804847678
     EX+EC           =    -66.691329702
Transforming the Hamiltonian                       ... done (   0.1 sec)
Diagonalizing the Hamiltonian                      ... done (   0.2 sec)
Back transforming the eigenvectors                 ... done (   0.1 sec)
Now organizing SCF variables                       ... done
                      ------------------
                      INITIAL GUESS DONE (   4.4 sec)
                      ------------------
             **** ENERGY FILE WAS UPDATED (cs_rporg_077_ox_solv_03.en.tmp) ****
Finished Guess after   5.6 sec
Maximum memory used throughout the entire GUESS-calculation: 97.9 MB


           ************************************************************
           *        Program running with 4 parallel MPI-processes     *
           *              working on a common directory               *
           ************************************************************

-------------------------------------------------------------------------------------------
                                      ORCA LEAN-SCF
                              memory conserving SCF solver
-------------------------------------------------------------------------------------------

--------------------
CPCM SOLVATION MODEL
--------------------
CPCM parameters:
  Epsilon                                         ...      35.6880
  Refrac                                          ...       1.3442
  Rsolv                                           ...       2.1900
  Surface type                                    ...    GEPOL SES
  Discretization scheme                           ... Constant num. charges
  Epsilon function type                           ...         CPCM
Solvent:                                          ... ACETONITRILE
SMD-CDS solvent descriptors:
  Soln                                            ...       1.3442
  Soln25                                          ...       1.3416
  Sola                                            ...       0.0700
  Solb                                            ...       0.3200
  Solg                                            ...      41.2500
  Solc                                            ...       0.0000
  Solh                                            ...       0.0000
Radii:
  Scheme                                          ... Element-dependent radii
  Radius for C  used is    3.4960 Bohr (=   1.8500 Ang.)
  Radius for N  used is    3.5716 Bohr (=   1.8900 Ang.)
  Radius for H  used is    2.2677 Bohr (=   1.2000 Ang.)
Calculating surface                               ...        done! (  0.1s)
Cavity surface points                             ...          929
Cavity Volume                                     ...    1217.6386
Cavity Surface-area                               ...     663.5937
Calculating surface distance matrix               ...        done! (  0.0s)
Performing Cholesky decomposition & store         ...        done! (  0.1s)
Overall time for CPCM initialization              ...                 0.2s

----------------------------------------D-I-I-S--------------------------------------------
Iteration    Energy (Eh)           Delta-E    RMSDP     MaxDP     DIISErr   Damp  Time(sec)
-------------------------------------------------------------------------------------------
               ***  Starting incremental Fock matrix formation  ***
    1    -461.5881963744050154     0.00e+00  3.13e-04  2.64e-02  7.81e-02  0.850  36.9
Warning: op=1 Small HOMO/LUMO gap (   0.036) - skipping pre-diagonalization
         Will do a full diagonalization
    2    -461.6440531103030480    -5.59e-02  3.04e-04  2.91e-02  5.86e-02  0.850  32.1
                               ***Turning on AO-DIIS***
    3    -461.6806623289664913    -3.66e-02  2.23e-04  1.75e-02  3.95e-02  0.850  29.4
    4    -461.7041929722865916    -2.35e-02  1.79e-04  1.27e-02  3.05e-02  0.850  29.3
    5    -461.7211476067475360    -1.70e-02  1.48e-04  9.85e-03  2.51e-02  0.850  28.1
    6    -461.7344961302746924    -1.33e-02  8.30e-04  5.57e-02  2.12e-02  0.000  25.6
    7    -461.8016786887687886    -6.72e-02  5.34e-05  8.61e-03  3.48e-03  0.000  27.9
    8    -461.8018929441545879    -2.14e-04  1.78e-05  1.65e-03  1.39e-03  0.000  21.8
    9    -461.8019772641014242    -8.43e-05  1.71e-05  2.59e-03  1.22e-03  0.000  19.4
                              *** Initializing SOSCF ***
---------------------------------------S-O-S-C-F--------------------------------------
Iteration    Energy (Eh)           Delta-E    RMSDP     MaxDP     MaxGrad    Time(sec)
--------------------------------------------------------------------------------------
   10    -461.8020244250496944    -4.72e-05  9.90e-06  1.10e-03  7.62e-04    19.5
               *** Restarting incremental Fock matrix formation ***
   11    -461.8020476740132381    -2.32e-05  1.62e-05  3.23e-03  7.57e-04    26.9
   12    -461.8020614033791844    -1.37e-05  2.07e-05  4.20e-03  4.55e-04    17.4
   13    -461.8020591491076630     2.25e-06  1.23e-05  2.67e-03  8.48e-04    16.7
   14    -461.8020677311246800    -8.58e-06  5.26e-06  1.33e-03  6.88e-05    15.8
   15    -461.8020677854219684    -5.43e-08  2.86e-06  5.07e-04  6.14e-05    15.3
   16    -461.8020681250959569    -3.40e-07  4.52e-06  5.96e-04  1.95e-05    15.0
   17    -461.8020681497209807    -2.46e-08  6.37e-06  1.36e-03  2.23e-05    14.4
   18    -461.8020681700886598    -2.04e-08  5.77e-06  1.31e-03  8.27e-06    13.5
   19    -461.8020681701952981    -1.07e-10  4.61e-06  8.12e-04  6.14e-06    12.5
                 **** Energy Check signals convergence ****

               *****************************************************
               *                     SUCCESS                       *
               *           SCF CONVERGED AFTER  19 CYCLES          *
               *****************************************************


SMD CDS free energy correction energy :                -3.63658     Kcal/mol
Total Energy after SMD CDS correction =              -461.807863424 Eh
             **** ENERGY FILE WAS UPDATED (cs_rporg_077_ox_solv_03.en.tmp) ****

----------------
TOTAL SCF ENERGY
----------------

Total Energy       :       -461.80786342381055 Eh          -12566.43083 eV

Components:
Nuclear Repulsion  :        663.68717556695970 Eh           18059.84619 eV
Electronic Energy  :      -1125.40418840675488 Eh          -30623.80485 eV
One Electron Energy:      -1924.89530458773629 Eh          -52379.06414 eV
Two Electron Energy:        799.49111618098141 Eh           21755.25929 eV
CPCM Dielectric    :         -0.08505533040009 Eh              -2.31447 eV
SMD CDS (Gcds)     :         -0.00579525361526 Eh              -0.15770 eV

Virial components:
Potential Energy   :       -920.76696573709205 Eh          -25055.34293 eV
Kinetic Energy     :        458.95910231328151 Eh           12488.91210 eV
Virial Ratio       :          2.00620700427592

DFT components:
N(Alpha)           :       42.000063383866 electrons
N(Beta)            :       41.000065339179 electrons
N(Total)           :       83.000128723045 electrons
E(X)               :      -65.549644407822 Eh       
E(C)               :       -2.651214314224 Eh       
E(XC)              :      -68.200858722046 Eh       

CPCM Solvation Model Properties:
Surface-charge          :         -1.04454753121201
Corrected charge        :         -1.00000000000000
Outlying charge corr.   :          0.00013759217484 Eh               0.00374 eV
Free-energy (cav+disp)  :         -0.00579525361526 Eh              -0.15770 eV

---------------
SCF CONVERGENCE
---------------

  Last Energy change         ...    1.0664e-10  Tolerance :   1.0000e-08
  Last MAX-Density change    ...    8.1245e-04  Tolerance :   1.0000e-07
  Last RMS-Density change    ...    4.6104e-06  Tolerance :   5.0000e-09
  Last DIIS Error            ...    7.6169e-04  Tolerance :   5.0000e-07
  Last Orbital Gradient      ...    6.1351e-06  Tolerance :   1.0000e-05
  Last Orbital Rotation      ...    7.0987e-06  Tolerance :   1.0000e-05


----------------------
UHF SPIN CONTAMINATION
----------------------

Warning: in a DFT calculation there is little theoretical justification to 
         calculate <S**2> as in Hartree-Fock theory. We will do it anyways
         but you should keep in mind that the values have only limited relevance

Expectation value of <S**2>     :     0.772699
Ideal value S*(S+1) for S=0.5   :     0.750000
Deviation                       :     0.022699

----------------
ORBITAL ENERGIES
----------------
                 SPIN UP ORBITALS
  NO   OCC          E(Eh)            E(eV) 
   0   1.0000     -14.275432      -388.4542 
   1   1.0000     -14.228034      -387.1645 
   2   1.0000     -10.155837      -276.3544 
   3   1.0000     -10.096846      -274.7491 
   4   1.0000     -10.093766      -274.6653 
   5   1.0000     -10.089241      -274.5422 
   6   1.0000     -10.059934      -273.7447 
   7   1.0000     -10.053622      -273.5730 
   8   1.0000     -10.047551      -273.4077 
   9   1.0000     -10.044893      -273.3354 
  10   1.0000     -10.036781      -273.1147 
  11   1.0000      -1.010946       -27.5092 
  12   1.0000      -0.915861       -24.9218 
  13   1.0000      -0.806728       -21.9522 
  14   1.0000      -0.773420       -21.0458 
  15   1.0000      -0.749403       -20.3923 
  16   1.0000      -0.685368       -18.6498 
  17   1.0000      -0.671212       -18.2646 
  18   1.0000      -0.656930       -17.8760 
  19   1.0000      -0.588221       -16.0063 
  20   1.0000      -0.556115       -15.1327 
  21   1.0000      -0.513749       -13.9798 
  22   1.0000      -0.511042       -13.9062 
  23   1.0000      -0.492444       -13.4001 
  24   1.0000      -0.476644       -12.9701 
  25   1.0000      -0.439593       -11.9619 
  26   1.0000      -0.436160       -11.8685 
  27   1.0000      -0.428655       -11.6643 
  28   1.0000      -0.416429       -11.3316 
  29   1.0000      -0.412284       -11.2188 
  30   1.0000      -0.388030       -10.5588 
  31   1.0000      -0.386369       -10.5136 
  32   1.0000      -0.383643       -10.4395 
  33   1.0000      -0.359202        -9.7744 
  34   1.0000      -0.351808        -9.5732 
  35   1.0000      -0.332171        -9.0388 
  36   1.0000      -0.318735        -8.6732 
  37   1.0000      -0.304553        -8.2873 
  38   1.0000      -0.302122        -8.2212 
  39   1.0000      -0.296686        -8.0732 
  40   1.0000      -0.279113        -7.5951 
  41   1.0000      -0.261174        -7.1069 
  42   0.0000      -0.062265        -1.6943 
  43   0.0000       0.004461         0.1214 
  44   0.0000       0.017752         0.4831 
  45   0.0000       0.018207         0.4954 
  46   0.0000       0.019722         0.5367 
  47   0.0000       0.034984         0.9520 
  48   0.0000       0.037158         1.0111 
  49   0.0000       0.038230         1.0403 
  50   0.0000       0.041143         1.1196 
  51   0.0000       0.045064         1.2263 
  52   0.0000       0.056835         1.5466 

                 SPIN DOWN ORBITALS
  NO   OCC          E(Eh)            E(eV) 
   0   1.0000     -14.266340      -388.2069 
   1   1.0000     -14.211786      -386.7224 
   2   1.0000     -10.158460      -276.4258 
   3   1.0000     -10.097049      -274.7547 
   4   1.0000     -10.093942      -274.6701 
   5   1.0000     -10.089306      -274.5440 
   6   1.0000     -10.059621      -273.7362 
   7   1.0000     -10.053508      -273.5699 
   8   1.0000     -10.047091      -273.3952 
   9   1.0000     -10.044982      -273.3379 
  10   1.0000     -10.036784      -273.1148 
  11   1.0000      -0.997273       -27.1372 
  12   1.0000      -0.890317       -24.2268 
  13   1.0000      -0.806498       -21.9459 
  14   1.0000      -0.772740       -21.0273 
  15   1.0000      -0.746286       -20.3075 
  16   1.0000      -0.682913       -18.5830 
  17   1.0000      -0.666291       -18.1307 
  18   1.0000      -0.654298       -17.8043 
  19   1.0000      -0.586254       -15.9528 
  20   1.0000      -0.553604       -15.0643 
  21   1.0000      -0.509462       -13.8632 
  22   1.0000      -0.506651       -13.7867 
  23   1.0000      -0.484979       -13.1970 
  24   1.0000      -0.467405       -12.7187 
  25   1.0000      -0.435904       -11.8615 
  26   1.0000      -0.429632       -11.6909 
  27   1.0000      -0.424912       -11.5624 
  28   1.0000      -0.410812       -11.1788 
  29   1.0000      -0.407453       -11.0874 
  30   1.0000      -0.385839       -10.4992 
  31   1.0000      -0.383725       -10.4417 
  32   1.0000      -0.375052       -10.2057 
  33   1.0000      -0.353654        -9.6234 
  34   1.0000      -0.347807        -9.4643 
  35   1.0000      -0.329847        -8.9756 
  36   1.0000      -0.316849        -8.6219 
  37   1.0000      -0.304227        -8.2784 
  38   1.0000      -0.301419        -8.2020 
  39   1.0000      -0.291774        -7.9396 
  40   1.0000      -0.261296        -7.1102 
  41   0.0000      -0.189854        -5.1662 
  42   0.0000      -0.046521        -1.2659 
  43   0.0000       0.005524         0.1503 
  44   0.0000       0.018223         0.4959 
  45   0.0000       0.018959         0.5159 
  46   0.0000       0.020487         0.5575 
  47   0.0000       0.035984         0.9792 
  48   0.0000       0.037800         1.0286 
  49   0.0000       0.039025         1.0619 
  50   0.0000       0.041551         1.1307 
  51   0.0000       0.045548         1.2394 
*Only the first 10 virtual orbitals were printed.

                    ********************************
                    * MULLIKEN POPULATION ANALYSIS *
                    ********************************

--------------------------------------------
MULLIKEN ATOMIC CHARGES AND SPIN POPULATIONS
--------------------------------------------
   0 C :   -0.213287   -0.003052
   1 N :   -0.615292    0.683845
   2 C :    0.473916   -0.192770
   3 N :    0.432284    0.341765
   4 C :   -0.290301   -0.026690
   5 C :   -0.137838    0.020441
   6 C :   -0.174264    0.000265
   7 C :   -0.284850   -0.011741
   8 C :    0.072670    0.038326
   9 H :    0.106460   -0.001836
  10 H :    0.059386   -0.001143
  11 H :    0.066079    0.003945
  12 H :    0.130871   -0.001764
  13 H :    0.193687   -0.000592
  14 H :    0.044968    0.000411
  15 H :    0.089938    0.004955
  16 H :    0.109916    0.004092
  17 H :    0.165030    0.028980
  18 H :    0.169598   -0.003315
  19 C :   -0.325376   -0.036672
  20 C :   -0.161863    0.008885
  21 H :    0.228724    0.005397
  22 H :    0.041185   -0.001681
  23 H :    0.193965    0.017904
  24 H :    0.235514    0.021719
  25 H :    0.194286    0.038839
  26 H :    0.194596    0.061486
Sum of atomic charges         :    1.0000000
Sum of atomic spin populations:    1.0000000

-----------------------------------------------------
MULLIKEN REDUCED ORBITAL CHARGES AND SPIN POPULATIONS
-----------------------------------------------------
CHARGE
  0 C s       :     3.327985  s :     3.327985
      pz      :     0.977714  p :     2.730009
      px      :     0.852140
      py      :     0.900155
      dz2     :     0.027067  d :     0.139563
      dxz     :     0.044181
      dyz     :     0.002120
      dx2y2   :     0.024631
      dxy     :     0.041564
      f0      :     0.006671  f :     0.015730
      f+1     :    -0.001505
      f-1     :     0.000537
      f+2     :     0.002429
      f-2     :     0.003047
      f+3     :     0.005261
      f-3     :    -0.000709

  1 N s       :     4.095212  s :     4.095212
      pz      :     1.134864  p :     3.352387
      px      :     0.863388
      py      :     1.354135
      dz2     :     0.024372  d :     0.162768
      dxz     :     0.032746
      dyz     :     0.011135
      dx2y2   :     0.054941
      dxy     :     0.039574
      f0      :     0.000549  f :     0.004925
      f+1     :    -0.000747
      f-1     :     0.001642
      f+2     :    -0.000328
      f-2     :     0.001555
      f+3     :     0.002345
      f-3     :    -0.000091

  2 C s       :     3.531783  s :     3.531783
      pz      :     0.744920  p :     1.979772
      px      :     0.750032
      py      :     0.484820
      dz2     :     0.012187  d :    -0.013407
      dxz     :    -0.009592
      dyz     :     0.045461
      dx2y2   :    -0.104204
      dxy     :     0.042742
      f0      :     0.003058  f :     0.027936
      f+1     :    -0.001008
      f-1     :     0.003137
      f+2     :     0.006458
      f-2     :    -0.004300
      f+3     :     0.016872
      f-3     :     0.003719

  3 N s       :     3.878539  s :     3.878539
      pz      :     1.284045  p :     2.666714
      px      :     0.616101
      py      :     0.766567
      dz2     :     0.013028  d :    -0.006260
      dxz     :     0.018346
      dyz     :     0.041000
      dx2y2   :    -0.016081
      dxy     :    -0.062553
      f0      :     0.000136  f :     0.028725
      f+1     :     0.001278
      f-1     :     0.000800
      f+2     :     0.003976
      f-2     :     0.003417
      f+3     :     0.020858
      f-3     :    -0.001742

  4 C s       :     3.439716  s :     3.439716
      pz      :     0.983880  p :     2.730973
      px      :     0.883624
      py      :     0.863469
      dz2     :     0.035115  d :     0.094317
      dxz     :     0.028384
      dyz     :     0.005081
      dx2y2   :     0.013064
      dxy     :     0.012672
      f0      :     0.004426  f :     0.025295
      f+1     :    -0.003364
      f-1     :    -0.000034
      f+2     :     0.001339
      f-2     :     0.004981
      f+3     :     0.012552
      f-3     :     0.005395

  5 C s       :     3.325341  s :     3.325341
      pz      :     0.947893  p :     2.732129
      px      :     0.841638
      py      :     0.942599
      dz2     :     0.004858  d :     0.079952
      dxz     :     0.017247
      dyz     :     0.010814
      dx2y2   :     0.016424
      dxy     :     0.030608
      f0      :    -0.000653  f :     0.000416
      f+1     :    -0.000879
      f-1     :    -0.001078
      f+2     :     0.000701
      f-2     :    -0.002420
      f+3     :     0.002462
      f-3     :     0.002283

  6 C s       :     3.290485  s :     3.290485
      pz      :     1.090532  p :     2.832893
      px      :     0.884986
      py      :     0.857375
      dz2     :     0.024791  d :     0.049327
      dxz     :     0.001802
      dyz     :     0.007456
      dx2y2   :    -0.008425
      dxy     :     0.023704
      f0      :    -0.001225  f :     0.001559
      f+1     :     0.004311
      f-1     :    -0.001634
      f+2     :    -0.000984
      f-2     :     0.000968
      f+3     :    -0.000211
      f-3     :     0.000334

  7 C s       :     3.312686  s :     3.312686
      pz      :     0.995427  p :     2.817229
      px      :     0.895111
      py      :     0.926690
      dz2     :     0.046016  d :     0.155321
      dxz     :     0.030177
      dyz     :     0.004217
      dx2y2   :     0.044132
      dxy     :     0.030779
      f0      :    -0.001511  f :    -0.000385
      f+1     :    -0.000789
      f-1     :     0.000059
      f+2     :    -0.000799
      f-2     :    -0.001065
      f+3     :     0.002061
      f-3     :     0.001659

  8 C s       :     3.184674  s :     3.184674
      pz      :     0.967399  p :     2.691665
      px      :     0.877423
      py      :     0.846843
      dz2     :     0.014012  d :     0.053414
      dxz     :     0.010445
      dyz     :     0.005986
      dx2y2   :     0.012467
      dxy     :     0.010505
      f0      :    -0.000180  f :    -0.002422
      f+1     :    -0.002714
      f-1     :     0.001709
      f+2     :    -0.001946
      f-2     :     0.000728
      f+3     :    -0.008441
      f-3     :     0.008422

  9 H s       :     0.826874  s :     0.826874
      pz      :     0.035984  p :     0.055533
      px      :     0.015932
      py      :     0.003617
      dz2     :     0.004157  d :     0.011133
      dxz     :     0.005460
      dyz     :     0.000918
      dx2y2   :     0.000682
      dxy     :    -0.000084

 10 H s       :     0.911857  s :     0.911857
      pz      :     0.012135  p :     0.016944
      px      :     0.005352
      py      :    -0.000543
      dz2     :     0.000481  d :     0.011813
      dxz     :     0.001621
      dyz     :     0.004191
      dx2y2   :     0.001310
      dxy     :     0.004210

 11 H s       :     0.862376  s :     0.862376
      pz      :     0.032114  p :     0.058893
      px      :     0.015857
      py      :     0.010923
      dz2     :     0.002571  d :     0.012652
      dxz     :     0.003022
      dyz     :     0.004585
      dx2y2   :     0.000758
      dxy     :     0.001717

 12 H s       :     0.827866  s :     0.827866
      pz      :     0.010402  p :     0.027940
      px      :     0.010313
      py      :     0.007225
      dz2     :     0.002242  d :     0.013323
      dxz     :     0.002042
      dyz     :     0.000960
      dx2y2   :     0.005738
      dxy     :     0.002341

 13 H s       :     0.768084  s :     0.768084
      pz      :     0.010733  p :     0.025575
      px      :     0.003741
      py      :     0.011102
      dz2     :     0.003727  d :     0.012653
      dxz     :     0.000324
      dyz     :     0.000853
      dx2y2   :     0.001365
      dxy     :     0.006385

 14 H s       :     0.885486  s :     0.885486
      pz      :     0.024156  p :     0.060281
      px      :     0.013653
      py      :     0.022472
      dz2     :    -0.000235  d :     0.009265
      dxz     :     0.004951
      dyz     :     0.000608
      dx2y2   :     0.000862
      dxy     :     0.003078

 15 H s       :     0.844061  s :     0.844061
      pz      :     0.026834  p :     0.055640
      px      :     0.023510
      py      :     0.005297
      dz2     :     0.003867  d :     0.010361
      dxz     :     0.002110
      dyz     :     0.003901
      dx2y2   :    -0.000721
      dxy     :     0.001203

 16 H s       :     0.841428  s :     0.841428
      pz      :     0.012438  p :     0.036032
      px      :     0.013032
      py      :     0.010562
      dz2     :     0.001044  d :     0.012624
      dxz     :     0.003016
      dyz     :     0.002018
      dx2y2   :     0.005558
      dxy     :     0.000987

 17 H s       :     0.791771  s :     0.791771
      pz      :     0.016461  p :     0.033530
      px      :     0.017323
      py      :    -0.000254
      dz2     :     0.002955  d :     0.009669
      dxz     :     0.005386
      dyz     :     0.002011
      dx2y2   :    -0.000383
      dxy     :    -0.000300

 18 H s       :     0.792660  s :     0.792660
      pz      :     0.010415  p :     0.026899
      px      :     0.011928
      py      :     0.004555
      dz2     :     0.000570  d :     0.010844
      dxz     :     0.001627
      dyz     :     0.003048
      dx2y2   :     0.002098
      dxy     :     0.003501

 19 C s       :     3.457693  s :     3.457693
      pz      :     1.029037  p :     2.737051
      px      :     0.773304
      py      :     0.934710
      dz2     :     0.022203  d :     0.111350
      dxz     :     0.002408
      dyz     :     0.028728
      dx2y2   :     0.030101
      dxy     :     0.027911
      f0      :     0.003821  f :     0.019282
      f+1     :     0.000140
      f-1     :     0.001866
      f+2     :     0.005593
      f-2     :     0.001726
      f+3     :     0.006801
      f-3     :    -0.000665

 20 C s       :     3.317221  s :     3.317221
      pz      :     1.011060  p :     2.793844
      px      :     0.879783
      py      :     0.903001
      dz2     :    -0.002314  d :     0.045414
      dxz     :     0.011358
      dyz     :     0.010851
      dx2y2   :     0.014736
      dxy     :     0.010782
      f0      :     0.000875  f :     0.005385
      f+1     :     0.000876
      f-1     :     0.002076
      f+2     :     0.000314
      f-2     :     0.000209
      f+3     :    -0.002741
      f-3     :     0.003775

 21 H s       :     0.726694  s :     0.726694
      pz      :     0.012542  p :     0.033519
      px      :     0.010014
      py      :     0.010963
      dz2     :     0.002429  d :     0.011064
      dxz     :     0.000818
      dyz     :     0.000610
      dx2y2   :     0.004529
      dxy     :     0.002677

 22 H s       :     0.882756  s :     0.882756
      pz      :     0.019747  p :     0.064250
      px      :     0.020592
      py      :     0.023912
      dz2     :     0.001101  d :     0.011808
      dxz     :     0.004949
      dyz     :     0.004878
      dx2y2   :    -0.000099
      dxy     :     0.000979

 23 H s       :     0.749352  s :     0.749352
      pz      :     0.011521  p :     0.045968
      px      :     0.006727
      py      :     0.027721
      dz2     :     0.003820  d :     0.010714
      dxz     :     0.000996
      dyz     :     0.000657
      dx2y2   :     0.000634
      dxy     :     0.004606

 24 H s       :     0.717141  s :     0.717141
      pz      :     0.008556  p :     0.036789
      px      :     0.010193
      py      :     0.018039
      dz2     :     0.001180  d :     0.010556
      dxz     :     0.002493
      dyz     :     0.005870
      dx2y2   :    -0.000307
      dxy     :     0.001321

 25 H s       :     0.760667  s :     0.760667
      pz      :     0.014039  p :     0.035043
      px      :     0.011578
      py      :     0.009426
      dz2     :     0.001215  d :     0.010005
      dxz     :     0.003694
      dyz     :     0.005271
      dx2y2   :     0.000125
      dxy     :    -0.000301

 26 H s       :     0.757364  s :     0.757364
      pz      :     0.008111  p :     0.039300
      px      :     0.014001
      py      :     0.017188
      dz2     :     0.002202  d :     0.008740
      dxz     :     0.000760
      dyz     :     0.001472
      dx2y2   :     0.003266
      dxy     :     0.001040


SPIN
  0 C s       :    -0.044005  s :    -0.044005
      pz      :     0.005784  p :     0.008841
      px      :    -0.012798
      py      :     0.015855
      dz2     :     0.004468  d :     0.028834
      dxz     :     0.011954
      dyz     :    -0.000618
      dx2y2   :     0.003055
      dxy     :     0.009974
      f0      :     0.000533  f :     0.003279
      f+1     :    -0.000138
      f-1     :     0.000069
      f+2     :    -0.000032
      f-2     :     0.001289
      f+3     :     0.001346
      f-3     :     0.000213

  1 N s       :     0.058076  s :     0.058076
      pz      :     0.325584  p :     0.621456
      px      :     0.017922
      py      :     0.277950
      dz2     :     0.002579  d :     0.005084
      dxz     :     0.002315
      dyz     :    -0.000380
      dx2y2   :    -0.001620
      dxy     :     0.002190
      f0      :     0.000039  f :    -0.000770
      f+1     :    -0.000243
      f-1     :    -0.000444
      f+2     :    -0.000050
      f-2     :     0.000052
      f+3     :    -0.000094
      f-3     :    -0.000031

  2 C s       :     0.006600  s :     0.006600
      pz      :    -0.110704  p :    -0.185619
      px      :    -0.050550
      py      :    -0.024365
      dz2     :     0.000446  d :    -0.015930
      dxz     :     0.002727
      dyz     :     0.007934
      dx2y2   :    -0.002392
      dxy     :    -0.024646
      f0      :     0.000735  f :     0.002179
      f+1     :     0.000297
      f-1     :     0.000700
      f+2     :    -0.000388
      f-2     :     0.000579
      f+3     :     0.000509
      f-3     :    -0.000253

  3 N s       :     0.022980  s :     0.022980
      pz      :     0.283175  p :     0.316948
      px      :     0.020509
      py      :     0.013264
      dz2     :    -0.000629  d :     0.002457
      dxz     :     0.001599
      dyz     :    -0.001300
      dx2y2   :     0.001727
      dxy     :     0.001060
      f0      :     0.000022  f :    -0.000620
      f+1     :     0.000023
      f-1     :    -0.000180
      f+2     :     0.000042
      f-2     :     0.000221
      f+3     :    -0.000722
      f-3     :    -0.000025

  4 C s       :    -0.014191  s :    -0.014191
      pz      :    -0.000191  p :    -0.017753
      px      :    -0.009100
      py      :    -0.008463
      dz2     :     0.001278  d :     0.004051
      dxz     :     0.006080
      dyz     :    -0.001898
      dx2y2   :     0.000077
      dxy     :    -0.001486
      f0      :     0.000397  f :     0.001203
      f+1     :     0.000180
      f-1     :     0.000003
      f+2     :    -0.000150
      f-2     :     0.000822
      f+3     :     0.000125
      f-3     :    -0.000175

  5 C s       :     0.001453  s :     0.001453
      pz      :     0.008869  p :     0.016345
      px      :     0.008531
      py      :    -0.001055
      dz2     :    -0.001035  d :     0.002325
      dxz     :     0.001562
      dyz     :     0.000268
      dx2y2   :     0.000433
      dxy     :     0.001096
      f0      :     0.000008  f :     0.000319
      f+1     :     0.000274
      f-1     :    -0.000060
      f+2     :     0.000054
      f-2     :    -0.000009
      f+3     :     0.000015
      f-3     :     0.000037

  6 C s       :     0.002131  s :     0.002131
      pz      :    -0.000057  p :    -0.000324
      px      :     0.001126
      py      :    -0.001393
      dz2     :     0.000213  d :    -0.001569
      dxz     :    -0.001168
      dyz     :    -0.000142
      dx2y2   :    -0.000755
      dxy     :     0.000282
      f0      :     0.000015  f :     0.000027
      f+1     :    -0.000059
      f-1     :    -0.000000
      f+2     :     0.000023
      f-2     :     0.000031
      f+3     :     0.000059
      f-3     :    -0.000041

  7 C s       :    -0.004036  s :    -0.004036
      pz      :    -0.001878  p :    -0.008411
      px      :    -0.004688
      py      :    -0.001845
      dz2     :     0.001298  d :     0.000981
      dxz     :    -0.000189
      dyz     :     0.001068
      dx2y2   :    -0.001807
      dxy     :     0.000611
      f0      :     0.000003  f :    -0.000275
      f+1     :    -0.000017
      f-1     :     0.000038
      f+2     :    -0.000012
      f-2     :    -0.000023
      f+3     :    -0.000084
      f-3     :    -0.000180

  8 C s       :     0.011368  s :     0.011368
      pz      :     0.008855  p :     0.022051
      px      :     0.009207
      py      :     0.003989
      dz2     :     0.004427  d :     0.004686
      dxz     :     0.000348
      dyz     :     0.001319
      dx2y2   :    -0.002792
      dxy     :     0.001383
      f0      :     0.000248  f :     0.000222
      f+1     :    -0.000321
      f-1     :     0.000075
      f+2     :     0.000003
      f-2     :    -0.000288
      f+3     :    -0.000005
      f-3     :     0.000508

  9 H s       :    -0.002482  s :    -0.002482
      pz      :     0.001147  p :     0.000645
      px      :     0.000528
      py      :    -0.001029
      dz2     :    -0.000003  d :     0.000001
      dxz     :    -0.000064
      dyz     :     0.000043
      dx2y2   :     0.000029
      dxy     :    -0.000004

 10 H s       :    -0.000677  s :    -0.000677
      pz      :     0.000640  p :    -0.000233
      px      :    -0.000433
      py      :    -0.000439
      dz2     :    -0.000079  d :    -0.000233
      dxz     :    -0.000152
      dyz     :     0.000038
      dx2y2   :     0.000078
      dxy     :    -0.000118

 11 H s       :     0.003990  s :     0.003990
      pz      :     0.000404  p :    -0.000153
      px      :    -0.000346
      py      :    -0.000211
      dz2     :     0.000018  d :     0.000108
      dxz     :     0.000011
      dyz     :    -0.000017
      dx2y2   :     0.000064
      dxy     :     0.000031

 12 H s       :    -0.001206  s :    -0.001206
      pz      :    -0.000233  p :    -0.000581
      px      :    -0.000224
      py      :    -0.000124
      dz2     :     0.000000  d :     0.000023
      dxz     :     0.000018
      dyz     :     0.000015
      dx2y2   :    -0.000023
      dxy     :     0.000013

 13 H s       :    -0.000506  s :    -0.000506
      pz      :     0.000044  p :    -0.000106
      px      :    -0.000117
      py      :    -0.000034
      dz2     :     0.000006  d :     0.000021
      dxz     :     0.000004
      dyz     :     0.000005
      dx2y2   :     0.000006
      dxy     :    -0.000000

 14 H s       :     0.000096  s :     0.000096
      pz      :     0.000229  p :     0.000315
      px      :     0.000049
      py      :     0.000038
      dz2     :    -0.000002  d :    -0.000000
      dxz     :     0.000019
      dyz     :    -0.000000
      dx2y2   :    -0.000009
      dxy     :    -0.000007

 15 H s       :     0.004436  s :     0.004436
      pz      :     0.001075  p :     0.000341
      px      :    -0.000331
      py      :    -0.000403
      dz2     :     0.000212  d :     0.000178
      dxz     :    -0.000057
      dyz     :    -0.000003
      dx2y2   :    -0.000025
      dxy     :     0.000051

 16 H s       :     0.003954  s :     0.003954
      pz      :     0.000384  p :     0.000053
      px      :    -0.000256
      py      :    -0.000075
      dz2     :     0.000033  d :     0.000085
      dxz     :    -0.000002
      dyz     :    -0.000009
      dx2y2   :     0.000034
      dxy     :     0.000029

 17 H s       :     0.026166  s :     0.026166
      pz      :     0.001272  p :     0.002846
      px      :     0.000760
      py      :     0.000814
      dz2     :     0.000049  d :    -0.000032
      dxz     :     0.000027
      dyz     :    -0.000025
      dx2y2   :    -0.000081
      dxy     :    -0.000003

 18 H s       :    -0.001574  s :    -0.001574
      pz      :    -0.000478  p :    -0.001596
      px      :    -0.000651
      py      :    -0.000466
      dz2     :     0.000054  d :    -0.000145
      dxz     :     0.000161
      dyz     :    -0.000176
      dx2y2   :    -0.000048
      dxy     :    -0.000135

 19 C s       :    -0.028611  s :    -0.028611
      pz      :     0.007627  p :    -0.013286
      px      :    -0.012034
      py      :    -0.008879
      dz2     :     0.002546  d :     0.003454
      dxz     :    -0.001610
      dyz     :     0.003611
      dx2y2   :    -0.000762
      dxy     :    -0.000332
      f0      :     0.000486  f :     0.001772
      f+1     :     0.000474
      f-1     :     0.000128
      f+2     :     0.000486
      f-2     :    -0.000147
      f+3     :     0.000133
      f-3     :     0.000212

 20 C s       :     0.012618  s :     0.012618
      pz      :    -0.000704  p :     0.003955
      px      :     0.001882
      py      :     0.002778
      dz2     :    -0.007202  d :    -0.007975
      dxz     :    -0.000595
      dyz     :    -0.000513
      dx2y2   :     0.002338
      dxy     :    -0.002003
      f0      :     0.000427  f :     0.000288
      f+1     :     0.000117
      f-1     :     0.000354
      f+2     :    -0.000031
      f-2     :    -0.000115
      f+3     :    -0.000362
      f-3     :    -0.000103

 21 H s       :     0.005767  s :     0.005767
      pz      :     0.000072  p :    -0.000183
      px      :    -0.000569
      py      :     0.000314
      dz2     :    -0.000020  d :    -0.000187
      dxz     :     0.000044
      dyz     :     0.000001
      dx2y2   :    -0.000089
      dxy     :    -0.000122

 22 H s       :    -0.000788  s :    -0.000788
      pz      :    -0.001285  p :    -0.001015
      px      :    -0.000196
      py      :     0.000467
      dz2     :    -0.000004  d :     0.000122
      dxz     :     0.000080
      dyz     :     0.000062
      dx2y2   :     0.000021
      dxy     :    -0.000036

 23 H s       :     0.015727  s :     0.015727
      pz      :     0.000916  p :     0.002170
      px      :     0.000341
      py      :     0.000913
      dz2     :     0.000259  d :     0.000006
      dxz     :    -0.000053
      dyz     :    -0.000093
      dx2y2   :    -0.000062
      dxy     :    -0.000045

 24 H s       :     0.019484  s :     0.019484
      pz      :     0.001020  p :     0.002141
      px      :     0.000703
      py      :     0.000418
      dz2     :     0.000005  d :     0.000095
      dxz     :    -0.000069
      dyz     :     0.000147
      dx2y2   :     0.000020
      dxy     :    -0.000008

 25 H s       :     0.036633  s :     0.036633
      pz      :     0.001575  p :     0.001993
      px      :     0.000931
      py      :    -0.000513
      dz2     :    -0.000020  d :     0.000213
      dxz     :     0.000243
      dyz     :     0.000135
      dx2y2   :    -0.000091
      dxy     :    -0.000054

 26 H s       :     0.054856  s :     0.054856
      pz      :     0.002384  p :     0.005742
      px      :     0.002758
      py      :     0.000600
      dz2     :     0.000301  d :     0.000888
      dxz     :    -0.000060
      dyz     :     0.000312
      dx2y2   :     0.000406
      dxy     :    -0.000070



                     *******************************
                     * LOEWDIN POPULATION ANALYSIS *
                     *******************************

-------------------------------------------
LOEWDIN ATOMIC CHARGES AND SPIN POPULATIONS
-------------------------------------------
   0 C :    0.173371    0.111252
   1 N :    0.520196    0.430834
   2 C :   -0.304881    0.070832
   3 N :    0.351458    0.204960
   4 C :    0.276658    0.035883
   5 C :    0.323199    0.010931
   6 C :    0.291723    0.001529
   7 C :    0.304913   -0.001227
   8 C :    0.323320   -0.002089
   9 H :   -0.116870   -0.001099
  10 H :   -0.132632    0.002921
  11 H :   -0.122601   -0.000246
  12 H :   -0.123969   -0.000237
  13 H :   -0.126432    0.000221
  14 H :   -0.125825    0.000271
  15 H :   -0.115437    0.001510
  16 H :   -0.120811    0.001943
  17 H :   -0.099245    0.012215
  18 H :   -0.124545    0.000727
  19 C :    0.266918    0.036604
  20 C :    0.327677    0.008430
  21 H :   -0.111088    0.001628
  22 H :   -0.115087   -0.000366
  23 H :   -0.106930    0.008434
  24 H :   -0.084348    0.010949
  25 H :   -0.115818    0.024362
  26 H :   -0.112913    0.028828

----------------------------------------------------
LOEWDIN REDUCED ORBITAL CHARGES AND SPIN POPULATIONS
----------------------------------------------------
CHARGE
  0 C s       :     2.436136  s :     2.436136
      pz      :     0.761323  p :     2.199231
      px      :     0.693449
      py      :     0.744459
      dz2     :     0.187889  d :     0.799526
      dxz     :     0.106830
      dyz     :     0.104325
      dx2y2   :     0.152103
      dxy     :     0.248379
      f0      :     0.043615  f :     0.391736
      f+1     :     0.031516
      f-1     :     0.056582
      f+2     :     0.051193
      f-2     :     0.040646
      f+3     :     0.098053
      f-3     :     0.070130

  1 N s       :     2.775752  s :     2.775752
      pz      :     0.880063  p :     2.930494
      px      :     1.009895
      py      :     1.040536
      dz2     :     0.066857  d :     0.554978
      dxz     :     0.149846
      dyz     :     0.045946
      dx2y2   :     0.148762
      dxy     :     0.143567
      f0      :     0.019840  f :     0.218579
[...]
      px      :     0.001039
      py      :     0.000225
      dz2     :     0.000106  d :     0.001945
      dxz     :     0.000098
      dyz     :     0.000116
      dx2y2   :     0.001548
      dxy     :     0.000077

 11 H s       :     0.000146  s :     0.000146
      pz      :    -0.000087  p :    -0.000180
      px      :    -0.000085
      py      :    -0.000008
      dz2     :    -0.000213  d :    -0.000213
      dxz     :     0.000021
      dyz     :     0.000005
      dx2y2   :     0.000047
      dxy     :    -0.000073

 12 H s       :    -0.000017  s :    -0.000017
      pz      :    -0.000027  p :    -0.000159
      px      :    -0.000125
      py      :    -0.000006
      dz2     :    -0.000057  d :    -0.000061
      dxz     :     0.000014
      dyz     :     0.000007
      dx2y2   :    -0.000050
      dxy     :     0.000026

 13 H s       :    -0.000069  s :    -0.000069
      pz      :     0.000010  p :     0.000221
      px      :    -0.000018
      py      :     0.000228
      dz2     :    -0.000001  d :     0.000069
      dxz     :     0.000020
      dyz     :     0.000016
      dx2y2   :    -0.000011
      dxy     :     0.000045

 14 H s       :     0.000059  s :     0.000059
      pz      :     0.000044  p :     0.000162
      px      :     0.000036
      py      :     0.000081
      dz2     :    -0.000002  d :     0.000050
      dxz     :     0.000056
      dyz     :     0.000010
      dx2y2   :    -0.000009
      dxy     :    -0.000005

 15 H s       :     0.000035  s :     0.000035
      pz      :     0.000266  p :     0.000292
      px      :     0.000089
      py      :    -0.000062
      dz2     :     0.000865  d :     0.001183
      dxz     :    -0.000031
      dyz     :     0.000037
      dx2y2   :     0.000256
      dxy     :     0.000056

 16 H s       :     0.000399  s :     0.000399
      pz      :     0.000237  p :     0.000675
      px      :     0.000380
      py      :     0.000057
      dz2     :     0.000171  d :     0.000869
      dxz     :     0.000046
      dyz     :     0.000193
      dx2y2   :     0.000224
      dxy     :     0.000235

 17 H s       :     0.011462  s :     0.011462
      pz      :    -0.000005  p :     0.000587
      px      :     0.000180
      py      :     0.000412
      dz2     :    -0.000156  d :     0.000166
      dxz     :    -0.000254
      dyz     :    -0.000105
      dx2y2   :     0.000580
      dxy     :     0.000102

 18 H s       :     0.000344  s :     0.000344
      pz      :     0.000307  p :    -0.000112
      px      :    -0.000286
      py      :    -0.000134
      dz2     :     0.000129  d :     0.000495
      dxz     :     0.001026
      dyz     :    -0.000229
      dx2y2   :    -0.000188
      dxy     :    -0.000244

 19 C s       :    -0.000925  s :    -0.000925
      pz      :     0.003686  p :    -0.002384
      px      :    -0.003955
      py      :    -0.002116
      dz2     :     0.006182  d :     0.020808
      dxz     :     0.005259
      dyz     :     0.008211
      dx2y2   :     0.000410
      dxy     :     0.000746
      f0      :     0.003243  f :     0.019105
      f+1     :     0.003472
      f-1     :     0.000710
      f+2     :     0.004924
      f-2     :     0.003016
      f+3     :     0.000674
      f-3     :     0.003067

 20 C s       :     0.000371  s :     0.000371
      pz      :    -0.000177  p :     0.002311
      px      :     0.001776
      py      :     0.000713
      dz2     :     0.000935  d :     0.000888
      dxz     :    -0.000366
      dyz     :     0.001568
      dx2y2   :    -0.000226
      dxy     :    -0.001022
      f0      :     0.000846  f :     0.004859
      f+1     :     0.000794
      f-1     :     0.003784
      f+2     :    -0.000081
      f-2     :    -0.000782
      f+3     :     0.000367
      f-3     :    -0.000070

 21 H s       :     0.001108  s :     0.001108
      pz      :     0.000019  p :    -0.000035
      px      :     0.000063
      py      :    -0.000116
      dz2     :    -0.000077  d :     0.000555
      dxz     :     0.000025
      dyz     :     0.000437
      dx2y2   :    -0.000043
      dxy     :     0.000212

 22 H s       :    -0.000584  s :    -0.000584
      pz      :    -0.000034  p :    -0.000040
      px      :     0.000216
      py      :    -0.000222
      dz2     :     0.000020  d :     0.000258
      dxz     :     0.000370
      dyz     :    -0.000032
      dx2y2   :    -0.000031
      dxy     :    -0.000069

 23 H s       :     0.008410  s :     0.008410
      pz      :    -0.000021  p :     0.000021
      px      :    -0.000127
      py      :     0.000169
      dz2     :     0.000059  d :     0.000003
      dxz     :    -0.000006
      dyz     :    -0.000140
      dx2y2   :    -0.000096
      dxy     :     0.000186

 24 H s       :     0.011180  s :     0.011180
      pz      :     0.000186  p :     0.000025
      px      :     0.000243
      py      :    -0.000404
      dz2     :    -0.000093  d :    -0.000256
      dxz     :    -0.000148
      dyz     :    -0.000155
      dx2y2   :    -0.000046
      dxy     :     0.000186

 25 H s       :     0.022391  s :     0.022391
      pz      :     0.000552  p :     0.000662
      px      :    -0.001023
      py      :     0.001133
      dz2     :    -0.000082  d :     0.001309
      dxz     :    -0.000835
      dyz     :     0.001262
      dx2y2   :     0.001066
      dxy     :    -0.000102

 26 H s       :     0.027123  s :     0.027123
      pz      :     0.000018  p :     0.001680
      px      :     0.001905
      py      :    -0.000243
      dz2     :    -0.000016  d :     0.000026
      dxz     :    -0.000246
      dyz     :     0.000526
      dx2y2   :    -0.000109
      dxy     :    -0.000129



                      *****************************
                      * MAYER POPULATION ANALYSIS *
                      *****************************

  NA   - Mulliken gross atomic population
  ZA   - Total nuclear charge
  QA   - Mulliken gross atomic charge
  VA   - Mayer's total valence
  BVA  - Mayer's bonded valence
  FA   - Mayer's free valence

  ATOM       NA         ZA         QA         VA         BVA        FA
  0 C      6.2133     6.0000    -0.2133     3.6470     3.6351     0.0119
  1 N      7.6153     7.0000    -0.6153     2.2996     1.8847     0.4150
  2 C      5.5261     6.0000     0.4739     2.1827     2.1626     0.0201
  3 N      6.5677     7.0000     0.4323     2.5931     2.5032     0.0900
  4 C      6.2903     6.0000    -0.2903     3.7315     3.7298     0.0017
  5 C      6.1378     6.0000    -0.1378     3.7603     3.7598     0.0004
  6 C      6.1743     6.0000    -0.1743     3.8281     3.8281     0.0000
  7 C      6.2849     6.0000    -0.2849     4.0252     4.0252     0.0000
  8 C      5.9273     6.0000     0.0727     3.7108     3.7102     0.0005
  9 H      0.8935     1.0000     0.1065     1.0118     1.0118     0.0000
 10 H      0.9406     1.0000     0.0594     0.9534     0.9533     0.0000
 11 H      0.9339     1.0000     0.0661     1.1184     1.1183     0.0000
 12 H      0.8691     1.0000     0.1309     0.9212     0.9212     0.0000
 13 H      0.8063     1.0000     0.1937     0.8658     0.8658     0.0000
 14 H      0.9550     1.0000     0.0450     1.0996     1.0996     0.0000
 15 H      0.9101     1.0000     0.0899     1.0438     1.0437     0.0000
 16 H      0.8901     1.0000     0.1099     0.9640     0.9639     0.0000
 17 H      0.8350     1.0000     0.1650     0.9768     0.9763     0.0006
 18 H      0.8304     1.0000     0.1696     0.8727     0.8727     0.0000
 19 C      6.3254     6.0000    -0.3254     3.5700     3.5674     0.0026
 20 C      6.1619     6.0000    -0.1619     3.7049     3.7046     0.0003
 21 H      0.7713     1.0000     0.2287     0.8731     0.8730     0.0000
 22 H      0.9588     1.0000     0.0412     1.0932     1.0932    -0.0000
 23 H      0.8060     1.0000     0.1940     0.9697     0.9695     0.0002
 24 H      0.7645     1.0000     0.2355     0.9627     0.9624     0.0003
 25 H      0.8057     1.0000     0.1943     0.9901     0.9887     0.0014
 26 H      0.8054     1.0000     0.1946     0.9878     0.9857     0.0021

  Mayer bond orders larger than 0.100000
B(  0-C ,  1-N ) :   0.8633 B(  0-C , 20-C ) :   0.8794 B(  0-C , 25-H ) :   0.8914 
B(  0-C , 26-H ) :   0.9174 B(  1-N ,  2-C ) :   0.3332 B(  1-N ,  3-N ) :   0.1481 
B(  1-N ,  8-C ) :   0.1661 B(  2-C ,  3-N ) :   0.9685 B(  2-C ,  8-C ) :   0.6192 
B(  3-N ,  4-C ) :   0.9603 B(  3-N , 19-C ) :   0.6366 B(  4-C ,  5-C ) :   0.8606 
B(  4-C , 17-H ) :   0.9080 B(  4-C , 18-H ) :   0.9459 B(  5-C ,  6-C ) :   0.8673 
B(  5-C , 15-H ) :   1.0148 B(  5-C , 16-H ) :   0.9819 B(  6-C ,  7-C ) :   0.8566 
B(  6-C , 13-H ) :   0.9416 B(  6-C , 14-H ) :   1.0795 B(  7-C ,  8-C ) :   0.9196 
B(  7-C , 11-H ) :   1.0254 B(  7-C , 12-H ) :   1.0082 B(  8-C ,  9-H ) :   0.9788 
B(  8-C , 10-H ) :   0.9842 B( 19-C , 20-C ) :   0.8911 B( 19-C , 23-H ) :   1.0070 
B( 19-C , 24-H ) :   0.8790 B( 20-C , 21-H ) :   0.8631 B( 20-C , 22-H ) :   1.1179 


-------
TIMINGS
-------

Total SCF time: 0 days 0 hours 7 min 0 sec 

Total time                  ....     420.525 sec
Sum of individual times     ....     420.035 sec  ( 99.9%)

SCF preparation             ....       1.501 sec  (  0.4%)
Fock matrix formation       ....     391.443 sec  ( 93.1%)
  Startup                   ....       2.048 sec  (  0.5% of F)
  Split-RI-J                ....      34.470 sec  (  8.8% of F)
  XC integration            ....     330.316 sec  ( 84.4% of F)
    XC Preparation          ....       0.000 sec  (  0.0% of XC)
    Basis function eval.    ....      17.080 sec  (  5.2% of XC)
    Density eval.           ....     103.748 sec  ( 31.4% of XC)
    XC-Functional eval.     ....       2.028 sec  (  0.6% of XC)
    XC-Potential eval.      ....     199.822 sec  ( 60.5% of XC)
  CPCM terms                ....      18.323 sec  (  4.7% of F)
Diagonalization             ....       0.000 sec  (  0.0%)
Density matrix formation    ....       4.485 sec  (  1.1%)
Total Energy calculation    ....       1.757 sec  (  0.4%)
Population analysis         ....       0.571 sec  (  0.1%)
Orbital Transformation      ....       2.176 sec  (  0.5%)
Orbital Orthonormalization  ....       0.000 sec  (  0.0%)
DIIS solution               ....      12.573 sec  (  3.0%)
SOSCF solution              ....       5.529 sec  (  1.3%)
Finished LeanSCF after 420.9 sec

Maximum memory used throughout the entire LEANSCF-calculation: 133.0 MB


-------------------------------------------------------------------------------
                          DFT DISPERSION CORRECTION                            
                                                                               
                              DFTD3 V3.1  Rev 1                                
                          USING Becke-Johnson damping                          
-------------------------------------------------------------------------------
The R2SCAN functional is recognized
Active option DFTDOPT                   ...         4   

molecular C6(AA) [au] = 5701.657819 


            DFT-D V3
 parameters
 s6 scaling factor         :     1.0000 
 a1 scaling factor         :     0.4948 
 s8 scaling factor         :     0.7898 
 a2 scaling factor         :     5.7308 
 ad hoc parameters k1-k3   :    16.0000     1.3333    -4.0000 

 Edisp/kcal,au: -5.776576127114  -0.009205559039 
 E6   /kcal   :  -4.602929804 
 E8   /kcal   :  -1.173646323 
 % E8         :  20.317334990 

-------------------------   ----------------
Dispersion correction           -0.009205559
-------------------------   ----------------


-------------------------   --------------------
FINAL SINGLE POINT ENERGY      -461.817068982849
-------------------------   --------------------



           ************************************************************
           *        Program running with 4 parallel MPI-processes     *
           *              working on a common directory               *
           ************************************************************

------------------------------------------------------------------------------
                              ORCA PROPERTY CALCULATIONS
------------------------------------------------------------------------------

GBWName                                 ... cs_rporg_077_ox_solv_03.gbw
Number of atoms                         ...     27
Number of basis functions               ...    940
Max core memory                         ...   3000 MB

Electric properties:
Dipole moment                           ... YES
Quadrupole moment                       ...  NO
Static polarizability (Dipole/Dipole)   ...  NO
Static polarizability (Dipole/Quad.)    ...  NO
Static polarizability (Quad./Quad.)     ...  NO
Static polarizability (Velocity)        ...  NO

Atomic electric properties:
Dipole moment                           ...  NO
Quadrupole moment                       ...  NO
Static polarizability                   ...  NO

Choice of electric origin               ... Center of mass
Position of electric origin             ...    -0.017544     0.021161     0.082261

General magnetic properties:
Magnetizability                         ...  NO

EPR properties:
g-Tensor (aka g-matrix)                 ...  NO
Zero-Field splitting spin-orbit         ...  NO
Zero-field splitting spin-spin          ...  NO
Hyperfine couplings                     ...  NO (   0 nuclei)
Quadrupole couplings                    ...  NO (   0 nuclei)
Contact density                         ...  NO (   0 nuclei)

NMR properties:
Chemical shifts                         ...  NO (   0 nuclei)
Spin-rotation constants                 ...  NO (   0 nuclei)
Spin-spin couplings                     ...  NO (   0 nuclei,    0 pairs)

Choice of magnetic origin               ... GIAO
Position of magnetic origin             ...     0.000000     0.000000     0.000000

Properties with geometric perturbations:
SCF Hessian                             ...  NO
IR spectrum                             ...  NO
VCD spectrum                            ...  NO
X-ray spectroscopy properties:
SCF XES/XAS/RIXS spectra                ...  NO


-------------
DIPOLE MOMENT
-------------

Method             : SCF
Type of density    : Electron Density
Multiplicity       :   2
Irrep              :   0
Energy             :  -461.8078634238105451 Eh
Relativity type    : 
Basis              : AO
                                X                 Y                 Z
Electronic contribution:      4.417949634      -1.714038022      -0.445740246
Nuclear contribution   :     -3.417837470       2.910727643       0.034174869
                        -----------------------------------------
Total Dipole Moment    :      1.000112164       1.196689621      -0.411565377
                        -----------------------------------------
Magnitude (a.u.)       :      1.612971311
Magnitude (Debye)      :      4.099847251



--------------------
Rotational spectrum 
--------------------
 
Rotational constants in cm-1:             0.070248             0.029206             0.022723 
Rotational constants in MHz :          2105.969827           875.585908           681.207949 

Dipole components along the rotational axes: 
x,y,z [a.u.] :     1.027734     1.186085    -0.372345 
x,y,z [Debye]:     2.612293     3.014788    -0.946426 

 

Dipole moment calculation done in   0.1 sec 

Maximum memory used throughout the entire PROP-calculation: 105.9 MB

--------------------------------
SUGGESTED CITATIONS FOR THIS RUN
--------------------------------

Below you find a list of papers that are relevant to this ORCA run
We neither can nor want to force you to cite these papers, but we appreciate if you do
You receive ORCA, which is the product of decades of hard work by many enthusiastic individuals, for free
The only thing we kindly ask in return is that you cite our papers,
We deeply appreciate it, if you show your appreciation for ORCA by not just citing the generic ORCA reference.

Please note that relegating all ORCA citations to the supporting information does *not* help us.
SI sections are not indexed - citations you put there will not count into any citation statistics
But we need these citations in order to attract the funding resources that allow us to do what we are doing

Therefore, if you are a happy ORCA user, please consider citing a few of the papers listed below in the main body of your paper

In addition to the list printed below, the program has created the file cs_rporg_077_ox_solv_03.bibtex that contains the list in bibtex format
You can import this file easily into all common literature databanks and citation aid programs


List of essential papers. We consider these as the minimum necessary citations

  1. Neese,F.
     Software update: the ORCA program system, version 5.0
     WIRES Comput. Molec. Sci., 2022 12(1)e1606
     doi.org/10.1002/wcms.1606

List of papers to cite with high priority. The work reported in these papers was absolutely
necessary for this run to complete.
Our perspective: the developers of density functionals and basis sets usually get cited in chemistry papers
Good! But without the algorithms to do something with them, the functionals or basis sets would not do anything.
Hence, in our opinion, the algorithm design and method developments papers are equally worthy of getting cited

  1. Neese,F.
     An improvement of the resolution of the identity approximation for the formation of the Coulomb matrix
     J. Comp. Chem., 2003 24(14)1740-1747
     doi.org/10.1002/jcc.10318
  2. Garcia-Rates,M.; Neese,F.
     Effect of the Solute Cavity on the Solvation Energy and its Derivatives within the Framework of the Gaussian Charge Scheme
     J. Comput. Chem., 2020 41 922-939
     doi.org/10.1002/jcc.26139
  3. Neese,F.
     The SHARK Integral Generation and Digestion System
     J. Comp. Chem., 2022  1-16
     doi.org/10.1002/jcc.26942
  4. Lehtola,S.; Steigemann,C.; Oliveira,M.; Marques,M.
     Recent developments in Libxc - A comprehensive library of functionals for density functional theory
     Software X, 2018 7 
     doi.org/10.1016/j.softx.2017.11.002
  5. Grimme,S.; Antony,J.; Ehrlich,S.; Krieg,H.
     A consistent and accurate ab initio parametrization of density functional dispersion correction (DFT-D) for the 94 elements H-Pu
     J. Chem. Phys., 2010 132 154104-XXXX
     doi.org/10.1063/1.3382344
  6. Grimme,S.; Ehrlich,S.; Goerigk,L.
     Effect of the damping function in dispersion corrected density functional theory
     J. Comput. Chem., 2011 32(7)1456-1465
     doi.org/10.1002/jcc.21759

List of suggested additional citations. These are papers that are important in the 'surrounding' of 
of this run, or papers that preceded the highly important papers. If you like your results we are grateful for a citation.

  1. Neese,F.
     The ORCA program system
     WIRES Comput. Molec. Sci., 2012 2(1)73-78
     doi.org/10.1002/wcms.81
  2. Neese,F.
     Software update: the ORCA program system, version 4.0
     WIRES Comput. Molec. Sci., 2018 8(1)1-6
     doi.org/10.1002/wcms.1327
  3. Neese,F.; Wennmohs,F.; Becker,U.; Riplinger,C.
     The ORCA quantum chemistry program package
     J. Chem. Phys., 2020 152 Art. No. L224108
     doi.org/10.1063/5.0004608

List of optional additional citations

  1. Neese,F.
     Approximate second-order SCF convergence for spin unrestricted wavefunctions
     Chem. Phys. Lett., 2000 325(1-3)93-98
     doi.org/10.1016/s0009-2614(00)00662-x

Timings for individual modules:

Sum of individual times          ...      443.451 sec (=   7.391 min)
Startup calculation              ...       12.253 sec (=   0.204 min)   2.8 %
SCF iterations                   ...      429.147 sec (=   7.152 min)  96.8 %
Property calculations            ...        2.050 sec (=   0.034 min)   0.5 %
                             ****ORCA TERMINATED NORMALLY****
TOTAL RUN TIME: 0 days 0 hours 7 minutes 26 seconds 88 msec
