 vasp.6.3.2 27Jun22 (build Oct 25 2024 11:36:28) complex                        
  
 executed on             LinuxIFC date 2024.12.29  19:54:22
 running on   80 total cores
 distrk:  each k-point on   80 cores,    1 groups
 distr:  one band on NCORE=  10 cores,    8 groups


--------------------------------------------------------------------------------------------------------


 INCAR:
   SYSTEM = 103_red
   ISTART = 1
   ICHARG = 2
   INIWAV = 1
   METAGGA = R2SCAN
   LASPH = .TRUE.
   NELM = 100
   ALGO = fast   	
   ISPIN = 2
   EDIFF = 1E-05
   ISMEAR = 0
   SIGMA = 0.05
   PREC = accurate
   ENCUT = 500
   LREAL = auto  	
   LWAVE = .TRUE.
   LCHARG = .FALSE.
   LAECHG = .FALSE.
   LVHAR = .FALSE.
   LVTOT = .FALSE.
   EDIFFG = -0.02
   IBRION = 2
   NSW = 500
   ISIF = 2
   POTIM = 0.5
   IVDW = 12
   VDW_A1 = 0.49484001
   VDW_S8 = 0.78981345
   VDW_A2 = 5.73083694
   LPLANE = .TRUE.
   NCORE = 10
   LSCALU = .FALSE.
   NSIM = 4
   LSOL = .TRUE.
   ISOL = 2
   EPSILON_INF = 1.8069
   N_MOL = 0.0115
   P_MOL = 0.82
   R_SOLV = 2.1900
   EB_K = 35.6880
   NELECT = 49

 POTCAR:    PAW_PBE C 08Apr2002                   
 POTCAR:    PAW_PBE O 08Apr2002                   
 POTCAR:    PAW_PBE H 15Jun2001                   
 -----------------------------------------------------------------------------
|                                                                             |
|           W    W    AA    RRRRR   N    N  II  N    N   GGGG   !!!           |
|           W    W   A  A   R    R  NN   N  II  NN   N  G    G  !!!           |
|           W    W  A    A  R    R  N N  N  II  N N  N  G       !!!           |
|           W WW W  AAAAAA  RRRRR   N  N N  II  N  N N  G  GGG   !            |
|           WW  WW  A    A  R   R   N   NN  II  N   NN  G    G                |
|           W    W  A    A  R    R  N    N  II  N    N   GGGG   !!!           |
|                                                                             |
|     You use a magnetic or noncollinear calculation, but did not specify     |
|     the initial magnetic moment with the MAGMOM tag. Note that a            |
|     default of 1 will be used for all atoms. This ferromagnetic setup       |
|     may break the symmetry of the crystal, in particular it may rule        |
|     out finding an antiferromagnetic solution. Thence, we recommend         |
|     setting the initial magnetic moment manually or verifying carefully     |
|     that this magnetic setup is desired.                                    |
|                                                                             |
 -----------------------------------------------------------------------------

 POTCAR:    PAW_PBE C 08Apr2002                   
   SHA256 =  253f7b50bb8d59471dbedb8285d89021f4a42ed1a2c5d38a03a736e69125dd95 C/POTCAR              
   COPYR  = (c) Copyright 08Apr2002 Georg Kresse                                                    
   COPYR  = This file is part of the software VASP. Any use, copying, and all other rights are regul
   COPYR  = If you do not have a valid VASP license, you may not use, copy or distribute this file. 
   VRHFIN =C: s2p2                                                                                  
   LEXCH  = PE                                                                                      
   EATOM  =   147.1560 eV,   10.8157 Ry                                                             
                                                                                                    
   TITEL  = PAW_PBE C 08Apr2002                                                                     
   LULTRA =        F    use ultrasoft PP ?                                                          
   IUNSCR =        1    unscreen: 0-lin 1-nonlin 2-no                                               
   RPACOR =    1.200    partial core radius                                                         
   POMASS =   12.011; ZVAL   =    4.000    mass and valenz                                          
   RCORE  =    1.500    outmost cutoff radius                                                       
   RWIGS  =    1.630; RWIGS  =    0.863    wigner-seitz radius (au A)                               
   ENMAX  =  400.000; ENMIN  =  300.000 eV                                                          
   ICORE  =        2    local potential                                                             
   LCOR   =        T    correct aug charges                                                         
   LPAW   =        T    paw PP                                                                      
   EAUG   =  644.873                                                                                
   DEXC   =    0.000                                                                                
   RMAX   =    1.529    core radius for proj-oper                                                   
   RAUG   =    1.300    factor for augmentation sphere                                              
   RDEP   =    1.501    radius for radial grids                                                     
   RDEPT  =    1.300    core radius for aug-charge                                                  
                                                                                                    
   Atomic configuration                                                                             
    4 entries                                                                                       
     n  l   j            E        occ.                                                              
     1  0  0.50      -273.3789   2.0000                                                             
     2  0  0.50       -13.7508   2.0000                                                             
     2  1  0.50        -5.2854   2.0000                                                             
     3  2  1.50        -5.4423   0.0000                                                             
   Description                                                                                      
     l       E           TYP  RCUT    TYP  RCUT                                                     
     0    -13.7508458     23  1.200                                                                 
     0     -8.2022199     23  1.200                                                                 
     1     -5.2854383     23  1.500                                                                 
     1     34.0145650     23  1.500                                                                 
     2     -5.4423304      7  1.500                                                                 
  local pseudopotential read in
  partial core-charges read in
  partial kinetic energy density read in
  atomic valenz-charges read in
  non local Contribution for L=           0  read in
    real space projection operators read in
  non local Contribution for L=           0  read in
    real space projection operators read in
  non local Contribution for L=           1  read in
    real space projection operators read in
  non local Contribution for L=           1  read in
    real space projection operators read in
    PAW grid and wavefunctions read in
 
   number of l-projection  operators is LMAX  =           4
   number of lm-projection operators is LMMAX =           8
 
 POTCAR:    PAW_PBE O 08Apr2002                   
   SHA256 =  818f92134a0a090dccd8ba1447fa70422a3b330e708bb4f08108d8ae51209ddf O/POTCAR              
   COPYR  = (c) Copyright 08Apr2002 Georg Kresse                                                    
   COPYR  = This file is part of the software VASP. Any use, copying, and all other rights are regul
   COPYR  = If you do not have a valid VASP license, you may not use, copy or distribute this file. 
   VRHFIN =O: s2p4                                                                                  
   LEXCH  = PE                                                                                      
   EATOM  =   432.3788 eV,   31.7789 Ry                                                             
                                                                                                    
   TITEL  = PAW_PBE O 08Apr2002                                                                     
   LULTRA =        F    use ultrasoft PP ?                                                          
   IUNSCR =        1    unscreen: 0-lin 1-nonlin 2-no                                               
   RPACOR =    1.200    partial core radius                                                         
   POMASS =   16.000; ZVAL   =    6.000    mass and valenz                                          
   RCORE  =    1.520    outmost cutoff radius                                                       
   RWIGS  =    1.550; RWIGS  =    0.820    wigner-seitz radius (au A)                               
   ENMAX  =  400.000; ENMIN  =  300.000 eV                                                          
   ICORE  =        2    local potential                                                             
   LCOR   =        T    correct aug charges                                                         
   LPAW   =        T    paw PP                                                                      
   EAUG   =  605.392                                                                                
   DEXC   =    0.000                                                                                
   RMAX   =    1.553    core radius for proj-oper                                                   
   RAUG   =    1.300    factor for augmentation sphere                                              
   RDEP   =    1.550    radius for radial grids                                                     
   RDEPT  =    1.329    core radius for aug-charge                                                  
                                                                                                    
   Atomic configuration                                                                             
    4 entries                                                                                       
     n  l   j            E        occ.                                                              
     1  0  0.50      -514.6923   2.0000                                                             
     2  0  0.50       -23.9615   2.0000                                                             
     2  1  0.50        -9.0305   4.0000                                                             
     3  2  1.50        -9.5241   0.0000                                                             
   Description                                                                                      
     l       E           TYP  RCUT    TYP  RCUT                                                     
     0    -23.9615318     23  1.200                                                                 
     0     -9.5240782     23  1.200                                                                 
     1     -9.0304911     23  1.520                                                                 
     1      8.1634956     23  1.520                                                                 
     2     -9.5240782      7  1.500                                                                 
  local pseudopotential read in
  partial core-charges read in
  partial kinetic energy density read in
  kinetic energy density of atom read in
  atomic valenz-charges read in
  non local Contribution for L=           0  read in
    real space projection operators read in
  non local Contribution for L=           0  read in
    real space projection operators read in
  non local Contribution for L=           1  read in
    real space projection operators read in
  non local Contribution for L=           1  read in
    real space projection operators read in
    PAW grid and wavefunctions read in
 
   number of l-projection  operators is LMAX  =           4
   number of lm-projection operators is LMMAX =           8
 
 POTCAR:    PAW_PBE H 15Jun2001                   
   SHA256 =  030f79b5d3ab3cf0e668861823c8fb652ff669f3e15e46930bd03bfd63a607b6 H/POTCAR              
   COPYR  = (c) Copyright 15Jun2001 Georg Kresse                                                    
   COPYR  = This file is part of the software VASP. Any use, copying, and all other rights are regul
   COPYR  = If you do not have a valid VASP license, you may not use, copy or distribute this file. 
   VRHFIN =H: ultrasoft test                                                                        
   LEXCH  = PE                                                                                      
   EATOM  =    12.4884 eV,    0.9179 Ry                                                             
                                                                                                    
   TITEL  = PAW_PBE H 15Jun2001                                                                     
   LULTRA =        F    use ultrasoft PP ?                                                          
   IUNSCR =        0    unscreen: 0-lin 1-nonlin 2-no                                               
   RPACOR =    0.000    partial core radius                                                         
   POMASS =    1.000; ZVAL   =    1.000    mass and valenz                                          
   RCORE  =    1.100    outmost cutoff radius                                                       
   RWIGS  =    0.700; RWIGS  =    0.370    wigner-seitz radius (au A)                               
   ENMAX  =  250.000; ENMIN  =  200.000 eV                                                          
   RCLOC  =    0.701    cutoff for local pot                                                        
   LCOR   =        T    correct aug charges                                                         
   LPAW   =        T    paw PP                                                                      
   EAUG   =  400.000                                                                                
   RMAX   =    1.123    core radius for proj-oper                                                   
   RAUG   =    1.200    factor for augmentation sphere                                              
   RDEP   =    1.112    radius for radial grids                                                     
   RDEPT  =    0.926    core radius for aug-charge                                                  
                                                                                                    
   Atomic configuration                                                                             
    2 entries                                                                                       
     n  l   j            E        occ.                                                              
     1  0  0.50        -6.4927   1.0000                                                             
     2  1  0.50        -3.4015   0.0000                                                             
   Description                                                                                      
     l       E           TYP  RCUT    TYP  RCUT                                                     
     0     -6.4927494     23  1.100                                                                 
     0      6.8029130     23  1.100                                                                 
     1     -4.0817478     23  1.100                                                                 
  local pseudopotential read in
  atomic valenz-charges read in
  non local Contribution for L=           0  read in
    real space projection operators read in
  non local Contribution for L=           0  read in
    real space projection operators read in
  non local Contribution for L=           1  read in
    real space projection operators read in
    PAW grid and wavefunctions read in
 
   number of l-projection  operators is LMAX  =           3
   number of lm-projection operators is LMMAX =           5
 
 Optimization of the real space projectors (new method)

 maximal supplied QI-value         = 25.13
 optimisation between [QCUT,QGAM] = [ 11.31, 22.87] = [ 35.82,146.48] Ry 
 Optimized for a Real-space Cutoff    1.03 Angstroem

   l    n(q)    QCUT    max X(q) W(low)/X(q) W(high)/X(q)  e(spline) 
   0      7    11.310   115.676    0.20E-03    0.90E-03    0.20E-06
   0      7    11.310    87.132    0.20E-03    0.89E-03    0.19E-06
   1      6    11.310     4.429    0.16E-03    0.28E-03    0.12E-06
   1      6    11.310     2.733    0.12E-03    0.21E-03    0.99E-07
 Optimization of the real space projectors (new method)

 maximal supplied QI-value         = 24.76
 optimisation between [QCUT,QGAM] = [ 11.39, 22.77] = [ 36.31,145.25] Ry 
 Optimized for a Real-space Cutoff    1.10 Angstroem

   l    n(q)    QCUT    max X(q) W(low)/X(q) W(high)/X(q)  e(spline) 
   0      7    11.387    20.381    0.22E-03    0.48E-03    0.18E-06
   0      7    11.387    15.268    0.22E-03    0.52E-03    0.19E-06
   1      7    11.387     5.964    0.22E-03    0.73E-03    0.24E-06
   1      7    11.387     5.382    0.19E-03    0.60E-03    0.21E-06
 Optimization of the real space projectors (new method)

 maximal supplied QI-value         = 34.20
 optimisation between [QCUT,QGAM] = [ 11.29, 22.57] = [ 35.68,142.71] Ry 
 Optimized for a Real-space Cutoff    1.20 Angstroem

   l    n(q)    QCUT    max X(q) W(low)/X(q) W(high)/X(q)  e(spline) 
   0      8    11.287    19.460    0.22E-03    0.50E-03    0.19E-06
   0      8    11.287    12.209    0.21E-03    0.48E-03    0.18E-06
   1      8    11.287     4.655    0.21E-03    0.11E-04    0.26E-06
  PAW_PBE C 08Apr2002                   :
 energy of atom  1       EATOM= -147.1560
 kinetic energy error for atom=    0.0076 (will be added to EATOM!!)
  PAW_PBE O 08Apr2002                   :
 energy of atom  2       EATOM= -432.3788
 kinetic energy error for atom=    0.0224 (will be added to EATOM!!)
  PAW_PBE H 15Jun2001                   :
 energy of atom  3       EATOM=  -12.4884
 kinetic energy error for atom=    0.0020 (will be added to EATOM!!)
 
 
 POSCAR: C O H
  positions in direct lattice
  velocities in cartesian coordinates

 METAGGA = R2SCA    LMAXTAU =  6    LMIXTAU =  F

 exchange correlation table for  LEXCH =        8
   RHO(1)=    0.500       N(1)  =     2000
   RHO(2)=  100.500       N(2)  =     4000
 
 POSCAR: C O H
  positions in direct lattice
  velocities in cartesian coordinates
 
 POSCAR: C O H
  positions in direct lattice
  velocities in cartesian coordinates
 


--------------------------------------------------------------------------------------------------------


 ion  position               nearest neighbor table
   1  0.488  0.477  0.500-  18 1.08   6 1.36   2 1.42
   2  0.474  0.509  0.500-  10 1.31   1 1.42   3 1.43
   3  0.494  0.539  0.500-  14 1.08   4 1.36   2 1.43
   4  0.528  0.536  0.500-  13 1.08   3 1.36   5 1.43
   5  0.543  0.503  0.500-   7 1.39   4 1.43   6 1.43
   6  0.522  0.474  0.500-  11 1.08   1 1.36   5 1.43
   7  0.578  0.500  0.500-   8 1.22   5 1.39
   8  0.608  0.497  0.500-  12 1.07   7 1.22
   9  0.418  0.487  0.500-  15 1.08  16 1.09  17 1.09  10 1.46
  10  0.442  0.515  0.500-   2 1.31   9 1.46
  11  0.534  0.450  0.500-   6 1.08
  12  0.635  0.495  0.500-   8 1.07
  13  0.544  0.558  0.500-   4 1.08
  14  0.482  0.563  0.500-   3 1.08
  15  0.394  0.499  0.500-   9 1.08
  16  0.422  0.472  0.478-   9 1.09
  17  0.422  0.472  0.522-   9 1.09
  18  0.473  0.455  0.500-   1 1.08
 
  LATTYP: Found a simple cubic cell.
 ALAT       =    40.0000000000
  
  Lattice vectors:
  
 A1 = (  40.0000000000,   0.0000000000,   0.0000000000)
 A2 = (   0.0000000000,  40.0000000000,   0.0000000000)
 A3 = (   0.0000000000,   0.0000000000,  40.0000000000)


Analysis of symmetry for initial positions (statically):
=====================================================================
 Subroutine PRICEL returns:
 Original cell was already a primitive cell.
 

 Routine SETGRP: Setting up the symmetry group for a 
 simple cubic supercell.


 Subroutine GETGRP returns: Found  1 space group operations
 (whereof  1 operations were pure point group operations)
 out of a pool of 48 trial point group operations.


The static configuration has the point symmetry C_1 .


Analysis of symmetry for dynamics (positions and initial velocities):
=====================================================================
 Subroutine PRICEL returns:
 Original cell was already a primitive cell.
 

 Routine SETGRP: Setting up the symmetry group for a 
 simple cubic supercell.


 Subroutine GETGRP returns: Found  1 space group operations
 (whereof  1 operations were pure point group operations)
 out of a pool of 48 trial point group operations.


The dynamic configuration has the point symmetry C_1 .


Analysis of constrained symmetry for selective dynamics:
=====================================================================
 Subroutine PRICEL returns:
 Original cell was already a primitive cell.
 

 Routine SETGRP: Setting up the symmetry group for a 
 simple cubic supercell.


 Subroutine GETGRP returns: Found  1 space group operations
 (whereof  1 operations were pure point group operations)
 out of a pool of 48 trial point group operations.


The constrained configuration has the point symmetry C_1 .


Analysis of structural, dynamic, and magnetic symmetry:
=====================================================================
 Subroutine PRICEL returns:
 Original cell was already a primitive cell.
 

 Routine SETGRP: Setting up the symmetry group for a 
 simple cubic supercell.


 Subroutine GETGRP returns: Found  1 space group operations
 (whereof  1 operations were pure point group operations)
 out of a pool of 48 trial point group operations.


The overall configuration has the point symmetry C_1 .


 Subroutine INISYM returns: Found  1 space group operations
 (whereof  1 operations are pure point group operations),
 and found     1 'primitive' translations


----------------------------------------------------------------------------------------

                                     Primitive cell                                     

  volume of cell :   64000.0000

  direct lattice vectors                    reciprocal lattice vectors
    40.000000000  0.000000000  0.000000000     0.025000000  0.000000000  0.000000000
     0.000000000 40.000000000  0.000000000     0.000000000  0.025000000  0.000000000
     0.000000000  0.000000000 40.000000000     0.000000000  0.000000000  0.025000000

  length of vectors
    40.000000000 40.000000000 40.000000000     0.025000000  0.025000000  0.025000000

  position of ions in fractional coordinates (direct lattice)
     0.488497151  0.476849543  0.499995904
     0.473944682  0.509258130  0.499997546
     0.494174128  0.538608636  0.499995632
     0.528083929  0.535657396  0.499993941
     0.543067236  0.503292794  0.499993969
     0.522491064  0.474108936  0.499996378
     0.577643670  0.500081820  0.500001196
     0.607943000  0.497323896  0.500015677
     0.417992907  0.487093328  0.500004377
     0.441605074  0.514766536  0.499998863
     0.534319210  0.449792666  0.499985394
     0.634514766  0.494864780  0.500025388
     0.543946982  0.557561578  0.499993778
     0.481907132  0.562725881  0.499996613
     0.393638582  0.498947421  0.500011361
     0.421592856  0.472177564  0.477530753
     0.421605205  0.472174981  0.522474523
     0.473031425  0.454714114  0.499988708

  ion indices of the primitive-cell ions
   primitive index   ion index
                 1           1
                 2           2
                 3           3
                 4           4
                 5           5
                 6           6
                 7           7
                 8           8
                 9           9
                10          10
                11          11
                12          12
                13          13
                14          14
                15          15
                16          16
                17          17
                18          18

----------------------------------------------------------------------------------------

 
 
 KPOINTS: K-Point Grid                            

Automatic generation of k-mesh.
 Grid dimensions read from file:
 generate k-points for:    1    1    1

 Generating k-lattice:

  Cartesian coordinates                     Fractional coordinates (reciprocal lattice)
     0.025000000  0.000000000  0.000000000     1.000000000  0.000000000  0.000000000
     0.000000000  0.025000000  0.000000000     0.000000000  1.000000000  0.000000000
     0.000000000  0.000000000  0.025000000     0.000000000  0.000000000  1.000000000

  Length of vectors
     0.025000000  0.025000000  0.025000000

  Shift w.r.t. Gamma in fractional coordinates (k-lattice)
     0.000000000  0.000000000  0.000000000

 
 Subroutine IBZKPT returns following result:
 ===========================================
 
 Found      1 irreducible k-points:
 
 Following reciprocal coordinates:
            Coordinates               Weight
  0.000000  0.000000  0.000000      1.000000
 
 Following cartesian coordinates:
            Coordinates               Weight
  0.000000  0.000000  0.000000      1.000000
 


--------------------------------------------------------------------------------------------------------




 Dimension of arrays:
   k-points           NKPTS =      1   k-points in BZ     NKDIM =      1   number of bands    NBANDS=     48
   number of dos      NEDOS =    301   number of ions     NIONS =     18
   non local maximal  LDIM  =      4   non local SUM 2l+1 LMDIM =      8
   total plane-waves  NPLWV = ******
   max r-space proj   IRMAX =   2915   max aug-charges    IRDMAX=   5350
   dimension x,y,z NGX =   294 NGY =  294 NGZ =  294
   dimension x,y,z NGXF=   588 NGYF=  588 NGZF=  588
   support grid    NGXF=   588 NGYF=  588 NGZF=  588
   ions per type =               9   1   8
   NGX,Y,Z   is equivalent  to a cutoff of  12.22, 12.22, 12.22 a.u.
   NGXF,Y,Z  is equivalent  to a cutoff of  24.44, 24.44, 24.44 a.u.

 SYSTEM =  103_red                                 
 POSCAR =  C O H                                   

 Startparameter for this run:
   NWRITE =      2    write-flag & timer
   PREC   = accura    normal or accurate (medium, high low for compatibility)
   ISTART =      1    job   : 0-new  1-cont  2-samecut
   ICHARG =      2    charge: 1-file 2-atom 10-const
   ISPIN  =      2    spin polarized calculation?
   LNONCOLLINEAR =      F non collinear calculations
   LSORBIT =      F    spin-orbit coupling
   INIWAV =      1    electr: 0-lowe 1-rand  2-diag
   LASPH  =      T    aspherical Exc in radial PAW
 Electronic Relaxation 1
   ENCUT  =  500.0 eV  36.75 Ry    6.06 a.u.  72.93 72.93 72.93*2*pi/ulx,y,z
   ENINI  =  500.0     initial cutoff
   ENAUG  =  644.9 eV  augmentation charge cutoff
   NELM   =    100;   NELMIN=  2; NELMDL=  0     # of ELM steps 
   EDIFF  = 0.1E-04   stopping-criterion for ELM
   LREAL  =      T    real-space projection
   NLSPLINE    = F    spline interpolate recip. space projectors
   LCOMPAT=      F    compatible to vasp.4.4
   GGA_COMPAT  = T    GGA compatible to vasp.4.4-vasp.4.6
   LMAXPAW     = -100 max onsite density
   LMAXMIX     =    2 max onsite mixed and CHGCAR
   VOSKOWN=      0    Vosko Wilk Nusair interpolation
   ROPT   =   -0.00025  -0.00025  -0.00025
 Ionic relaxation
   EDIFFG = -.2E-01   stopping-criterion for IOM
   NSW    =    500    number of steps for IOM
   NBLOCK =      1;   KBLOCK =    500    inner block; outer block 
   IBRION =      2    ionic relax: 0-MD 1-quasi-New 2-CG
   NFREE  =      1    steps in history (QN), initial steepest desc. (CG)
   ISIF   =      2    stress and relaxation
   IWAVPR =     11    prediction:  0-non 1-charg 2-wave 3-comb
   ISYM   =      2    0-nonsym 1-usesym 2-fastsym
   LCORR  =      T    Harris-Foulkes like correction to forces

   POTIM  = 0.5000    time-step for ionic-motion
   TEIN   =    0.0    initial temperature
   TEBEG  =    0.0;   TEEND  =   0.0 temperature during run
   SMASS  =  -3.00    Nose mass-parameter (am)
   estimated Nose-frequenzy (Omega)   =  0.10E-29 period in steps = 0.13E+47 mass=  -0.366E-25a.u.
   SCALEE = 1.0000    scale energy and forces
   NPACO  =    256;   APACO  = 10.0  distance and # of slots for P.C.
   PSTRESS=    0.0 pullay stress

  Mass of Ions in am
   POMASS =  12.01 16.00  1.00
  Ionic Valenz
   ZVAL   =   4.00  6.00  1.00
  Atomic Wigner-Seitz radii
   RWIGS  =  -1.00 -1.00 -1.00
  virtual crystal weights 
   VCA    =   1.00  1.00  1.00
   NELECT =      49.0000    total number of electrons
   NUPDOWN=      -1.0000    fix difference up-down

 DOS related values:
   EMIN   =  10.00;   EMAX   =-10.00  energy-range for DOS
   EFERMI =   0.00
   ISMEAR =     0;   SIGMA  =   0.05  broadening in eV -4-tet -1-fermi 0-gaus

 Electronic relaxation 2 (details)
   IALGO  =     68    algorithm
   LDIAG  =      T    sub-space diagonalisation (order eigenvalues)
   LSUBROT=      F    optimize rotation matrix (better conditioning)
   TURBO    =      0    0=normal 1=particle mesh
   IRESTART =      0    0=no restart 2=restart with 2 vectors
   NREBOOT  =      0    no. of reboots
   NMIN     =      0    reboot dimension
   EREF     =   0.00    reference energy to select bands
   IMIX   =      4    mixing-type and parameters
     AMIX     =   0.40;   BMIX     =  1.00
     AMIX_MAG =   1.60;   BMIX_MAG =  1.00
     AMIN     =   0.10
     WC   =   100.;   INIMIX=   1;  MIXPRE=   1;  MAXMIX= -45

 Intra band minimization:
   WEIMIN = 0.0010     energy-eigenvalue tresh-hold
   EBREAK =  0.52E-07  absolut break condition
   DEPER  =   0.30     relativ break condition  

   TIME   =   0.40     timestep for ELM

  volume/ion in A,a.u.               =    3555.56     23994.07
  Fermi-wavevector in a.u.,A,eV,Ry     =   0.149766  0.283017  0.305177  0.022430
  Thomas-Fermi vector in A             =   0.825203
 
 Write flags
   LWAVE        =      T    write WAVECAR
   LDOWNSAMPLE  =      F    k-point downsampling of WAVECAR
   LCHARG       =      F    write CHGCAR
   LVTOT        =      F    write LOCPOT, total local potential
   LVHAR        =      F    write LOCPOT, Hartree potential only
   LELF         =      F    write electronic localiz. function (ELF)
   LORBIT       =      0    0 simple, 1 ext, 2 COOP (PROOUT), +10 PAW based schemes


 Dipole corrections
   LMONO  =      F    monopole corrections only (constant potential shift)
   LDIPOL =      F    correct potential (dipole corrections)
   IDIPOL =      0    1-x, 2-y, 3-z, 4-all directions 
   EPSILON=  1.0000000 bulk dielectric constant

 Exchange correlation treatment:
   GGA     =    --    GGA type
   LEXCH   =     8    internal setting for exchange type
   LIBXC   =     F    Libxc                    
   VOSKOWN =     0    Vosko Wilk Nusair interpolation
   LHFCALC =     F    Hartree Fock is set to
   LHFONE  =     F    Hartree Fock one center treatment
   AEXX    =    0.0000 exact exchange contribution

 Linear response parameters
   LEPSILON=     F    determine dielectric tensor
   LRPA    =     F    only Hartree local field effects (RPA)
   LNABLA  =     F    use nabla operator in PAW spheres
   LVEL    =     F    velocity operator in full k-point grid
   CSHIFT  =0.1000    complex shift for real part using Kramers Kronig
   OMEGAMAX=  -1.0    maximum frequency
   DEG_THRESHOLD= 0.2000000E-02 threshold for treating states as degnerate
   RTIME   =   -0.100 relaxation time in fs
  (WPLASMAI=    0.000 imaginary part of plasma frequency in eV, 0.658/RTIME)
   DFIELD  = 0.0000000 0.0000000 0.0000000 field for delta impulse in time
 
  Optional k-point grid parameters
   LKPOINTS_OPT  =     F    use optional k-point grid
   KPOINTS_OPT_MODE=     1    mode for optional k-point grid
 
 Orbital magnetization related:
   ORBITALMAG=     F  switch on orbital magnetization
   LCHIMAG   =     F  perturbation theory with respect to B field
   DQ        =  0.001000  dq finite difference perturbation B field
   LLRAUG    =     F  two centre corrections for induced B field

 Solvation model:
   LSOL             =     T         switch on solvation model
   LSOL_SCF         =     T         include solvation in SCF
   ISOL             =     2         solvation model type
   EFERMI_ref       =  0.000000         reference Fermi level
   capacitance_init =  1.000000         initial capacitance
 Nonlinear solvation model:
   LNLDIEL     =     T         switch on non-linear dielectric mode
   LNLION      =     T         switch on non-linear ionic mode
   LNLTEST     =     F         test non-linear model in linear regime
   I_NLOC_SOL  =     1         type of nonlocal dielectric response
   NC_K        =  0.015000     cutoff charge density for cavities (1/Angstrom**3)
   TAU         =  0.000879     cavity formation energy (eV/Angstrom**2)
   SIGMA_K     =  0.600000     cavity width
   A_K         =  0.125000     smoothing length (Angstrom)
   R_SOLV      =  2.190000     solvent radius (Angstrom)
   R_CAV       =  0.000000     cavity radius (Angstrom)
   R_DIEL      =  1.000000     dielectric radius (Angstrom)
   R_ION       =  0.000000     ionic radius (Angstrom)
   R_B         =  0.000000     bound charge radius (Angstrom)
   SOLTEMP     =298.000000     solvent temperature (K)
   EB_K        = 35.688000     relative permittivity of the bulk solvent
   EPSILON_INF =  1.806900     optical relative permittivity of bulk solvent
   N_MOL       =  0.011500     molar density of solvent (1/Angstrom**3)
   P_MOL       =  0.820000     solvent dipole moment (e*Angstrom)
   C_MOLAR     =  0.000000     electrolyte concentration (mol/L)
   LAMBDA_D_K  =  0.000000     Debye length (Angstrom)
   ZION        =  1.000000     charge of ions in electrolyte (e)
   D_ION       = -1.000000     minimum ion packing diameter (Angstrom)



--------------------------------------------------------------------------------------------------------


 conjugate gradient relaxation of ions
   using selective dynamics as specified on POSCAR
 charge density and potential will be updated during run
 spin polarized calculation
 RMM-DIIS sequential band-by-band and
  variant of blocked Davidson during initial phase
 perform sub-space diagonalisation
    before iterative eigenvector-optimisation
 modified Broyden-mixing scheme, WC =      100.0
 initial mixing is a Kerker type mixing with AMIX =  0.4000 and BMIX =      1.0000
 Hartree-type preconditioning will be used
 using additional bands           23
 real space projection scheme for non local part
 use partial core corrections
 calculate Harris-corrections to forces 
   (improved forces if not selfconsistent)
 use gradient corrections 
 use of overlap-Matrix (Vanderbilt PP)
 Gauss-broadening in eV      SIGMA  =   0.05


--------------------------------------------------------------------------------------------------------


  energy-cutoff  :      500.00
  volume of cell :    64000.00
      direct lattice vectors                 reciprocal lattice vectors
    40.000000000  0.000000000  0.000000000     0.025000000  0.000000000  0.000000000
     0.000000000 40.000000000  0.000000000     0.000000000  0.025000000  0.000000000
     0.000000000  0.000000000 40.000000000     0.000000000  0.000000000  0.025000000

  length of vectors
    40.000000000 40.000000000 40.000000000     0.025000000  0.025000000  0.025000000


 
 old parameters found on file WAVECAR:
  energy-cutoff  :      500.00
  volume of cell :    64000.00
      direct lattice vectors                 reciprocal lattice vectors
    40.000000000  0.000000000  0.000000000     0.025000000  0.000000000  0.000000000
     0.000000000 40.000000000  0.000000000     0.000000000  0.025000000  0.000000000
     0.000000000  0.000000000 40.000000000     0.000000000  0.000000000  0.025000000

  length of vectors

 
 k-points in units of 2pi/SCALE and weight: K-Point Grid                            
   0.00000000  0.00000000  0.00000000       1.000
 
 k-points in reciprocal lattice and weights: K-Point Grid                            
   0.00000000  0.00000000  0.00000000       1.000
 
 position of ions in fractional coordinates (direct lattice) 
   0.48849715  0.47684954  0.49999590
   0.47394468  0.50925813  0.49999755
   0.49417413  0.53860864  0.49999563
   0.52808393  0.53565740  0.49999394
   0.54306724  0.50329279  0.49999397
   0.52249106  0.47410894  0.49999638
   0.57764367  0.50008182  0.50000120
   0.60794300  0.49732390  0.50001568
   0.41799291  0.48709333  0.50000438
   0.44160507  0.51476654  0.49999886
   0.53431921  0.44979267  0.49998539
   0.63451477  0.49486478  0.50002539
   0.54394698  0.55756158  0.49999378
   0.48190713  0.56272588  0.49999661
   0.39363858  0.49894742  0.50001136
   0.42159286  0.47217756  0.47753075
   0.42160520  0.47217498  0.52247452
   0.47303143  0.45471411  0.49998871
 
 position of ions in cartesian coordinates  (Angst):
  19.53988606 19.07398172 19.99983615
  18.95778727 20.37032518 19.99990182
  19.76696514 21.54434545 19.99982529
  21.12335717 21.42629585 19.99975764
  21.72268945 20.13171178 19.99975877
  20.89964254 18.96435744 19.99985514
  23.10574678 20.00327279 20.00004784
  24.31772000 19.89295584 20.00062706
  16.71971628 19.48373311 20.00017509
  17.66420295 20.59066143 19.99995450
  21.37276840 17.99170664 19.99941575
  25.38059065 19.79459118 20.00101551
  21.75787930 22.30246313 19.99975113
  19.27628530 22.50903525 19.99986451
  15.74554327 19.95789685 20.00045443
  16.86371423 18.88710256 19.10123013
  16.86420820 18.88699924 20.89898092
  18.92125701 18.18856457 19.99954832
 


--------------------------------------------------------------------------------------------------------


 k-point   1 :   0.0000 0.0000 0.0000  plane waves: 1624525

 maximum and minimum number of plane-waves per node :    162473   162437

 maximum number of plane-waves:   1624525
 maximum index in each direction: 
   IXMAX=   72   IYMAX=   72   IZMAX=   72
   IXMIN=  -72   IYMIN=  -72   IZMIN=  -72


 real space projection operators:
  total allocation   :       2007.44 KBytes
  max/ min on nodes  :        205.45        195.55


 parallel 3D FFT for wavefunctions:
    minimum data exchange during FFTs selected (reduces bandwidth)
 parallel 3D FFT for charge:
    minimum data exchange during FFTs selected (reduces bandwidth)


 total amount of memory used by VASP MPI-rank0   892209. kBytes
=======================================================================

   base      :      30000. kBytes
   nonlr-proj:       1138. kBytes
   fftplans  :     167689. kBytes
   grid      :     662171. kBytes
   one-center:         12. kBytes
   wavefun   :      31199. kBytes
 
     INWAV:  cpu time      9.1074: real time      9.1320
 Broyden mixing: mesh for mixing (old mesh)
   NGX =145   NGY =145   NGZ =145
  (NGX  =588   NGY  =588   NGZ  =588)
  gives a total of ****** points

 initial charge density was supplied:
 charge density of overlapping atoms calculated
 number of electron      50.0000000 magnetization      18.0000000
 keeping initial charge density in first step


--------------------------------------------------------------------------------------------------------


 Maximum index for non-local projection operator          317
 Maximum index for augmentation-charges          333 (set IRDMAX)


--------------------------------------------------------------------------------------------------------


 First call to EWALD:  gamma=   0.044
 Maximum number of real-space cells 3x 3x 3
 Maximum number of reciprocal cells 3x 3x 3

    FEWALD:  cpu time      0.0033: real time      0.0033


--------------------------------------- Iteration      1(   1)  ---------------------------------------


    POTLOK:  cpu time     12.4269: real time     12.4951
    SETDIJ:  cpu time      0.4394: real time      0.4402
     EDDAV:  cpu time    103.4872: real time    103.7173
       DOS:  cpu time      0.0003: real time      0.0003
    CHARGE:  cpu time     11.2400: real time     11.2642
    MIXING:  cpu time      0.4604: real time      0.4610
    --------------------------------------------
      LOOP:  cpu time    128.0543: real time    128.3782

 eigenvalue-minimisations  :   288
 total energy-change (2. order) :-0.1136168E+03  (-0.5559368E+01)
 number of electron      48.9999996 magnetization      17.3450277
 augmentation part        1.6524145 magnetization      16.4815744

 Broyden mixing:
  rms(total) = 0.25909E+01    rms(broyden)= 0.25906E+01
  rms(prec ) = 0.26122E+01
  weight for this iteration     100.00

 Free energy of the ion-electron system (eV)
  ---------------------------------------------------
  alpha Z        PSCENC =         0.17771760
  Ewald energy   TEWEN  =      5022.93495130
  -Hartree energ DENC   =     -6287.98215590
  -exchange      EXHF   =         0.00000000
  -V(xc)+E(xc)   XCENC  =       197.52317281
  PAW double counting   =      1306.17897429    -1327.83718236
  entropy T*S    EENTRO =        -0.00000000
  eigenvalues    EBANDS =      -881.19592504
  atomic energy  EATOM  =      1856.58366867
  Solvation  Ecorr_sol  =         0.00000000
  ---------------------------------------------------
  free energy    TOTEN  =      -113.61677863 eV

  energy without entropy =     -113.61677863  energy(sigma->0) =     -113.61677863


--------------------------------------------------------------------------------------------------------




--------------------------------------- Iteration      1(   2)  ---------------------------------------


    --------------------------------------------
      INIT:  cpu time      0.4388: real time      0.4395
  FINALIZE:  cpu time     39.9845: real time     40.0323
    --------------------------------------------
    POTLOK:  cpu time     52.8664: real time     52.9426
    SETDIJ:  cpu time      0.4471: real time      0.4480
    EDDIAG:  cpu time     19.7818: real time     19.8245
  RMM-DIIS:  cpu time    112.7262: real time    112.9712
    ORTHCH:  cpu time      0.1705: real time      0.1709
       DOS:  cpu time      0.0033: real time      0.0033
    CHARGE:  cpu time     11.2273: real time     11.2520
    MIXING:  cpu time      0.3990: real time      0.3996
    --------------------------------------------
      LOOP:  cpu time    197.6215: real time    198.0121

 eigenvalue-minimisations  :   194
 total energy-change (2. order) : 0.1108870E+02  (-0.5630831E+01)
 number of electron      48.9999995 magnetization      16.6483284
 augmentation part        1.6831532 magnetization      15.7034467

 Broyden mixing:
  rms(total) = 0.12849E+01    rms(broyden)= 0.12848E+01
  rms(prec ) = 0.13006E+01
  weight for this iteration     100.00

 eigenvalues of (default mixing * dielectric matrix)
  average eigenvalue GAMMA=   0.9403
  0.9403

 Free energy of the ion-electron system (eV)
  ---------------------------------------------------
  alpha Z        PSCENC =         0.17771760
  Ewald energy   TEWEN  =      5022.93495130
  -Hartree energ DENC   =     -6343.48010415
  -exchange      EXHF   =         0.00000000
  -V(xc)+E(xc)   XCENC  =       210.10426005
  PAW double counting   =      2194.35247192    -2216.97002833
  entropy T*S    EENTRO =        -0.00000000
  eigenvalues    EBANDS =      -812.60381472
  atomic energy  EATOM  =      1856.58366867
  Solvation  Ecorr_sol  =       -13.62720386
  ---------------------------------------------------
  free energy    TOTEN  =      -102.52808153 eV

  energy without entropy =     -102.52808153  energy(sigma->0) =     -102.52808153


--------------------------------------------------------------------------------------------------------




--------------------------------------- Iteration      1(   3)  ---------------------------------------


    --------------------------------------------
      INIT:  cpu time      0.4238: real time      0.4243
  FINALIZE:  cpu time     49.1819: real time     49.2583
    --------------------------------------------
    POTLOK:  cpu time     62.2824: real time     62.3926
    SETDIJ:  cpu time      0.4562: real time      0.4571
    EDDIAG:  cpu time     19.4913: real time     19.5336
  RMM-DIIS:  cpu time    120.1467: real time    120.4304
    ORTHCH:  cpu time      0.1673: real time      0.1678
       DOS:  cpu time      0.0040: real time      0.0040
    CHARGE:  cpu time     11.2741: real time     11.2989
    MIXING:  cpu time      0.4043: real time      0.4049
    --------------------------------------------
      LOOP:  cpu time    214.2263: real time    214.6894

 eigenvalue-minimisations  :   213
 total energy-change (2. order) :-0.1576018E+02  (-0.2119318E+01)
 number of electron      48.9999995 magnetization      15.7138843
 augmentation part        1.6661002 magnetization      14.7533973

 Broyden mixing:
  rms(total) = 0.78053E+00    rms(broyden)= 0.78050E+00
  rms(prec ) = 0.78778E+00
  weight for this iteration     100.00

 eigenvalues of (default mixing * dielectric matrix)
  average eigenvalue GAMMA=   1.1375
  0.7930  1.4820

 Free energy of the ion-electron system (eV)
  ---------------------------------------------------
  alpha Z        PSCENC =         0.17771760
  Ewald energy   TEWEN  =      5022.93495130
  -Hartree energ DENC   =     -6381.39114378
  -exchange      EXHF   =         0.00000000
  -V(xc)+E(xc)   XCENC  =       200.30219276
  PAW double counting   =      3004.30290877    -3027.44811577
  entropy T*S    EENTRO =        -0.00000000
  eigenvalues    EBANDS =      -767.51177202
  atomic energy  EATOM  =      1856.58366867
  Solvation  Ecorr_sol  =       -26.23866721
  ---------------------------------------------------
  free energy    TOTEN  =      -118.28825970 eV

  energy without entropy =     -118.28825970  energy(sigma->0) =     -118.28825970


--------------------------------------------------------------------------------------------------------




--------------------------------------- Iteration      1(   4)  ---------------------------------------


    --------------------------------------------
      INIT:  cpu time      0.4282: real time      0.4287
  FINALIZE:  cpu time     49.2127: real time     49.2694
    --------------------------------------------
    POTLOK:  cpu time     62.3310: real time     62.4154
    SETDIJ:  cpu time      0.4540: real time      0.4548
    EDDIAG:  cpu time     19.6868: real time     19.7287
  RMM-DIIS:  cpu time    140.3390: real time    140.6467
    ORTHCH:  cpu time      0.1653: real time      0.1657
       DOS:  cpu time      0.0010: real time      0.0010
    CHARGE:  cpu time     11.0430: real time     11.0646
    MIXING:  cpu time      0.3848: real time      0.3854
    --------------------------------------------
      LOOP:  cpu time    234.4049: real time    234.8624

 eigenvalue-minimisations  :   264
 total energy-change (2. order) :-0.5264571E+01  (-0.9087368E+00)
 number of electron      48.9999994 magnetization      14.9057345
 augmentation part        1.6340371 magnetization      13.9512454

 Broyden mixing:
  rms(total) = 0.45837E+00    rms(broyden)= 0.45833E+00
  rms(prec ) = 0.46257E+00
  weight for this iteration     100.00

 eigenvalues of (default mixing * dielectric matrix)
  average eigenvalue GAMMA=   1.2616
  2.0188  1.0584  0.7076

 Free energy of the ion-electron system (eV)
  ---------------------------------------------------
  alpha Z        PSCENC =         0.17771760
  Ewald energy   TEWEN  =      5022.93495130
  -Hartree energ DENC   =     -6404.90072997
  -exchange      EXHF   =         0.00000000
  -V(xc)+E(xc)   XCENC  =       198.42566928
  PAW double counting   =      3856.91415657    -3880.23574718
  entropy T*S    EENTRO =        -0.00000000
  eigenvalues    EBANDS =      -731.48181107
  atomic energy  EATOM  =      1856.58366867
  Solvation  Ecorr_sol  =       -41.97070582
  ---------------------------------------------------
  free energy    TOTEN  =      -123.55283063 eV

  energy without entropy =     -123.55283063  energy(sigma->0) =     -123.55283063


--------------------------------------------------------------------------------------------------------




--------------------------------------- Iteration      1(   5)  ---------------------------------------


    --------------------------------------------
      INIT:  cpu time      0.4161: real time      0.4164
  FINALIZE:  cpu time     51.7069: real time     51.7683
    --------------------------------------------
    POTLOK:  cpu time     64.8065: real time     64.8978
    SETDIJ:  cpu time      0.4510: real time      0.4519
    EDDIAG:  cpu time     19.6321: real time     19.6745
  RMM-DIIS:  cpu time    151.9776: real time    152.3148
    ORTHCH:  cpu time      0.1645: real time      0.1648
       DOS:  cpu time      0.0024: real time      0.0024
    CHARGE:  cpu time     11.2181: real time     11.2400
    MIXING:  cpu time      0.3974: real time      0.3978
    --------------------------------------------
      LOOP:  cpu time    248.6496: real time    249.1440

 eigenvalue-minimisations  :   290
 total energy-change (2. order) :-0.1171683E+01  (-0.1902466E+00)
 number of electron      48.9999994 magnetization      13.8166038
 augmentation part        1.6249020 magnetization      12.8677966

 Broyden mixing:
  rms(total) = 0.29962E+00    rms(broyden)= 0.29961E+00
  rms(prec ) = 0.30312E+00
  weight for this iteration     100.00

 eigenvalues of (default mixing * dielectric matrix)
  average eigenvalue GAMMA=   1.3518
  2.3941  1.4675  0.8739  0.6716

 Free energy of the ion-electron system (eV)
  ---------------------------------------------------
  alpha Z        PSCENC =         0.17771760
  Ewald energy   TEWEN  =      5022.93495130
  -Hartree energ DENC   =     -6399.42721437
  -exchange      EXHF   =         0.00000000
  -V(xc)+E(xc)   XCENC  =       197.93627898
  PAW double counting   =      4227.33445303    -4250.57653993
  entropy T*S    EENTRO =        -0.00000000
  eigenvalues    EBANDS =      -726.30206040
  atomic energy  EATOM  =      1856.58366867
  Solvation  Ecorr_sol  =       -53.38576870
  ---------------------------------------------------
  free energy    TOTEN  =      -124.72451382 eV

  energy without entropy =     -124.72451382  energy(sigma->0) =     -124.72451382


--------------------------------------------------------------------------------------------------------




--------------------------------------- Iteration      1(   6)  ---------------------------------------


    --------------------------------------------
      INIT:  cpu time      0.4323: real time      0.4322
  FINALIZE:  cpu time     46.5875: real time     46.6229
    --------------------------------------------
    POTLOK:  cpu time     59.6905: real time     59.7721
    SETDIJ:  cpu time      0.4536: real time      0.4545
    EDDIAG:  cpu time     19.6861: real time     19.7281
  RMM-DIIS:  cpu time    148.2869: real time    148.6121
    ORTHCH:  cpu time      0.1551: real time      0.1555
       DOS:  cpu time      0.0093: real time      0.0093
    CHARGE:  cpu time     11.2940: real time     11.3185
    MIXING:  cpu time      0.4405: real time      0.4411
    --------------------------------------------
      LOOP:  cpu time    240.0161: real time    240.4912

 eigenvalue-minimisations  :   284
 total energy-change (2. order) :-0.6431190E+00  (-0.1046083E+00)
 number of electron      48.9999994 magnetization      13.0651063
 augmentation part        1.6212560 magnetization      12.1220680

 Broyden mixing:
  rms(total) = 0.18603E+00    rms(broyden)= 0.18602E+00
  rms(prec ) = 0.18888E+00
  weight for this iteration     100.00

 eigenvalues of (default mixing * dielectric matrix)
  average eigenvalue GAMMA=   1.4029
  2.8287  1.7411  1.0354  0.7748  0.6347

 Free energy of the ion-electron system (eV)
  ---------------------------------------------------
  alpha Z        PSCENC =         0.17771760
  Ewald energy   TEWEN  =      5022.93495130
  -Hartree energ DENC   =     -6384.84860150
  -exchange      EXHF   =         0.00000000
  -V(xc)+E(xc)   XCENC  =       197.59599338
  PAW double counting   =      4479.11084688    -4502.16128660
  entropy T*S    EENTRO =        -0.00000000
  eigenvalues    EBANDS =      -728.75148320
  atomic energy  EATOM  =      1856.58366867
  Solvation  Ecorr_sol  =       -66.00943935
  ---------------------------------------------------
  free energy    TOTEN  =      -125.36763282 eV

  energy without entropy =     -125.36763282  energy(sigma->0) =     -125.36763282


--------------------------------------------------------------------------------------------------------




--------------------------------------- Iteration      1(   7)  ---------------------------------------


    --------------------------------------------
      INIT:  cpu time      0.4319: real time      0.4326
  FINALIZE:  cpu time     49.2436: real time     49.3441
    --------------------------------------------
    POTLOK:  cpu time     62.3996: real time     62.5337
    SETDIJ:  cpu time      0.4530: real time      0.4539
    EDDIAG:  cpu time     19.7283: real time     19.7726
  RMM-DIIS:  cpu time    151.9692: real time    152.3190
    ORTHCH:  cpu time      0.1947: real time      0.1952
       DOS:  cpu time      0.0044: real time      0.0044
    CHARGE:  cpu time     11.2889: real time     11.3104
    MIXING:  cpu time      0.3974: real time      0.3977
    --------------------------------------------
      LOOP:  cpu time    246.4354: real time    246.9869

 eigenvalue-minimisations  :   290
 total energy-change (2. order) : 0.2990733E+00  (-0.4857127E-01)
 number of electron      48.9999994 magnetization      11.9540512
 augmentation part        1.6177019 magnetization      11.0147405

 Broyden mixing:
  rms(total) = 0.14636E+00    rms(broyden)= 0.14635E+00
  rms(prec ) = 0.14884E+00
  weight for this iteration     100.00

 eigenvalues of (default mixing * dielectric matrix)
  average eigenvalue GAMMA=   1.4002
  2.9962  1.9644  1.0338  1.0338  0.7410  0.6321

 Free energy of the ion-electron system (eV)
  ---------------------------------------------------
  alpha Z        PSCENC =         0.17771760
  Ewald energy   TEWEN  =      5022.93495130
  -Hartree energ DENC   =     -6375.42088182
  -exchange      EXHF   =         0.00000000
  -V(xc)+E(xc)   XCENC  =       197.95438342
  PAW double counting   =      4529.95253463    -4552.94571753
  entropy T*S    EENTRO =        -0.00000000
  eigenvalues    EBANDS =      -731.27114250
  atomic energy  EATOM  =      1856.58366867
  Solvation  Ecorr_sol  =       -73.03407325
  ---------------------------------------------------
  free energy    TOTEN  =      -125.06855949 eV

  energy without entropy =     -125.06855949  energy(sigma->0) =     -125.06855949


--------------------------------------------------------------------------------------------------------




--------------------------------------- Iteration      1(   8)  ---------------------------------------


    --------------------------------------------
      INIT:  cpu time      0.4604: real time      0.4613
  FINALIZE:  cpu time     46.5071: real time     46.5866
    --------------------------------------------
    POTLOK:  cpu time     59.6992: real time     59.8074
    SETDIJ:  cpu time      0.4602: real time      0.4610
    EDDIAG:  cpu time     19.5481: real time     19.5905
  RMM-DIIS:  cpu time    150.7005: real time    151.0294
    ORTHCH:  cpu time      0.1662: real time      0.1666
       DOS:  cpu time      0.0024: real time      0.0024
    CHARGE:  cpu time     10.9956: real time     11.0161
    MIXING:  cpu time      0.4295: real time      0.4297
    --------------------------------------------
      LOOP:  cpu time    242.0017: real time    242.5030

 eigenvalue-minimisations  :   286
 total energy-change (2. order) : 0.1252826E+01  (-0.3842888E-01)
 number of electron      48.9999994 magnetization      10.3754280
 augmentation part        1.6141520 magnetization       9.4413781

 Broyden mixing:
  rms(total) = 0.10661E+00    rms(broyden)= 0.10661E+00
  rms(prec ) = 0.10841E+00
  weight for this iteration     100.00

 eigenvalues of (default mixing * dielectric matrix)
  average eigenvalue GAMMA=   1.6021
  3.8797  2.4698  1.5565  1.1314  0.8314  0.7215  0.6243

 Free energy of the ion-electron system (eV)
  ---------------------------------------------------
  alpha Z        PSCENC =         0.17771760
  Ewald energy   TEWEN  =      5022.93495130
  -Hartree energ DENC   =     -6362.29827402
  -exchange      EXHF   =         0.00000000
  -V(xc)+E(xc)   XCENC  =       199.04497974
  PAW double counting   =      4506.63590864    -4529.58652927
  entropy T*S    EENTRO =        -0.00000000
  eigenvalues    EBANDS =      -735.75233090
  atomic energy  EATOM  =      1856.58366867
  Solvation  Ecorr_sol  =       -81.55582569
  ---------------------------------------------------
  free energy    TOTEN  =      -123.81573394 eV

  energy without entropy =     -123.81573394  energy(sigma->0) =     -123.81573394


--------------------------------------------------------------------------------------------------------




--------------------------------------- Iteration      1(   9)  ---------------------------------------


    --------------------------------------------
      INIT:  cpu time      0.4322: real time      0.4325
  FINALIZE:  cpu time     46.5706: real time     46.6103
    --------------------------------------------
    POTLOK:  cpu time     59.7258: real time     59.7914
    SETDIJ:  cpu time      0.4554: real time      0.4562
    EDDIAG:  cpu time     19.7306: real time     19.7718
  RMM-DIIS:  cpu time    150.9307: real time    151.2592
    ORTHCH:  cpu time      0.1657: real time      0.1661
       DOS:  cpu time      0.0015: real time      0.0015
    CHARGE:  cpu time     10.9773: real time     10.9974
    MIXING:  cpu time      0.4260: real time      0.4260
    --------------------------------------------
      LOOP:  cpu time    242.4129: real time    242.8694

 eigenvalue-minimisations  :   286
 total energy-change (2. order) : 0.1286069E+01  (-0.3030938E-01)
 number of electron      48.9999994 magnetization       9.2358616
 augmentation part        1.6130700 magnetization       8.3062560

 Broyden mixing:
  rms(total) = 0.68969E-01    rms(broyden)= 0.68964E-01
  rms(prec ) = 0.70080E-01
  weight for this iteration     100.00

 eigenvalues of (default mixing * dielectric matrix)
  average eigenvalue GAMMA=   1.7242
  5.1341  2.5108  1.8648  1.0820  1.0820  0.7885  0.7108  0.6204

 Free energy of the ion-electron system (eV)
  ---------------------------------------------------
  alpha Z        PSCENC =         0.17771760
  Ewald energy   TEWEN  =      5022.93495130
  -Hartree energ DENC   =     -6346.46293366
  -exchange      EXHF   =         0.00000000
  -V(xc)+E(xc)   XCENC  =       200.17670420
  PAW double counting   =      4487.75079327    -4510.67098032
  entropy T*S    EENTRO =        -0.00000000
  eigenvalues    EBANDS =      -740.43390895
  atomic energy  EATOM  =      1856.58366867
  Solvation  Ecorr_sol  =       -92.58567668
  ---------------------------------------------------
  free energy    TOTEN  =      -122.52966458 eV

  energy without entropy =     -122.52966458  energy(sigma->0) =     -122.52966458


--------------------------------------------------------------------------------------------------------




--------------------------------------- Iteration      1(  10)  ---------------------------------------


    --------------------------------------------
      INIT:  cpu time      0.4227: real time      0.4231
  FINALIZE:  cpu time     51.6275: real time     51.6745
    --------------------------------------------
    POTLOK:  cpu time     64.7466: real time     64.8264
    SETDIJ:  cpu time      0.4507: real time      0.4517
    EDDIAG:  cpu time     19.7520: real time     19.7964
  RMM-DIIS:  cpu time    152.2553: real time    152.5898
    ORTHCH:  cpu time      0.1814: real time      0.1819
       DOS:  cpu time      0.0039: real time      0.0039
    CHARGE:  cpu time     11.2211: real time     11.2449
    MIXING:  cpu time      0.4655: real time      0.4662
    --------------------------------------------
      LOOP:  cpu time    249.0766: real time    249.5612

 eigenvalue-minimisations  :   289
 total energy-change (2. order) : 0.1123429E+01  (-0.1426584E-01)
 number of electron      48.9999994 magnetization       8.3184250
 augmentation part        1.6122485 magnetization       7.3909814

 Broyden mixing:
  rms(total) = 0.48015E-01    rms(broyden)= 0.48013E-01
  rms(prec ) = 0.48493E-01
  weight for this iteration     100.00

 eigenvalues of (default mixing * dielectric matrix)
  average eigenvalue GAMMA=   1.8436
  6.6739  2.5499  2.1019  1.2289  1.0741  0.9121  0.6195  0.7159  0.7159

 Free energy of the ion-electron system (eV)
  ---------------------------------------------------
  alpha Z        PSCENC =         0.17771760
  Ewald energy   TEWEN  =      5022.93495130
  -Hartree energ DENC   =     -6339.21712557
  -exchange      EXHF   =         0.00000000
  -V(xc)+E(xc)   XCENC  =       201.27890796
  PAW double counting   =      4485.31979103    -4508.26021393
  entropy T*S    EENTRO =        -0.00000000
  eigenvalues    EBANDS =      -741.76965441
  atomic energy  EATOM  =      1856.58366867
  Solvation  Ecorr_sol  =       -98.45427812
  ---------------------------------------------------
  free energy    TOTEN  =      -121.40623548 eV

  energy without entropy =     -121.40623548  energy(sigma->0) =     -121.40623548


--------------------------------------------------------------------------------------------------------




--------------------------------------- Iteration      1(  11)  ---------------------------------------


    --------------------------------------------
      INIT:  cpu time      0.4384: real time      0.4391
  FINALIZE:  cpu time     49.2289: real time     49.2857
    --------------------------------------------
    POTLOK:  cpu time     62.3610: real time     62.4468
    SETDIJ:  cpu time      0.4507: real time      0.4517
    EDDIAG:  cpu time     19.5747: real time     19.6161
  RMM-DIIS:  cpu time    152.1582: real time    152.4963
    ORTHCH:  cpu time      0.1688: real time      0.1692
       DOS:  cpu time      0.0031: real time      0.0031
    CHARGE:  cpu time     11.2257: real time     11.2498
    MIXING:  cpu time      0.4555: real time      0.4562
    --------------------------------------------
      LOOP:  cpu time    246.3977: real time    246.8891

 eigenvalue-minimisations  :   290
 total energy-change (2. order) : 0.8543981E+00  (-0.9809281E-02)
 number of electron      48.9999994 magnetization       7.5857335
 augmentation part        1.6119960 magnetization       6.6604086

 Broyden mixing:
  rms(total) = 0.36730E-01    rms(broyden)= 0.36729E-01
  rms(prec ) = 0.36910E-01
  weight for this iteration     100.00

 eigenvalues of (default mixing * dielectric matrix)
  average eigenvalue GAMMA=   1.9315
  7.7588  2.7351  2.1656  1.5339  1.1328  1.1328  0.8109  0.7486  0.6214  0.6750

 Free energy of the ion-electron system (eV)
  ---------------------------------------------------
  alpha Z        PSCENC =         0.17771760
  Ewald energy   TEWEN  =      5022.93495130
  -Hartree energ DENC   =     -6334.13985434
  -exchange      EXHF   =         0.00000000
  -V(xc)+E(xc)   XCENC  =       202.10163494
  PAW double counting   =      4474.50551237    -4497.45610275
  entropy T*S    EENTRO =        -0.00000000
  eigenvalues    EBANDS =      -742.96210801
  atomic energy  EATOM  =      1856.58366867
  Solvation  Ecorr_sol  =      -102.29725717
  ---------------------------------------------------
  free energy    TOTEN  =      -120.55183740 eV

  energy without entropy =     -120.55183740  energy(sigma->0) =     -120.55183740


--------------------------------------------------------------------------------------------------------




--------------------------------------- Iteration      1(  12)  ---------------------------------------


    --------------------------------------------
      INIT:  cpu time      0.4414: real time      0.4419
  FINALIZE:  cpu time     52.0166: real time     52.0640
    --------------------------------------------
    POTLOK:  cpu time     65.1406: real time     65.2199
    SETDIJ:  cpu time      0.4577: real time      0.4587
    EDDIAG:  cpu time     19.6776: real time     19.7207
  RMM-DIIS:  cpu time    152.1411: real time    152.4778
    ORTHCH:  cpu time      0.1643: real time      0.1646
       DOS:  cpu time      0.0064: real time      0.0065
    CHARGE:  cpu time     11.2263: real time     11.2506
    MIXING:  cpu time      0.4700: real time      0.4709
    --------------------------------------------
      LOOP:  cpu time    249.2840: real time    249.7696

 eigenvalue-minimisations  :   290
 total energy-change (2. order) : 0.6880259E+00  (-0.3342748E-02)
 number of electron      48.9999994 magnetization       6.6234280
 augmentation part        1.6118957 magnetization       5.6999641

 Broyden mixing:
  rms(total) = 0.30474E-01    rms(broyden)= 0.30473E-01
  rms(prec ) = 0.30536E-01
  weight for this iteration     100.00

 eigenvalues of (default mixing * dielectric matrix)
  average eigenvalue GAMMA=   1.9536
  8.2881  2.9158  2.3358  1.8178  1.1940  1.1940  0.9563  0.7564  0.7564  0.6228
  0.6524

 Free energy of the ion-electron system (eV)
  ---------------------------------------------------
  alpha Z        PSCENC =         0.17771760
  Ewald energy   TEWEN  =      5022.93495130
  -Hartree energ DENC   =     -6331.46480065
  -exchange      EXHF   =         0.00000000
  -V(xc)+E(xc)   XCENC  =       202.77732244
  PAW double counting   =      4470.67471988    -4493.62922867
  entropy T*S    EENTRO =        -0.00000000
  eigenvalues    EBANDS =      -743.63116142
  atomic energy  EATOM  =      1856.58366867
  Solvation  Ecorr_sol  =      -104.28700062
  ---------------------------------------------------
  free energy    TOTEN  =      -119.86381147 eV

  energy without entropy =     -119.86381147  energy(sigma->0) =     -119.86381147


--------------------------------------------------------------------------------------------------------




--------------------------------------- Iteration      1(  13)  ---------------------------------------


    --------------------------------------------
      INIT:  cpu time      0.4333: real time      0.4335
  FINALIZE:  cpu time     49.1583: real time     49.2383
    --------------------------------------------
    POTLOK:  cpu time     62.2421: real time     62.3552
    SETDIJ:  cpu time      0.4531: real time      0.4539
    EDDIAG:  cpu time     19.7478: real time     19.7903
  RMM-DIIS:  cpu time    151.8579: real time    152.1908
    ORTHCH:  cpu time      0.1716: real time      0.1720
       DOS:  cpu time      0.0095: real time      0.0095
    CHARGE:  cpu time     11.2218: real time     11.2452
    MIXING:  cpu time      0.4991: real time      0.4990
    --------------------------------------------
      LOOP:  cpu time    246.2028: real time    246.7159

 eigenvalue-minimisations  :   290
 total energy-change (2. order) : 0.8074355E+00  ( 0.5027588E-02)
 number of electron      48.9999994 magnetization       5.7506904
 augmentation part        1.6118978 magnetization       4.8284608

 Broyden mixing:
  rms(total) = 0.24073E-01    rms(broyden)= 0.24071E-01
  rms(prec ) = 0.24087E-01
  weight for this iteration     100.00

 eigenvalues of (default mixing * dielectric matrix)
  average eigenvalue GAMMA=   2.0584
  8.9967  3.7644  2.6924  1.9695  1.3126  1.1931  1.1931  0.8364  0.7379  0.7379
  0.6265  0.6405

 Free energy of the ion-electron system (eV)
  ---------------------------------------------------
  alpha Z        PSCENC =         0.17771760
  Ewald energy   TEWEN  =      5022.93495130
  -Hartree energ DENC   =     -6329.53083094
  -exchange      EXHF   =         0.00000000
  -V(xc)+E(xc)   XCENC  =       203.58607298
  PAW double counting   =      4477.28150463    -4500.23763164
  entropy T*S    EENTRO =        -0.00000000
  eigenvalues    EBANDS =      -743.90988341
  atomic energy  EATOM  =      1856.58366867
  Solvation  Ecorr_sol  =      -105.94194512
  ---------------------------------------------------
  free energy    TOTEN  =      -119.05637594 eV

  energy without entropy =     -119.05637594  energy(sigma->0) =     -119.05637594


--------------------------------------------------------------------------------------------------------




--------------------------------------- Iteration      1(  14)  ---------------------------------------


    --------------------------------------------
      INIT:  cpu time      0.4459: real time      0.4461
  FINALIZE:  cpu time     82.7936: real time     82.8490
    --------------------------------------------
    POTLOK:  cpu time     95.9057: real time     95.9849
    SETDIJ:  cpu time      0.4529: real time      0.4538
    EDDIAG:  cpu time     19.7019: real time     19.7433
  RMM-DIIS:  cpu time    152.2387: real time    152.5701
    ORTHCH:  cpu time      0.1714: real time      0.1718
       DOS:  cpu time      0.0008: real time      0.0008
    CHARGE:  cpu time     11.1781: real time     11.1993
    MIXING:  cpu time      0.4987: real time      0.4993
    --------------------------------------------
      LOOP:  cpu time    280.1481: real time    280.6233

 eigenvalue-minimisations  :   290
 total energy-change (2. order) : 0.5785589E+00  ( 0.4527247E-02)
 number of electron      48.9999994 magnetization       5.0414744
 augmentation part        1.6114112 magnetization       4.1197236

 Broyden mixing:
  rms(total) = 0.20113E-01    rms(broyden)= 0.20112E-01
  rms(prec ) = 0.20156E-01
  weight for this iteration     100.00

 eigenvalues of (default mixing * dielectric matrix)
  average eigenvalue GAMMA=   2.1122
  9.6416  4.5975  2.7015  2.2254  1.3285  1.3285  1.1544  0.9171  0.7776  0.7776
  0.6275  0.7214  0.6603

 Free energy of the ion-electron system (eV)
  ---------------------------------------------------
  alpha Z        PSCENC =         0.17771760
  Ewald energy   TEWEN  =      5022.93495130
  -Hartree energ DENC   =     -6328.28524184
  -exchange      EXHF   =         0.00000000
  -V(xc)+E(xc)   XCENC  =       204.16476953
  PAW double counting   =      4484.47396063    -4507.43005147
  entropy T*S    EENTRO =        -0.00000000
  eigenvalues    EBANDS =      -744.04690591
  atomic energy  EATOM  =      1856.58366867
  Solvation  Ecorr_sol  =      -107.05068556
  ---------------------------------------------------
  free energy    TOTEN  =      -118.47781706 eV

  energy without entropy =     -118.47781706  energy(sigma->0) =     -118.47781706


--------------------------------------------------------------------------------------------------------




--------------------------------------- Iteration      1(  15)  ---------------------------------------


    --------------------------------------------
      INIT:  cpu time      0.4275: real time      0.4283
  FINALIZE:  cpu time     49.1973: real time     49.2465
    --------------------------------------------
    POTLOK:  cpu time     62.2867: real time     62.3602
    SETDIJ:  cpu time      0.4547: real time      0.4555
    EDDIAG:  cpu time     19.6500: real time     19.6921
  RMM-DIIS:  cpu time    151.7119: real time    152.0448
    ORTHCH:  cpu time      0.1751: real time      0.1755
       DOS:  cpu time      0.0043: real time      0.0043
    CHARGE:  cpu time     11.1771: real time     11.1971
    MIXING:  cpu time      0.5109: real time      0.5116
    --------------------------------------------
      LOOP:  cpu time    245.9707: real time    246.4412

 eigenvalue-minimisations  :   290
 total energy-change (2. order) : 0.3923685E+00  (-0.2432111E-02)
 number of electron      48.9999994 magnetization       4.3529476
 augmentation part        1.6113525 magnetization       3.4322285

 Broyden mixing:
  rms(total) = 0.17519E-01    rms(broyden)= 0.17518E-01
  rms(prec ) = 0.17547E-01
  weight for this iteration     100.00

 eigenvalues of (default mixing * dielectric matrix)
  average eigenvalue GAMMA=   2.1069
 10.0764  5.0702  2.7725  2.3483  1.3501  1.3501  1.1000  1.1000  0.9528  0.7208
  0.7208  0.6275  0.6536  0.6536

 Free energy of the ion-electron system (eV)
  ---------------------------------------------------
  alpha Z        PSCENC =         0.17771760
  Ewald energy   TEWEN  =      5022.93495130
  -Hartree energ DENC   =     -6327.41056002
  -exchange      EXHF   =         0.00000000
  -V(xc)+E(xc)   XCENC  =       204.53644708
  PAW double counting   =      4486.54330186    -4509.49199382
  entropy T*S    EENTRO =        -0.00000000
  eigenvalues    EBANDS =      -744.45463387
  atomic energy  EATOM  =      1856.58366867
  Solvation  Ecorr_sol  =      -107.50434741
  ---------------------------------------------------
  free energy    TOTEN  =      -118.08544860 eV

  energy without entropy =     -118.08544860  energy(sigma->0) =     -118.08544860


--------------------------------------------------------------------------------------------------------




--------------------------------------- Iteration      1(  16)  ---------------------------------------


    --------------------------------------------
      INIT:  cpu time      0.4512: real time      0.4512
  FINALIZE:  cpu time     49.3262: real time     49.3607
    --------------------------------------------
    POTLOK:  cpu time     62.4429: real time     62.5051
    SETDIJ:  cpu time      0.4497: real time      0.4506
    EDDIAG:  cpu time     19.5902: real time     19.6335
  RMM-DIIS:  cpu time    152.0020: real time    152.3356
    ORTHCH:  cpu time      0.1887: real time      0.1892
       DOS:  cpu time      0.0018: real time      0.0018
    CHARGE:  cpu time     11.1250: real time     11.1495
    MIXING:  cpu time      0.5340: real time      0.5348
    --------------------------------------------
      LOOP:  cpu time    246.3344: real time    246.8000

 eigenvalue-minimisations  :   290
 total energy-change (2. order) : 0.3984612E+00  (-0.1665290E-02)
 number of electron      48.9999994 magnetization       3.5636480
 augmentation part        1.6110832 magnetization       2.6437990

 Broyden mixing:
  rms(total) = 0.14784E-01    rms(broyden)= 0.14783E-01
  rms(prec ) = 0.14820E-01
  weight for this iteration     100.00

 eigenvalues of (default mixing * dielectric matrix)
  average eigenvalue GAMMA=   2.1784
 10.7218  5.9021  2.8538  2.5232  1.4915  1.4915  1.2341  1.2341  1.0058  0.8376
  0.7125  0.7125  0.6297  0.6631  0.6631

 Free energy of the ion-electron system (eV)
  ---------------------------------------------------
  alpha Z        PSCENC =         0.17771760
  Ewald energy   TEWEN  =      5022.93495130
  -Hartree energ DENC   =     -6327.00704052
  -exchange      EXHF   =         0.00000000
  -V(xc)+E(xc)   XCENC  =       204.92274648
  PAW double counting   =      4489.57371132    -4512.51719834
  entropy T*S    EENTRO =        -0.00000000
  eigenvalues    EBANDS =      -744.69700607
  atomic energy  EATOM  =      1856.58366867
  Solvation  Ecorr_sol  =      -107.65853783
  ---------------------------------------------------
  free energy    TOTEN  =      -117.68698740 eV

  energy without entropy =     -117.68698740  energy(sigma->0) =     -117.68698740


--------------------------------------------------------------------------------------------------------




--------------------------------------- Iteration      1(  17)  ---------------------------------------


    --------------------------------------------
      INIT:  cpu time      0.4381: real time      0.4387
  FINALIZE:  cpu time     54.3060: real time     54.3923
    --------------------------------------------
    POTLOK:  cpu time     67.4818: real time     67.6021
    SETDIJ:  cpu time      0.4497: real time      0.4506
    EDDIAG:  cpu time     19.6312: real time     19.6735
  RMM-DIIS:  cpu time    152.0118: real time    152.3456
    ORTHCH:  cpu time      0.1735: real time      0.1740
       DOS:  cpu time      0.0026: real time      0.0026
    CHARGE:  cpu time     11.2075: real time     11.2318
    MIXING:  cpu time      0.5474: real time      0.5482
    --------------------------------------------
      LOOP:  cpu time    251.5054: real time    252.0283

 eigenvalue-minimisations  :   290
 total energy-change (2. order) : 0.4320127E+00  (-0.2371175E-04)
 number of electron      48.9999994 magnetization       2.3945030
 augmentation part        1.6108200 magnetization       1.4752503

 Broyden mixing:
  rms(total) = 0.11892E-01    rms(broyden)= 0.11891E-01
  rms(prec ) = 0.11938E-01
  weight for this iteration     100.00

 eigenvalues of (default mixing * dielectric matrix)
  average eigenvalue GAMMA=   2.2867
 11.4961  6.7340  3.2788  2.6240  2.2846  1.3620  1.3620  1.1541  1.1541  0.9774
  0.7358  0.7358  0.7330  0.6268  0.6647  0.6647

 Free energy of the ion-electron system (eV)
  ---------------------------------------------------
  alpha Z        PSCENC =         0.17771760
  Ewald energy   TEWEN  =      5022.93495130
  -Hartree energ DENC   =     -6326.97724695
  -exchange      EXHF   =         0.00000000
  -V(xc)+E(xc)   XCENC  =       205.35236959
  PAW double counting   =      4490.62610605    -4513.56924563
  entropy T*S    EENTRO =        -0.00000000
  eigenvalues    EBANDS =      -744.76738588
  atomic energy  EATOM  =      1856.58366867
  Solvation  Ecorr_sol  =      -107.61590946
  ---------------------------------------------------
  free energy    TOTEN  =      -117.25497471 eV

  energy without entropy =     -117.25497471  energy(sigma->0) =     -117.25497471


--------------------------------------------------------------------------------------------------------




--------------------------------------- Iteration      1(  18)  ---------------------------------------


    --------------------------------------------
      INIT:  cpu time      0.4386: real time      0.4395
  FINALIZE:  cpu time     48.7888: real time     48.8679
    --------------------------------------------
    POTLOK:  cpu time     61.9772: real time     62.0914
    SETDIJ:  cpu time      0.4569: real time      0.4578
    EDDIAG:  cpu time     19.5404: real time     19.5810
  RMM-DIIS:  cpu time    151.8536: real time    152.1918
    ORTHCH:  cpu time      0.1697: real time      0.1702
       DOS:  cpu time      0.0020: real time      0.0020
    CHARGE:  cpu time     11.1969: real time     11.2209
    MIXING:  cpu time      0.5832: real time      0.5842
    --------------------------------------------
      LOOP:  cpu time    245.7799: real time    246.2993

 eigenvalue-minimisations  :   290
 total energy-change (2. order) : 0.5692931E+00  ( 0.1241903E-02)
 number of electron      48.9999994 magnetization       1.6551037
 augmentation part        1.6105351 magnetization       0.7360793

 Broyden mixing:
  rms(total) = 0.75645E-02    rms(broyden)= 0.75639E-02
  rms(prec ) = 0.76050E-02
  weight for this iteration     100.00

 eigenvalues of (default mixing * dielectric matrix)
  average eigenvalue GAMMA=   2.4901
 13.6230  8.0622  4.3511  2.6334  2.3658  1.4247  1.4247  1.1550  1.1550  1.1274
  0.8852  0.7537  0.7537  0.6945  0.6244  0.6492  0.6492

 Free energy of the ion-electron system (eV)
  ---------------------------------------------------
  alpha Z        PSCENC =         0.17771760
[...]

 Broyden mixing:
  rms(total) = 0.71097E-03    rms(broyden)= 0.71017E-03
  rms(prec ) = 0.72985E-03
  weight for this iteration     100.00

 Free energy of the ion-electron system (eV)
  ---------------------------------------------------
  alpha Z        PSCENC =         0.17771760
  Ewald energy   TEWEN  =      5025.44095740
  -Hartree energ DENC   =     -6330.49706392
  -exchange      EXHF   =         0.00000000
  -V(xc)+E(xc)   XCENC  =       206.53881278
  PAW double counting   =      4504.34485979    -4527.29103834
  entropy T*S    EENTRO =        -0.00000000
  eigenvalues    EBANDS =      -745.01781007
  atomic energy  EATOM  =      1856.58366867
  Solvation  Ecorr_sol  =      -106.40190288
  ---------------------------------------------------
  free energy    TOTEN  =      -116.12179898 eV

  energy without entropy =     -116.12179898  energy(sigma->0) =     -116.12179898


--------------------------------------------------------------------------------------------------------




--------------------------------------- Iteration     17(   2)  ---------------------------------------


    --------------------------------------------
      INIT:  cpu time      0.4193: real time      0.4193
  FINALIZE:  cpu time     48.3836: real time     48.4223
    --------------------------------------------
    POTLOK:  cpu time     61.5345: real time     61.5972
    SETDIJ:  cpu time      0.4513: real time      0.4521
    EDDIAG:  cpu time     19.2811: real time     19.3267
  RMM-DIIS:  cpu time     93.6963: real time     93.9106
    ORTHCH:  cpu time      0.1624: real time      0.1628
       DOS:  cpu time      0.0033: real time      0.0034
    --------------------------------------------
      LOOP:  cpu time    175.1288: real time    175.4527

 eigenvalue-minimisations  :   145
 total energy-change (2. order) : 0.3529584E-05  (-0.8303418E-06)
 number of electron      48.9999994 magnetization       0.9997996
 augmentation part        1.6114285 magnetization       0.0855327

 Free energy of the ion-electron system (eV)
  ---------------------------------------------------
  alpha Z        PSCENC =         0.17771760
  Ewald energy   TEWEN  =      5025.44095740
  -Hartree energ DENC   =     -6330.49587038
  -exchange      EXHF   =         0.00000000
  -V(xc)+E(xc)   XCENC  =       206.53925949
  PAW double counting   =      4504.46760419    -4527.41387602
  entropy T*S    EENTRO =        -0.00000000
  eigenvalues    EBANDS =      -745.01862704
  atomic energy  EATOM  =      1856.58366867
  Solvation  Ecorr_sol  =      -106.40262936
  ---------------------------------------------------
  free energy    TOTEN  =      -116.12179545 eV

  energy without entropy =     -116.12179545  energy(sigma->0) =     -116.12179545


--------------------------------------------------------------------------------------------------------




 average (electrostatic) potential at core
  the test charge radii are     0.6991  0.7215  0.5201
  (the norm of the test charge is              1.0000)
       1 -62.9945       2 -64.9239       3 -62.9230       4 -62.9874       5 -63.7931
       6 -63.1402       7 -63.0242       8 -62.9334       9 -63.1889      10 -87.5716
      11 -46.0565      12 -47.0679      13 -45.9725      14 -46.0116      15 -45.6283
      16 -45.7803      17 -45.7805      18 -46.2843
 
 
 
 E-fermi :  -7.3188     XC(G=0):  -0.0341     alpha+bet : -0.0186

 Fermi energy:        -7.3187613691

 spin component 1

 k-point     1 :       0.0000    0.0000    0.0000
  band No.  band energies     occupation 
      1     -30.7779      1.00000
      2     -24.7045      1.00000
      3     -22.5801      1.00000
      4     -21.7964      1.00000
      5     -21.1300      1.00000
      6     -20.0242      1.00000
      7     -17.9870      1.00000
      8     -17.5501      1.00000
      9     -15.9815      1.00000
     10     -15.3598      1.00000
     11     -14.5022      1.00000
     12     -14.4288      1.00000
     13     -13.9188      1.00000
     14     -13.0502      1.00000
     15     -12.6886      1.00000
     16     -12.2065      1.00000
     17     -11.9062      1.00000
     18     -11.7712      1.00000
     19     -10.9170      1.00000
     20     -10.8433      1.00000
     21      -9.8988      1.00000
     22      -9.3464      1.00000
     23      -8.6832      1.00000
     24      -8.6468      1.00000
     25      -7.6197      1.00000
     26      -3.6319      0.00000
     27      -2.8504      0.00000
     28      -1.2329      0.00000
     29      -0.4391      0.00000
     30      -0.2289      0.00000
     31      -0.0084      0.00000
     32       0.0264      0.00000
     33       0.0846      0.00000
     34       0.1047      0.00000
     35       0.1077      0.00000
     36       0.1102      0.00000
     37       0.1124      0.00000
     38       0.1400      0.00000
     39       0.1563      0.00000
     40       0.1896      0.00000
     41       0.1908      0.00000
     42       0.2015      0.00000
     43       0.2025      0.00000
     44       0.2026      0.00000
     45       0.2037      0.00000
     46       0.2052      0.00000
     47       0.2053      0.00000
     48       0.2066      0.00000
 Fermi energy:        -7.3187613691

 spin component 2

 k-point     1 :       0.0000    0.0000    0.0000
  band No.  band energies     occupation 
      1     -30.5408      1.00000
      2     -24.5170      1.00000
      3     -22.3559      1.00000
      4     -21.7408      1.00000
      5     -20.9000      1.00000
      6     -19.7970      1.00000
      7     -17.8673      1.00000
      8     -17.4473      1.00000
      9     -15.9069      1.00000
     10     -15.2716      1.00000
     11     -14.4377      1.00000
     12     -14.3694      1.00000
     13     -13.5268      1.00000
     14     -12.9858      1.00000
     15     -12.6747      1.00000
     16     -12.1651      1.00000
     17     -11.7520      1.00000
     18     -11.5011      1.00000
     19     -10.8820      1.00000
     20     -10.3699      1.00000
     21      -9.8156      1.00000
     22      -8.7771      1.00000
     23      -8.6079      1.00000
     24      -8.4895      1.00000
     25      -6.5341      0.00000
     26      -2.8649      0.00000
     27      -2.5805      0.00000
     28      -1.2130      0.00000
     29      -0.2100      0.00000
     30       0.0192      0.00000
     31       0.0293      0.00000
     32       0.0892      0.00000
     33       0.0941      0.00000
     34       0.1004      0.00000
     35       0.1036      0.00000
     36       0.1049      0.00000
     37       0.1078      0.00000
     38       0.1333      0.00000
     39       0.1584      0.00000
     40       0.1852      0.00000
     41       0.1885      0.00000
     42       0.1954      0.00000
     43       0.1964      0.00000
     44       0.1969      0.00000
     45       0.1990      0.00000
     46       0.1994      0.00000
     47       0.1996      0.00000
     48       0.2021      0.00000


--------------------------------------------------------------------------------------------------------


 soft charge-density along one line, spin component           1
         0         1         2         3         4         5         6         7         8         9
 total charge-density along one line
 
 soft charge-density along one line, spin component           2
         0         1         2         3         4         5         6         7         8         9
 total charge-density along one line
 
 pseudopotential strength for first ion, spin component:           1
 10.590  14.085   0.005   0.000  -0.003  -0.013  -0.000   0.002
 14.085  18.733   0.006   0.000  -0.003  -0.017  -0.000   0.003
  0.005   0.006  -4.475  -0.000  -0.002   8.682   0.000   0.003
  0.000   0.000  -0.000  -4.427  -0.000   0.000   8.601  -0.000
 -0.003  -0.003  -0.002  -0.000  -4.488   0.003  -0.000   8.703
 -0.013  -0.017   8.682   0.000   0.003 -19.119  -0.000  -0.003
 -0.000  -0.000   0.000   8.601  -0.000  -0.000 -18.997   0.000
  0.002   0.003   0.003  -0.000   8.703  -0.003   0.000 -19.150
 pseudopotential strength for first ion, spin component:           2
 10.566  14.053   0.005   0.000  -0.003  -0.014  -0.000   0.003
 14.053  18.688   0.007   0.000  -0.004  -0.018  -0.000   0.003
  0.005   0.007  -4.472  -0.000  -0.001   8.676   0.000   0.002
  0.000   0.000  -0.000  -4.413   0.000   0.000   8.594  -0.000
 -0.003  -0.004  -0.001   0.000  -4.485   0.002  -0.000   8.696
 -0.014  -0.018   8.676   0.000   0.002 -19.103  -0.000  -0.003
 -0.000  -0.000   0.000   8.594  -0.000  -0.000 -19.009  -0.000
  0.003   0.003   0.002  -0.000   8.696  -0.003  -0.000 -19.133
 total augmentation occupancy for first ion, spin component:           1
  8.985  -4.081   0.207  -0.000   0.244   0.047  -0.000   0.044
 -4.081   1.897  -0.168   0.000  -0.148  -0.031   0.000  -0.025
  0.207  -0.168   1.798   0.000  -0.005   0.172   0.000  -0.008
 -0.000   0.000   0.000   1.184   0.000   0.000   0.077   0.000
  0.244  -0.148  -0.005   0.000   1.916  -0.008   0.000   0.186
  0.047  -0.031   0.172   0.000  -0.008   0.018   0.000  -0.002
 -0.000   0.000   0.000   0.077   0.000   0.000   0.005   0.000
  0.044  -0.025  -0.008   0.000   0.186  -0.002   0.000   0.019
 total augmentation occupancy for first ion, spin component:           2
  0.063  -0.034   0.008   0.000  -0.011   0.002   0.000  -0.002
 -0.034   0.019  -0.008   0.000   0.010  -0.001   0.000   0.001
  0.008  -0.008  -0.003  -0.000   0.002   0.000  -0.000  -0.000
  0.000   0.000  -0.000   0.094   0.000  -0.000   0.003   0.000
 -0.011   0.010   0.002   0.000   0.001  -0.000   0.000   0.000
  0.002  -0.001   0.000  -0.000  -0.000   0.000   0.000  -0.000
  0.000   0.000  -0.000   0.003   0.000   0.000   0.000  -0.000
 -0.002   0.001  -0.000   0.000   0.000  -0.000  -0.000   0.000


------------------------ aborting loop because EDIFF is reached ----------------------------------------


    CHARGE:  cpu time      2.2037: real time      2.2085
    FORLOC:  cpu time      0.5043: real time      0.5051
    FORNL :  cpu time      7.6489: real time      7.6658
    STRESS:  cpu time    199.2590: real time    199.6878
    FORCOR:  cpu time     10.1105: real time     10.1315
    FORHAR:  cpu time      1.2496: real time      1.2523
    MIXING:  cpu time      0.1815: real time      0.1818
    OFIELD:  cpu time      0.0000: real time      0.0000

 ---------------------------------------------------------------------------------------------

         DFTD3 V3.0 Rev 1        
 Edisp (eV)   -0.15012

 E6    (eV) :    -0.1171
 E8    (eV) :    -0.0330
 % E8        : 21.98
    FORVDW:  cpu time      0.0057: real time      0.0057

  FORCE on cell =-STRESS in cart. coord.  units (eV):
  Direction    XX          YY          ZZ          XY          YZ          ZX
  --------------------------------------------------------------------------------------
  Alpha Z     0.17772     0.17772     0.17772
  Ewald    3764.76032  1574.57818  -313.89741    79.34288    -0.05373     0.13713
  Hartree  3618.44926  1998.29733   820.20624    66.60277    -0.03956     0.06433
  E(xc)    -188.15402  -187.83468  -190.06335    -0.22298     0.00003     0.00005
  Local   -7828.66396 -4084.77054 -1072.27794  -145.07754     0.09273    -0.18933
  n-local   -70.21790   -73.00084   -66.44751     1.82272    -0.00007    -0.00133
  augment     2.61783     4.44801     4.88112    -0.40273     0.00010     0.00001
  Kinetic   700.93363   767.73101   817.02648    -2.10819     0.00100    -0.01177
  Fock        0.00000     0.00000     0.00000     0.00000     0.00000     0.00000
  vdW        -0.08133    -0.02076    -0.00084    -0.00460     0.00000    -0.00000
  -------------------------------------------------------------------------------------
  Total      -0.17844    -0.39456    -0.39549    -0.04768     0.00049    -0.00093
  in kB      -0.00447    -0.00988    -0.00990    -0.00119     0.00001    -0.00002
  external pressure =       -0.01 kB  Pullay stress =        0.00 kB


 VOLUME and BASIS-vectors are now :
 -----------------------------------------------------------------------------
  energy-cutoff  :      500.00
  volume of cell :    64000.00
      direct lattice vectors                 reciprocal lattice vectors
    40.000000000  0.000000000  0.000000000     0.025000000  0.000000000  0.000000000
     0.000000000 40.000000000  0.000000000     0.000000000  0.025000000  0.000000000
     0.000000000  0.000000000 40.000000000     0.000000000  0.000000000  0.025000000

  length of vectors
    40.000000000 40.000000000 40.000000000     0.025000000  0.025000000  0.025000000


 FORCES acting on ions
    electron-ion (+dipol)            ewald-force                    non-local-force                 convergence-correction
 -----------------------------------------------------------------------------------------------
   0.512E+02 0.178E+03 0.310E-02   -.517E+02 -.181E+03 -.397E-02   0.497E+00 0.310E+01 0.329E-03   -.274E-03 0.101E-02 0.415E-04
   -.362E+01 -.131E+02 -.129E-01   0.111E+02 0.121E+02 0.126E-01   -.745E+01 0.999E+00 -.597E-04   0.462E-03 0.848E-03 0.631E-04
   0.344E+02 -.200E+03 0.211E-01   -.347E+02 0.204E+03 -.218E-01   0.291E+00 -.337E+01 0.576E-03   -.103E-02 -.110E-02 0.353E-04
   -.104E+03 -.174E+03 0.263E-01   0.106E+03 0.177E+03 -.266E-01   -.115E+01 -.275E+01 0.292E-03   -.396E-02 0.344E-03 0.165E-04
   -.999E+02 0.573E+01 0.286E-01   0.970E+02 -.527E+01 -.291E-01   0.288E+01 -.462E+00 0.647E-03   -.381E-02 -.487E-03 -.375E-04
   -.783E+02 0.182E+03 -.172E-02   0.790E+02 -.185E+03 0.133E-02   -.714E+00 0.278E+01 0.102E-02   -.298E-02 0.727E-03 -.122E-03
   -.101E+03 0.780E+01 0.251E-01   0.996E+02 -.771E+01 -.266E-01   0.123E+01 -.875E-01 0.194E-02   -.103E-01 0.814E-03 -.223E-04
   -.219E+03 0.189E+02 -.694E-01   0.224E+03 -.192E+02 0.719E-01   -.433E+01 0.364E+00 -.219E-02   0.773E-02 -.675E-03 -.122E-04
   0.202E+03 0.109E+03 -.314E-01   -.208E+03 -.115E+03 0.330E-01   0.621E+01 0.607E+01 -.126E-02   0.563E-04 0.434E-03 -.134E-03
   0.248E+03 -.179E+03 0.142E-01   -.273E+03 0.219E+03 -.186E-01   0.250E+02 -.396E+02 0.496E-02   0.922E-04 0.229E-02 -.218E-03
   -.332E+02 0.829E+02 0.204E-01   0.359E+02 -.886E+02 -.215E-01   -.273E+01 0.567E+01 0.176E-02   -.679E-03 0.186E-03 -.283E-04
   -.736E+02 0.660E+01 -.252E-01   0.801E+02 -.721E+01 0.277E-01   -.656E+01 0.606E+00 -.246E-02   0.107E-02 -.102E-03 -.578E-08
   -.458E+02 -.768E+02 0.512E-02   0.494E+02 0.819E+02 -.527E-02   -.366E+01 -.511E+01 0.114E-03   -.754E-03 0.797E-04 0.262E-05
   0.281E+02 -.873E+02 -.394E-03   -.310E+02 0.929E+02 0.531E-03   0.283E+01 -.559E+01 -.294E-03   0.721E-04 -.550E-03 0.325E-05
   0.857E+02 -.163E+02 -.208E-01   -.914E+02 0.190E+02 0.225E-01   0.572E+01 -.265E+01 -.159E-02   0.249E-03 -.371E-04 -.137E-04
   0.279E+02 0.512E+02 0.591E+02   -.272E+02 -.546E+02 -.642E+02   -.628E+00 0.340E+01 0.505E+01   0.543E-04 0.105E-03 0.866E-04
   0.278E+02 0.512E+02 -.591E+02   -.272E+02 -.546E+02 0.642E+02   -.631E+00 0.340E+01 -.505E+01   0.607E-04 0.821E-04 -.811E-04
   0.329E+02 0.823E+02 0.170E-01   -.364E+02 -.875E+02 -.180E-01   0.348E+01 0.519E+01 0.126E-02   0.349E-04 0.483E-03 0.532E-05
 -----------------------------------------------------------------------------------------------
   -.203E+02 0.281E+02 -.344E-02   -.114E-12 -.995E-13 -.107E-13   0.203E+02 -.281E+02 0.570E-02   -.139E-01 0.444E-02 -.414E-03
 
 
 POSITION                                       TOTAL-FORCE (eV/Angst)
 -----------------------------------------------------------------------------------
     19.54094     19.07576     19.99983        -0.000826     -0.003732     -0.000594
     18.95794     20.37059     19.99991        -0.000597     -0.001800     -0.000387
     19.76770     21.54289     19.99978        -0.001287      0.000378     -0.000135
     21.12348     21.42486     19.99974         0.001969      0.001012     -0.000077
     21.72477     20.13137     19.99982         0.008176     -0.000021      0.000042
     20.90052     18.96507     19.99982         0.000705     -0.001783      0.000388
     23.10498     20.00247     20.00010        -0.017112      0.000582      0.000311
     24.31636     19.89299     20.00060         0.017906     -0.001950      0.000147
     16.72223     19.48641     20.00016        -0.001701      0.001879      0.000040
     17.66359     20.59156     19.99993        -0.000460     -0.002530      0.000230
     21.37412     17.99219     19.99954         0.003297     -0.001818      0.000463
     25.37743     19.79494     20.00099        -0.007062      0.000732     -0.000133
     21.75861     22.30041     19.99972         0.005659     -0.001529     -0.000132
     19.27382     22.50549     19.99982        -0.007299      0.000740     -0.000257
     15.74598     19.95640     20.00043        -0.000315      0.004343     -0.000058
     16.86247     18.88825     19.10072         0.001291      0.004758     -0.000178
     16.86297     18.88815     20.89945         0.001278      0.004773      0.000137
     18.92202     18.19021     19.99962        -0.003623     -0.004031      0.000192
 -----------------------------------------------------------------------------------
    total drift:                               -0.034975      0.025615      0.001853


--------------------------------------------------------------------------------------------------------



  FREE ENERGIE OF THE ION-ELECTRON SYSTEM (eV)
  ---------------------------------------------------
  free  energy   TOTEN  =      -116.27191623 eV

  energy  without entropy=     -116.27191623  energy(sigma->0) =     -116.27191623
 
 d Force = 0.4512609E-05[-0.160E-05, 0.106E-04]  d Energy = 0.4984680E-06 0.401E-05
 d Force = 0.1300946E-01[ 0.130E-01, 0.130E-01]  d Ewald  = 0.1300946E-01-0.137E-08


--------------------------------------------------------------------------------------------------------


    --------------------------------------------
      INIT:  cpu time      0.4205: real time      0.4212
  FINALIZE:  cpu time     50.9963: real time     51.0492
    --------------------------------------------
    POTLOK:  cpu time     64.6000: real time     64.6771


--------------------------------------------------------------------------------------------------------


 Conjugate gradient step on ions:
 trial-energy change:   -0.000000  1 .order   -0.000005   -0.000011    0.000002
  (g-gl).g =-0.144E-05      g.g   = 0.460E-04  gl.gl    = 0.103E-03
 g(Force)  = 0.460E-04   g(Stress)= 0.000E+00 ortho     = 0.471E-05
 gamma     =  -0.01392
 trial     =   0.23138
 opt step  =   0.20112  (harmonic =   0.20112) maximal distance =0.00020444
 next E    =  -116.271920   (d E  =  -0.00000)


--------------------------------------------------------------------------------------------------------


  
 reached required accuracy - stopping structural energy minimisation
 writing wavefunctions
     LOOP+:  cpu time    680.5541: real time    683.1980
    4ORBIT:  cpu time      0.0000: real time      0.0000

 total amount of memory used by VASP MPI-rank0   892209. kBytes
=======================================================================

   base      :      30000. kBytes
   nonlr-proj:       1138. kBytes
   fftplans  :     167689. kBytes
   grid      :     662171. kBytes
   one-center:         12. kBytes
   wavefun   :      31199. kBytes
 
  
  
 General timing and accounting informations for this job:
 ========================================================
  
                  Total CPU time used (sec):    39634.766
                            User time (sec):    37819.350
                          System time (sec):     1815.415
                         Elapsed time (sec):    39709.551
  
                   Maximum memory used (kb):     2513028.
                   Average memory used (kb):          N/A
  
                          Minor page faults:    262708795
                          Major page faults:            2
                 Voluntary context switches:      1099561
