
                                 *****************
                                 * O   R   C   A *
                                 *****************

                                            #,                                       
                                            ###                                      
                                            ####                                     
                                            #####                                    
                                            ######                                   
                                           ########,                                 
                                     ,,################,,,,,                         
                               ,,#################################,,                 
                          ,,##########################################,,             
                       ,#########################################, ''#####,          
                    ,#############################################,,   '####,        
                  ,##################################################,,,,####,       
                ,###########''''           ''''###############################       
              ,#####''   ,,,,##########,,,,          '''####'''          '####       
            ,##' ,,,,###########################,,,                        '##       
           ' ,,###''''                  '''############,,,                           
         ,,##''                                '''############,,,,        ,,,,,,###''
      ,#''                                            '''#######################'''  
     '                                                          ''''####''''         
             ,#######,   #######,   ,#######,      ##                                
            ,#'     '#,  ##    ##  ,#'     '#,    #''#        ,####,   ,####,        
            ##       ##  ##   ,#'  ##            #'  '#       #'       #'  '#        
            ##       ##  #######   ##           ,######,      #####,   #    #        
            '#,     ,#'  ##    ##  '#,     ,#' ,#      #,     #,   #   #,  ,#        
             '#######'   ##     ##  '#######'  #'      '#     '####' # '####'        



                #########################################################
                #                        -***-                          #
                #          Department of theory and spectroscopy        #
                #                                                       #
                #                      Frank Neese                      #
                #                                                       #
                #     Directorship, Architecture, Infrastructure        #
                #                    SHARK, DRIVERS                     #
                #        Core code/Algorithms in most modules           #
                #                                                       #
                #        Max Planck Institute fuer Kohlenforschung      #
                #                Kaiser Wilhelm Platz 1                 #
                #                 D-45470 Muelheim/Ruhr                 #
                #                      Germany                          #
                #                                                       #
                #                  All rights reserved                  #
                #                        -***-                          #
                #########################################################


                         Program Version 6.0.0  -   RELEASE  -


 With contributions from (in alphabetic order):
   Daniel Aravena         : Magnetic Suceptibility
   Michael Atanasov       : Ab Initio Ligand Field Theory (pilot matlab implementation)
   Alexander A. Auer      : GIAO ZORA, VPT2 properties, NMR spectrum
   Ute Becker             : All parallelization in ORCA, NUMFREQ, NUMCALC
   Giovanni Bistoni       : ED, misc. LED, open-shell LED, HFLD
   Martin Brehm           : Molecular dynamics
   Dmytro Bykov           : pre 5.0 version of the SCF Hessian
   Marcos Casanova-Páez   : Triplet and SCS-CIS(D). UHF-(DLPNO)-IP/EA/STEOM-CCSD. UHF-CVS-IP/STEOM-CCSD
   Vijay G. Chilkuri      : MRCI spin determinant printing, contributions to CSF-ICE
   Pauline Colinet        : FMM embedding
   Dipayan Datta          : RHF DLPNO-CCSD density
   Achintya Kumar Dutta   : EOM-CC, STEOM-CC
   Nicolas Foglia         : Exact transition moments, OPA infrastructure, MCD improvements
   Dmitry Ganyushin       : Spin-Orbit,Spin-Spin,Magnetic field MRCI
   Miquel Garcia          : C-PCM and meta-GGA Hessian, CCSD/C-PCM, Gaussian charge scheme
   Tiago L. C. Gouveia    : GS-ROHF, GS-ROCIS
   Yang Guo               : DLPNO-NEVPT2, F12-NEVPT2, CIM, IAO-localization
   Andreas Hansen         : Spin unrestricted coupled pair/coupled cluster methods
   Ingolf Harden          : AUTO-CI MPn and infrastructure 
   Benjamin Helmich-Paris : MC-RPA, TRAH-(SCF,CASSCF), AVAS, COSX integrals, SCF dyn. polar.
   Lee Huntington         : MR-EOM, pCC
   Robert Izsak           : Overlap fitted RIJCOSX, COSX-SCS-MP3, EOM
   Riya Kayal             : Wick's Theorem for AUTO-CI, AUTO-CI UHF-CCSDT
   Emily Kempfer          : AUTO-CI, RHF CISDT and CCSDT
   Christian Kollmar      : KDIIS, OOCD, Brueckner-CCSD(T), CCSD density, CASPT2, CASPT2-K, improved NEVPT2
   Axel Koslowski         : Symmetry handling
   Simone Kossmann        : Meta GGA functionals, TD-DFT gradient, OOMP2, (MP2 Hessian; deprecated post 5.0)
   Lucas Lang             : DCDCAS
   Marvin Lechner         : AUTO-CI (C++ implementation), FIC-MRCC
   Spencer Leger          : CASSCF response
   Dagmar Lenk            : GEPOL surface, SMD, ORCA-2-JSON
   Dimitrios Liakos       : Extrapolation schemes; Compound Job, initial MDCI parallelization
   Dimitrios Manganas     : Further ROCIS development; embedding schemes. LFT, Crystal Embedding
   Dimitrios Pantazis     : SARC Basis sets
   Anastasios Papadopoulos: AUTO-CI, single reference methods and gradients
   Taras Petrenko         : pre 6.0 DFT Hessian and TD-DFT gradient, (ASA, deprecated), ECA, 1-Electron XAS/XES, NRVS
   Peter Pinski           : DLPNO-MP2, DLPNO-MP2 Gradient
   Christoph Reimann      : Effective Core Potentials
   Marius Retegan         : Local ZFS, SOC
   Christoph Riplinger    : Optimizer, TS searches, QM/MM, DLPNO-CCSD(T), (RO)-DLPNO pert. Triples
   Michael Roemelt        : Original ROCIS implementation
   Masaaki Saitow         : Open-shell DLPNO-CCSD energy and density
   Barbara Sandhoefer     : DKH picture change effects
   Kantharuban Sivalingam : CASSCF convergence/infrastructure, NEVPT2 and variants, FIC-MRCI
   Bernardo de Souza      : ESD, SOC TD-DFT
   Georgi Stoychev        : AutoAux, RI-MP2 NMR, DLPNO-MP2 response, X2C
   Van Anh Tran           : RI-MP2 g-tensors
   Willem Van den Heuvel  : Paramagnetic NMR
   Zikuan Wang            : NOTCH, Electric field optimization 
   Frank Wennmohs         : Technical directorship and infrastructure
   Hang Xu                : AUTO-CI-Response properties 


 We gratefully acknowledge several colleagues who have allowed us to
 interface, adapt or use parts of their codes:
   Stefan Grimme, W. Hujo, H. Kruse, P. Pracht,  : VdW corrections, initial TS optimization,
                  C. Bannwarth, S. Ehlert,         DFT functionals, gCP, sTDA/sTD-DF
                  L. Wittmann, M. Mueller
   Ed Valeev, F. Pavosevic, A. Kumar             : LibInt (2-el integral package), F12 methods
   Garnet Chan, S. Sharma, J. Yang, R. Olivares  : DMRG
   Ulf Ekstrom                                   : XCFun DFT Library
   Mihaly Kallay                                 : mrcc  (arbitrary order and MRCC methods)
   Frank Weinhold                                : gennbo (NPA and NBO analysis)
   Simon Mueller                                 : openCOSMO-RS
   Christopher J. Cramer and Donald G. Truhlar   : smd solvation model
   Lars Goerigk                                  : TD-DFT with DH, B97 family of functionals
   V. Asgeirsson, H. Jonsson                     : NEB implementation
   FAccTs GmbH                                   : IRC, NEB, NEB-TS, DLPNO-Multilevel, CI-OPT
                                                   MM, QMMM, 2- and 3-layer-ONIOM, Crystal-QMMM,
                                                   LR-CPCM, SF, NACMEs, symmetry and pop. for TD-DFT,
                                                   nearIR, NL-DFT gradient (VV10), updates on ESD,
                                                   ML-optimized integration grids, MBIS, APM,
                                                   GOAT, DOCKER, SOLVATOR, interface openCOSMO-RS
   S Lehtola, MJT Oliveira, MAL Marques          : LibXC Library
   Liviu Ungur et al                             : ANISO software


 Your calculation uses the libint2 library for the computation of 2-el integrals
 For citations please refer to: http://libint.valeyev.net

 Your ORCA version has been built with support for libXC version: 6.2.2
 For citations please refer to: https://libxc.gitlab.io

 This ORCA versions uses:
   CBLAS   interface :  Fast vector & matrix operations
   LAPACKE interface :  Fast linear algebra routines
   SCALAPACK package :  Parallel linear algebra routines
   Shared memory     :  Shared parallel matrices
   BLAS/LAPACK       :  OpenBLAS 0.3.27  USE64BITINT DYNAMIC_ARCH NO_AFFINITY Sandybridge SINGLE_THREADED
        Core in use  :  Sandybridge
   Copyright (c) 2011-2014, The OpenBLAS Project


NOTE: MaxCore=3500 MB was set to SCF,MP2,MDCI,CIPSI,MRCI and CIS
      => If you want to overwrite this, your respective input block should be placed after the MaxCore statement
Your calculation utilizes the atom-pairwise dispersion correction
with the Becke-Johnson damping scheme (D3BJ)


Warning: RI is on but no J-basis has been assigned. Assigning Def2/J (nothing to worry about!)
================================================================================

----- Orbital basis set information -----
Your calculation utilizes the basis: def2-SV(P)
   F. Weigend and R. Ahlrichs, Phys. Chem. Chem. Phys. 7, 3297 (2005).

----- AuxJ basis set information -----
Your calculation utilizes the auxiliary basis: def2/J
   F. Weigend, Phys. Chem. Chem. Phys. 8, 1057 (2006).

================================================================================
                                        WARNINGS
                       Please study these warnings very carefully!
================================================================================


WARNING: your system is open-shell and RHF/RKS was chosen
  ===> : WILL SWITCH to UHF/UKS


WARNING: Geometry Optimization
  ===> : Switching off AutoStart
         For restart on a previous wavefunction, please use MOREAD

================================================================================
                                       INPUT FILE
================================================================================
NAME = cs_rporg_w09_red_opt_01.inp
|  1> !PBE0 def2-SV(p) Opt Freq d3 TightSCF SlowConv RIJCOSX defgrid2
|  2> 
|  3> %pal
|  4> nprocs 15
|  5> end
|  6> 
|  7> %scf
|  8> MaxIter 1500
|  9> end
| 10> 
| 11> %maxcore 3500
| 12> 
| 13>  
| 14> 
| 15> * xyz -1 2
| 16> C        0.000000000      0.000000000      0.000000000
| 17> C        0.000000000      1.373319056      0.090541189
| 18> C        0.000000000      2.005801373      1.358202556
| 19> C        0.000000000      1.252280933      2.509901250
| 20> C        0.000000000     -0.167564122      2.452067234
| 21> C        0.000000000     -0.807631659      1.169203086
| 22> C        0.000000000     -2.227476714      1.111369070
| 23> C        0.000000000     -2.980997154      2.263067764
| 24> C        0.000000000     -2.348514836      3.530729131
| 25> C        0.000000000     -0.975195780      3.621270320
| 26> H        0.000000000     -0.487597890      4.592806506
| 27> H        0.000000000     -2.953782701      4.432518609
| 28> H        0.000000000     -4.065491075      2.204361841
| 29> H        0.000000000     -2.710489610      0.137545264
| 30> C        0.000000000      3.543550002      1.441444104
| 31> H       -1.020692000      3.941505213      1.471906292
| 32> H        0.518060000      3.894447577      2.341217560
| 33> H        0.502632000      3.990007252      0.575912090
| 34> C        0.000000000      2.231553308     -1.188143279
| 35> H        1.020692000      2.446529534     -1.524419232
| 36> H       -0.518060000      1.723670938     -2.009591316
| 37> H       -0.502632000      3.191575797     -1.024355113
| 38> O        0.000000000      1.892133153      3.799935799
| 39> O        0.000000000     -0.645926009     -1.287004115
| 40> *
| 41> 
| 42>                          ****END OF INPUT****
================================================================================

                       *****************************
                       * Geometry Optimization Run *
                       *****************************

Geometry optimization settings:
Update method            Update   .... BFGS
Choice of coordinates    CoordSys .... (2022) Redundant Internals
Initial Hessian          InHess   .... Almloef's Model
Max. no of cycles        MaxIter  .... 72

Convergence Tolerances:
Energy Change            TolE     ....  5.0000e-06 Eh
Max. Gradient            TolMAXG  ....  3.0000e-04 Eh/bohr
RMS Gradient             TolRMSG  ....  1.0000e-04 Eh/bohr
Max. Displacement        TolMAXD  ....  4.0000e-03 bohr
RMS Displacement         TolRMSD  ....  2.0000e-03 bohr
Strict Convergence                .... False

------------------------------------------------------------------------------
                        ORCA OPTIMIZATION COORDINATE SETUP
------------------------------------------------------------------------------

The optimization will be done in redundant internal coordinates (2022)
Making redundant internal coordinates   ...  (2022 redundants) done
Evaluating the initial hessian          ...  (Almloef) done
Evaluating the coordinates              ...  done
Calculating the B-matrix                .... done
Calculating the G-matrix                .... done
Diagonalizing the G-matrix              .... done
The first mode is                       ....   55
The number of degrees of freedom        ....   66

    -----------------------------------------------------------------
                    Redundant Internal Coordinates


    -----------------------------------------------------------------
         Definition                    Initial Value    Approx d2E/dq
    -----------------------------------------------------------------
      1. B(C   1,C   0)                  1.3763         0.657045   
      2. B(C   2,C   1)                  1.4167         0.566452   
      3. B(C   3,C   2)                  1.3763         0.657045   
      4. B(C   4,C   3)                  1.4210         0.557499   
      5. B(C   5,C   4)                  1.4337         0.532177   
      6. B(C   5,C   0)                  1.4210         0.557499   
      7. B(C   6,C   5)                  1.4210         0.557499   
      8. B(C   7,C   6)                  1.3763         0.657045   
      9. B(C   8,C   7)                  1.4167         0.566452   
     10. B(C   9,C   8)                  1.3763         0.657045   
     11. B(C   9,C   4)                  1.4210         0.557499   
     12. B(H  10,C   9)                  1.0870         0.364050   
     13. B(H  11,C   8)                  1.0861         0.365321   
     14. B(H  12,C   7)                  1.0861         0.365321   
     15. B(H  13,C   6)                  1.0870         0.364050   
     16. B(C  14,C   2)                  1.5400         0.360100   
     17. B(H  15,C  14)                  1.0960         0.352313   
     18. B(H  16,C  14)                  1.0960         0.352314   
     19. B(H  17,C  14)                  1.0960         0.352313   
     20. B(C  18,C   1)                  1.5400         0.360100   
     21. B(H  19,C  18)                  1.0960         0.352313   
     22. B(H  20,C  18)                  1.0960         0.352314   
     23. B(H  21,C  18)                  1.0960         0.352313   
     24. B(O  22,C   3)                  1.4400         0.465697   
     25. B(O  23,C   0)                  1.4400         0.465697   
     26. A(C   5,C   0,O  23)          118.7138         0.402140   
     27. A(C   1,C   0,C   5)          120.8630         0.430320   
     28. A(C   1,C   0,O  23)          120.4233         0.414003   
     29. A(C   0,C   1,C  18)          120.0970         0.398171   
     30. A(C   2,C   1,C  18)          119.6148         0.387961   
     31. A(C   0,C   1,C   2)          120.2883         0.431553   
     32. A(C   1,C   2,C   3)          120.2883         0.431553   
     33. A(C   3,C   2,C  14)          120.0970         0.398171   
     34. A(C   1,C   2,C  14)          119.6148         0.387961   
     35. A(C   4,C   3,O  22)          118.7138         0.402140   
     36. A(C   2,C   3,C   4)          120.8630         0.430320   
     37. A(C   2,C   3,O  22)          120.4233         0.414003   
     38. A(C   5,C   4,C   9)          118.8488         0.414419   
     39. A(C   3,C   4,C   9)          122.3024         0.417861   
     40. A(C   3,C   4,C   5)          118.8488         0.414419   
     41. A(C   0,C   5,C   6)          122.3024         0.417861   
     42. A(C   0,C   5,C   4)          118.8488         0.414419   
     43. A(C   4,C   5,C   6)          118.8488         0.414419   
     44. A(C   7,C   6,H  13)          120.4233         0.357059   
     45. A(C   5,C   6,H  13)          118.7138         0.347275   
     46. A(C   5,C   6,C   7)          120.8630         0.430320   
     47. A(C   8,C   7,H  12)          119.6148         0.348412   
     48. A(C   6,C   7,C   8)          120.2883         0.431553   
     49. A(C   6,C   7,H  12)          120.0970         0.357271   
     50. A(C   7,C   8,C   9)          120.2883         0.431553   
     51. A(C   9,C   8,H  11)          120.0970         0.357271   
     52. A(C   7,C   8,H  11)          119.6148         0.348412   
     53. A(C   4,C   9,H  10)          118.7138         0.347275   
     54. A(C   4,C   9,C   8)          120.8630         0.430320   
     55. A(C   8,C   9,H  10)          120.4233         0.357059   
     56. A(H  16,C  14,H  17)          107.5274         0.288852   
     57. A(H  15,C  14,H  17)          107.5274         0.288852   
     58. A(C   2,C  14,H  17)          111.3513         0.321218   
     59. A(H  15,C  14,H  16)          107.5275         0.288852   
     60. A(C   2,C  14,H  16)          111.3513         0.321218   
     61. A(C   2,C  14,H  15)          111.3513         0.321218   
     62. A(H  20,C  18,H  21)          107.5274         0.288852   
     63. A(H  19,C  18,H  21)          107.5274         0.288852   
     64. A(C   1,C  18,H  21)          111.3513         0.321218   
     65. A(H  19,C  18,H  20)          107.5275         0.288852   
     66. A(C   1,C  18,H  20)          111.3513         0.321218   
     67. A(C   1,C  18,H  19)          111.3513         0.321218   
     68. D(C   2,C   1,C   0,O  23)    180.0000         0.030105   
     69. D(C  18,C   1,C   0,C   5)    180.0000         0.030105   
     70. D(C  18,C   1,C   0,O  23)      0.0000         0.030105   
     71. D(C   2,C   1,C   0,C   5)      0.0000         0.030105   
     72. D(C  14,C   2,C   1,C   0)    180.0000         0.021999   
     73. D(C  14,C   2,C   1,C  18)      0.0000         0.021999   
     74. D(C   3,C   2,C   1,C   0)      0.0000         0.021999   
     75. D(C   3,C   2,C   1,C  18)    180.0000         0.021999   
     76. D(O  22,C   3,C   2,C  14)      0.0000         0.030105   
     77. D(C   4,C   3,C   2,C  14)    180.0000         0.030105   
     78. D(C   4,C   3,C   2,C   1)      0.0000         0.030105   
     79. D(O  22,C   3,C   2,C   1)    180.0000         0.030105   
     80. D(C   9,C   4,C   3,C   2)    180.0000         0.021283   
     81. D(C   5,C   4,C   3,O  22)    180.0000         0.021283   
     82. D(C   5,C   4,C   3,C   2)      0.0000         0.021283   
     83. D(C   9,C   4,C   3,O  22)      0.0000         0.021283   
     84. D(C   6,C   5,C   4,C   9)      0.0000         0.019336   
     85. D(C   0,C   5,C   4,C   9)    180.0000         0.019336   
     86. D(C   0,C   5,C   4,C   3)      0.0000         0.019336   
     87. D(C   6,C   5,C   0,O  23)      0.0000         0.021283   
     88. D(C   6,C   5,C   0,C   1)    180.0000         0.021283   
     89. D(C   6,C   5,C   4,C   3)    180.0000         0.019336   
     90. D(C   4,C   5,C   0,O  23)    180.0000         0.021283   
     91. D(C   4,C   5,C   0,C   1)      0.0000         0.021283   
     92. D(H  13,C   6,C   5,C   4)    180.0000         0.021283   
     93. D(H  13,C   6,C   5,C   0)      0.0000         0.021283   
     94. D(C   7,C   6,C   5,C   4)      0.0000         0.021283   
     95. D(C   7,C   6,C   5,C   0)    180.0000         0.021283   
     96. D(H  12,C   7,C   6,C   5)    180.0000         0.030105   
     97. D(C   8,C   7,C   6,H  13)    180.0000         0.030105   
     98. D(C   8,C   7,C   6,C   5)      0.0000         0.030105   
     99. D(H  12,C   7,C   6,H  13)      0.0000         0.030105   
    100. D(H  11,C   8,C   7,H  12)      0.0000         0.021999   
    101. D(H  11,C   8,C   7,C   6)    180.0000         0.021999   
    102. D(C   9,C   8,C   7,H  12)    180.0000         0.021999   
    103. D(C   9,C   8,C   7,C   6)      0.0000         0.021999   
    104. D(H  10,C   9,C   8,H  11)      0.0000         0.030105   
    105. D(C   4,C   9,C   8,H  11)    180.0000         0.030105   
    106. D(C   4,C   9,C   8,C   7)      0.0000         0.030105   
    107. D(H  10,C   9,C   4,C   5)    180.0000         0.021283   
    108. D(H  10,C   9,C   4,C   3)      0.0000         0.021283   
    109. D(H  10,C   9,C   8,C   7)    180.0000         0.030105   
    110. D(C   8,C   9,C   4,C   5)      0.0000         0.021283   
    111. D(C   8,C   9,C   4,C   3)    180.0000         0.021283   
    112. D(H  17,C  14,C   2,C   1)    -29.5000         0.009750   
    113. D(H  16,C  14,C   2,C   3)     30.5000         0.009750   
    114. D(H  16,C  14,C   2,C   1)   -149.5000         0.009750   
    115. D(H  15,C  14,C   2,C   3)    -89.5000         0.009750   
    116. D(H  15,C  14,C   2,C   1)     90.5000         0.009750   
    117. D(H  21,C  18,C   1,C   0)    150.5000         0.009750   
    118. D(H  20,C  18,C   1,C   2)   -149.5000         0.009750   
    119. D(H  20,C  18,C   1,C   0)     30.5000         0.009750   
    120. D(H  19,C  18,C   1,C   2)     90.5000         0.009750   
    121. D(H  19,C  18,C   1,C   0)    -89.5000         0.009750   
    -----------------------------------------------------------------

Number of atoms                         .... 24
Number of degrees of freedom            .... 121


         *************************************************************
         *                GEOMETRY OPTIMIZATION CYCLE   1            *
         *************************************************************
---------------------------------
CARTESIAN COORDINATES (ANGSTROEM)
---------------------------------
  C      0.000000    0.000000    0.000000
  C      0.000000    1.373319    0.090541
  C      0.000000    2.005801    1.358203
  C      0.000000    1.252281    2.509901
  C      0.000000   -0.167564    2.452067
  C      0.000000   -0.807632    1.169203
  C      0.000000   -2.227477    1.111369
  C      0.000000   -2.980997    2.263068
  C      0.000000   -2.348515    3.530729
  C      0.000000   -0.975196    3.621270
  H      0.000000   -0.487598    4.592807
  H      0.000000   -2.953783    4.432519
  H      0.000000   -4.065491    2.204362
  H      0.000000   -2.710490    0.137545
  C      0.000000    3.543550    1.441444
  H     -1.020692    3.941505    1.471906
  H      0.518060    3.894448    2.341218
  H      0.502632    3.990007    0.575912
  C      0.000000    2.231553   -1.188143
  H      1.020692    2.446530   -1.524419
  H     -0.518060    1.723671   -2.009591
  H     -0.502632    3.191576   -1.024355
  O      0.000000    1.892133    3.799936
  O      0.000000   -0.645926   -1.287004

----------------------------
CARTESIAN COORDINATES (A.U.)
----------------------------
  NO LB      ZA    FRAG     MASS         X           Y           Z
   0 C     6.0000    0    12.011    0.000000    0.000000    0.000000
   1 C     6.0000    0    12.011    0.000000    2.595197    0.171098
   2 C     6.0000    0    12.011    0.000000    3.790415    2.566631
   3 C     6.0000    0    12.011    0.000000    2.366468    4.743026
   4 C     6.0000    0    12.011    0.000000   -0.316650    4.633736
   5 C     6.0000    0    12.011    0.000000   -1.526203    2.209474
   6 C     6.0000    0    12.011    0.000000   -4.209321    2.100183
   7 C     6.0000    0    12.011    0.000000   -5.633268    4.276578
   8 C     6.0000    0    12.011    0.000000   -4.438050    6.672111
   9 C     6.0000    0    12.011    0.000000   -1.842853    6.843209
  10 H     1.0000    0     1.008    0.000000   -0.921426    8.679146
  11 H     1.0000    0     1.008    0.000000   -5.581840    8.376246
  12 H     1.0000    0     1.008    0.000000   -7.682665    4.165640
  13 H     1.0000    0     1.008    0.000000   -5.122083    0.259923
  14 C     6.0000    0    12.011    0.000000    6.696339    2.723935
  15 H     1.0000    0     1.008   -1.928828    7.448365    2.781500
  16 H     1.0000    0     1.008    0.978992    7.359439    4.424260
  17 H     1.0000    0     1.008    0.949837    7.540021    1.088316
  18 C     6.0000    0    12.011    0.000000    4.217025   -2.245265
  19 H     1.0000    0     1.008    1.928828    4.623271   -2.880735
  20 H     1.0000    0     1.008   -0.978992    3.257266   -3.797577
  21 H     1.0000    0     1.008   -0.949837    6.031204   -1.935751
  22 O     8.0000    0    15.999    0.000000    3.575613    7.180838
  23 O     8.0000    0    15.999    0.000000   -1.220623   -2.432085

--------------------------------
INTERNAL COORDINATES (ANGSTROEM)
--------------------------------
 C      0   0   0     0.000000000000     0.00000000     0.00000000
 C      1   0   0     1.376300452837     0.00000000     0.00000000
 C      2   1   0     1.416686000037   120.28825517     0.00000000
 C      3   2   1     1.376300452394   120.28825522     0.00000000
 C      4   3   2     1.421022432481   120.86295107     0.00000000
 C      1   2   3     1.421022432241   120.86295107     0.00000000
 C      6   1   2     1.421022432481   122.30241253   180.00000085
 C      7   6   1     1.376300452394   120.86295107   180.00000000
 C      8   7   6     1.416686000484   120.28825518     0.00000000
 C      9   8   7     1.376300452837   120.28825521     0.00000000
 H     10   9   8     1.087030019383   120.42329462   180.00000000
 H      9   8   7     1.086081696298   119.61479186   180.00000000
 H      8   7   6     1.086081695860   120.09695297   180.00000000
 H      7   6   1     1.087030019289   118.71375429     0.00000000
 C      3   2   1     1.540000000424   119.61479182   180.00000121
 H     15   3   2     1.095950935820   111.35132237    90.49997507
 H     15   3   2     1.095950520718   111.35133086   210.50001012
 H     15   3   2     1.095951034837   111.35132033   330.49999855
 C      2   1   3     1.540000000003   120.09695294   180.00000085
 H     19   2   1     1.095950935569   111.35132233   270.49997506
 H     19   2   1     1.095950520255   111.35133088    30.50001014
 H     19   2   1     1.095951034550   111.35132032   150.49999855
 O      4   3   2     1.440000000365   120.42329462   180.00000000
 O      1   2   3     1.440000000392   120.42329463   180.00000000

---------------------------
INTERNAL COORDINATES (A.U.)
---------------------------
 C      0   0   0     0.000000000000     0.00000000     0.00000000
 C      1   0   0     2.600830933853     0.00000000     0.00000000
 C      2   1   0     2.677148557831   120.28825517     0.00000000
 C      3   2   1     2.600830933016   120.28825522     0.00000000
 C      4   3   2     2.685343227548   120.86295107     0.00000000
 C      1   2   3     2.685343227093   120.86295107     0.00000000
 C      6   1   2     2.685343227548   122.30241253   180.00000085
 C      7   6   1     2.600830933016   120.86295107   180.00000000
 C      8   7   6     2.677148558675   120.28825518     0.00000000
 C      9   8   7     2.600830933853   120.28825521     0.00000000
 H     10   9   8     2.054189035985   120.42329462   180.00000000
 H      9   8   7     2.052396965068   119.61479186   180.00000000
 H      8   7   6     2.052396964239   120.09695297   180.00000000
 H      7   6   1     2.054189035807   118.71375429     0.00000000
 C      3   2   1     2.910178247039   119.61479182   180.00000121
 H     15   3   2     2.071047124914   111.35132237    90.49997507
 H     15   3   2     2.071046340486   111.35133086   210.50001012
 H     15   3   2     2.071047312030   111.35132033   330.49999855
 C      2   1   3     2.910178246245   120.09695294   180.00000085
 H     19   2   1     2.071047124441   111.35132233   270.49997506
 H     19   2   1     2.071046339611   111.35133088    30.50001014
 H     19   2   1     2.071047311487   111.35132032   150.49999855
 O      4   3   2     2.721205633537   120.42329462   180.00000000
 O      1   2   3     2.721205633588   120.42329463   180.00000000

---------------------
BASIS SET INFORMATION
---------------------
There are 3 groups of distinct atoms

 Group   1 Type C   : 7s4p1d contracted to 3s2p1d pattern {511/31/1}
 Group   2 Type H   : 4s contracted to 2s pattern {31}
 Group   3 Type O   : 7s4p1d contracted to 3s2p1d pattern {511/31/1}

Atom   0C    basis set group =>   1
Atom   1C    basis set group =>   1
Atom   2C    basis set group =>   1
Atom   3C    basis set group =>   1
Atom   4C    basis set group =>   1
Atom   5C    basis set group =>   1
Atom   6C    basis set group =>   1
Atom   7C    basis set group =>   1
Atom   8C    basis set group =>   1
Atom   9C    basis set group =>   1
Atom  10H    basis set group =>   2
Atom  11H    basis set group =>   2
Atom  12H    basis set group =>   2
Atom  13H    basis set group =>   2
Atom  14C    basis set group =>   1
Atom  15H    basis set group =>   2
Atom  16H    basis set group =>   2
Atom  17H    basis set group =>   2
Atom  18C    basis set group =>   1
Atom  19H    basis set group =>   2
Atom  20H    basis set group =>   2
Atom  21H    basis set group =>   2
Atom  22O    basis set group =>   3
Atom  23O    basis set group =>   3
---------------------------------
AUXILIARY/J BASIS SET INFORMATION
---------------------------------
There are 3 groups of distinct atoms

 Group   1 Type C   : 12s5p4d2f1g contracted to 6s4p3d1f1g pattern {711111/2111/211/2/1}
 Group   2 Type H   : 5s2p1d contracted to 3s1p1d pattern {311/2/1}
 Group   3 Type O   : 12s5p4d2f1g contracted to 6s4p3d1f1g pattern {711111/2111/211/2/1}

Atom   0C    basis set group =>   1
Atom   1C    basis set group =>   1
Atom   2C    basis set group =>   1
Atom   3C    basis set group =>   1
Atom   4C    basis set group =>   1
Atom   5C    basis set group =>   1
Atom   6C    basis set group =>   1
Atom   7C    basis set group =>   1
Atom   8C    basis set group =>   1
Atom   9C    basis set group =>   1
Atom  10H    basis set group =>   2
Atom  11H    basis set group =>   2
Atom  12H    basis set group =>   2
Atom  13H    basis set group =>   2
Atom  14C    basis set group =>   1
Atom  15H    basis set group =>   2
Atom  16H    basis set group =>   2
Atom  17H    basis set group =>   2
Atom  18C    basis set group =>   1
Atom  19H    basis set group =>   2
Atom  20H    basis set group =>   2
Atom  21H    basis set group =>   2
Atom  22O    basis set group =>   3
Atom  23O    basis set group =>   3


           ************************************************************
           *        Program running with 15 parallel MPI-processes    *
           *              working on a common directory               *
           ************************************************************
------------------------------------------------------------------------------
                             ORCA STARTUP CALCULATIONS
                           -- RI-GTO INTEGRALS CHOSEN --
------------------------------------------------------------------------------
------------------------------------------------------------------------------
                   ___                                                        
                  /   \      - P O W E R E D   B Y -                         
                 /     \                                                     
                 |  |  |   _    _      __       _____    __    __             
                 |  |  |  | |  | |    /  \     |  _  \  |  |  /  |          
                  \  \/   | |  | |   /    \    | | | |  |  | /  /          
                 / \  \   | |__| |  /  /\  \   | |_| |  |  |/  /          
                |  |  |   |  __  | /  /__\  \  |    /   |      \           
                |  |  |   | |  | | |   __   |  |    \   |  |\   \          
                \     /   | |  | | |  |  |  |  | |\  \  |  | \   \       
                 \___/    |_|  |_| |__|  |__|  |_| \__\ |__|  \__/        
                                                                              
                      - O R C A' S   B I G   F R I E N D -                    
                                      &                                       
                       - I N T E G R A L  F E E D E R -                       
                                                                              
 v1 FN, 2020, v2 2021, v3 2022-2024                                           
------------------------------------------------------------------------------


----------------------
SHARK INTEGRAL PACKAGE
----------------------

Number of atoms                             ...     24
Number of basis functions                   ...    216
Number of shells                            ...    104
Maximum angular momentum                    ...      2
Integral batch strategy                     ... SHARK/LIBINT Hybrid
RI-J (if used) integral strategy            ... SPLIT-RIJ (Revised 2003 algorithm where possible)
Printlevel                                  ...      1
Contraction scheme used                     ... SEGMENTED contraction
Prescreening option                         ... SCHWARTZ
   Thresh                                   ... 2.500e-11
   Tcut                                     ... 2.500e-12
   Tpresel                                  ... 2.500e-12 
Coulomb Range Separation                    ... NOT USED
Exchange Range Separation                   ... NOT USED
Multipole approximations                    ... NOT USED
Finite Nucleus Model                        ... NOT USED
CABS basis                                  ... NOT available
Auxiliary Coulomb fitting basis             ... AVAILABLE
   # of basis functions in Aux-J            ...    796
   # of shells in Aux-J                     ...    260
   Maximum angular momentum in Aux-J        ...      4
Auxiliary J/K fitting basis                 ... NOT available
Auxiliary Correlation fitting basis         ... NOT available
Auxiliary 'external' fitting basis          ... NOT available

Checking pre-screening integrals            ... done (  0.1 sec) Dimension = 104
Check shell pair data                       ... done (  0.1 sec)
Shell pair information
Shell pair cut-off parameter TPreSel        ...   2.5e-12
Total number of shell pairs                 ...      5460
Shell pairs after pre-screening             ...      4883
Total number of primitive shell pairs       ...     21948
Primitive shell pairs kept                  ...     13158
          la=0 lb=0:   1700 shell pairs
          la=1 lb=0:   1618 shell pairs
          la=1 lb=1:    393 shell pairs
          la=2 lb=0:    720 shell pairs
          la=2 lb=1:    366 shell pairs
          la=2 lb=2:     86 shell pairs

Calculating one electron integrals          ... done (  0.0 sec)
Calculating RI/J V-Matrix + Cholesky decomp.... done (  0.1 sec)
Calculating Nuclear repulsion               ... done (  0.0 sec) ENN=    823.658721383360 Eh

Diagonalization of the overlap matrix:
Smallest eigenvalue                        ... 1.550e-04
Time for diagonalization                   ...    0.009 sec
Threshold for overlap eigenvalues          ... 1.000e-07
Number of eigenvalues below threshold      ... 0
Time for construction of square roots      ...    0.023 sec
Total time needed                          ...    0.110 sec

-------------------
DFT GRID GENERATION
-------------------

General Integration Accuracy     IntAcc      ... 4.388
Radial Grid Type                 RadialGrid  ... OptM3 with GC (2021)
Angular Grid (max. ang.)         AngularGrid ... 4 (Lebedev-302)
Angular grid pruning method      GridPruning ... 4 (adaptive)
Weight generation scheme         WeightScheme... mBecke (2022)
Basis function cutoff            BFCut       ... 1.0000e-11
Integration weight cutoff        WCut        ... 1.0000e-14
Partially contracted basis set               ... off
Rotationally invariant grid construction     ... off
Angular grids for H and He will be reduced by one unit

Total number of grid points                  ...   115855
Total number of batches                      ...     1824
Average number of points per batch           ...       63
Average number of grid points per atom       ...     4827

--------------------
COSX GRID GENERATION
--------------------

GRIDX 1
-------
General Integration Accuracy     IntAcc      ... 3.816
Radial Grid Type                 RadialGrid  ... OptM3 with GC (2021)
Angular Grid (max. ang.)         AngularGrid ... 1 (Lebedev-50)
Angular grid pruning method      GridPruning ... 4 (adaptive)
Weight generation scheme         WeightScheme... mBecke (2022)
Basis function cutoff            BFCut       ... 1.0000e-11
Integration weight cutoff        WCut        ... 1.0000e-14
Partially contracted basis set               ... on
Rotationally invariant grid construction     ... off
Angular grids for H and He will be reduced by one unit

Total number of grid points                  ...    14802
Total number of batches                      ...      128
Average number of points per batch           ...      115
Average number of grid points per atom       ...      617
UseSFitting                                  ... on

GRIDX 2
-------
General Integration Accuracy     IntAcc      ... 4.020
Radial Grid Type                 RadialGrid  ... OptM3 with GC (2021)
Angular Grid (max. ang.)         AngularGrid ... 2 (Lebedev-110)
Angular grid pruning method      GridPruning ... 4 (adaptive)
Weight generation scheme         WeightScheme... mBecke (2022)
Basis function cutoff            BFCut       ... 1.0000e-11
Integration weight cutoff        WCut        ... 1.0000e-14
Partially contracted basis set               ... on
Rotationally invariant grid construction     ... off
Angular grids for H and He will be reduced by one unit

Total number of grid points                  ...    32312
Total number of batches                      ...      262
Average number of points per batch           ...      123
Average number of grid points per atom       ...     1346
UseSFitting                                  ... on

GRIDX 3
-------
General Integration Accuracy     IntAcc      ... 4.338
Radial Grid Type                 RadialGrid  ... OptM3 with GC (2021)
Angular Grid (max. ang.)         AngularGrid ... 3 (Lebedev-194)
Angular grid pruning method      GridPruning ... 4 (adaptive)
Weight generation scheme         WeightScheme... mBecke (2022)
Basis function cutoff            BFCut       ... 1.0000e-11
Integration weight cutoff        WCut        ... 1.0000e-14
Partially contracted basis set               ... on
Rotationally invariant grid construction     ... off
Angular grids for H and He will be reduced by one unit

Total number of grid points                  ...    70984
Total number of batches                      ...      568
Average number of points per batch           ...      124
Average number of grid points per atom       ...     2958
UseSFitting                                  ... on
Initializing property integral containers    ... done (  0.2 sec)

SHARK setup successfully completed in   4.3 seconds

Maximum memory used throughout the entire STARTUP-calculation: 29.8 MB


           ************************************************************
           *        Program running with 15 parallel MPI-processes    *
           *              working on a common directory               *
           ************************************************************
-------------------------------------------------------------------------------
                                 ORCA GUESS
                   Start orbitals & Density for SCF / CASSCF
-------------------------------------------------------------------------------

------------
SCF SETTINGS
------------
Hamiltonian:
 Density Functional     Method          .... DFT(GTOs)
 Exchange Functional    Exchange        .... PBE
   PBE kappa parameter   XKappa         ....  0.804000
   PBE mue parameter    XMuePBE         ....  0.219520
 Correlation Functional Correlation     .... PBE
   PBE beta parameter  CBetaPBE         ....  0.066725
 LDA part of GGA corr.  LDAOpt          .... PW91-LDA
 Gradients option       PostSCFGGA      .... off
 Hybrid DFT is turned on
   Fraction HF Exchange ScalHFX         ....  0.250000
   Scaling of DF-GGA-X  ScalDFX         ....  0.750000
   Scaling of DF-GGA-C  ScalDFC         ....  1.000000
   Scaling of DF-LDA-C  ScalLDAC        ....  1.000000
   Perturbative correction              ....  0.000000
   NL short-range parameter             ....  6.900000
 RI-approximation to the Coulomb term is turned on
   Number of AuxJ basis functions       .... 796
   RIJ-COSX (HFX calculated with COS-X)).... on


General Settings:
 Integral files         IntName         .... cs_rporg_w09_red_opt_01
 Hartree-Fock type      HFTyp           .... UHF
 Total Charge           Charge          ....   -1
 Multiplicity           Mult            ....    2
 Number of Electrons    NEL             ....   99
 Basis Dimension        Dim             ....  216
 Nuclear Repulsion      ENuc            ....    823.6587213834 Eh

Convergence Acceleration:
 AO-DIIS                CNVDIIS         .... on
   Start iteration      DIISMaxIt       ....     0
   Startup error        DIISStart       ....  0.200000
   # of expansion vecs  DIISMaxEq       ....     5
   Bias factor          DIISBfac        ....   1.050
   Max. coefficient     DIISMaxC        ....  10.000
 MO-DIIS                CNVKDIIS        .... off
 Trust-Rad. Augm. Hess. CNVTRAH         .... auto
   Auto Start mean grad. ratio tolernc. ....  1.125000
   Auto Start start iteration           ....    50
   Auto Start num. interpolation iter.  ....    10
   Max. Number of Micro iterations      ....    24
   Max. Number of Macro iterations      .... Maxiter - #DIIS iter
   Number of Davidson start vectors     ....     2
   Converg. threshold    (grad. norm)   ....   1.000e-05
   Grad. Scal. Fac. for Micro threshold ....   0.100
   Minimum threshold for Micro iter.    ....   1.000e-02
   NR start threshold (gradient norm)   ....   1.000e-04
   Initial trust radius                 ....   0.400
   Minimum AH scaling param. (alpha)    ....   1.000
   Maximum AH scaling param. (alpha)    .... 1000.000
   Quad. conv. algorithm                .... NR
   White noise on init. David. guess    .... on
   Maximum white noise                  ....   0.010
   Pseudo random numbers                .... off
   Inactive MOs                         .... canonical
   Orbital update algorithm             .... Taylor
   Preconditioner                       .... Diag
   Full preconditioner red. dimension   ....   250
 SOSCF                  CNVSOSCF        .... on
   Start iteration      SOSCFMaxIt      ....   150
   Startup grad/error   SOSCFStart      ....  0.001000
   Hessian update       SOSCFHessUp     .... L-BFGS
 Level Shifting         CNVShift        .... on
   Level shift para.    LevelShift      ....    0.2500
   Turn off err/grad.   ShiftErr        ....    0.0000
 Zerner damping         CNVZerner       .... off
 Static damping         CNVDamp         .... on
   Fraction old density DampFac         ....    0.8500
   Max. Damping (<1)    DampMax         ....    0.9800
   Min. Damping (>=0)   DampMin         ....    0.0000
   Turn off err/grad.   DampErr         ....    0.0300

SCF Procedure:
 Maximum # iterations   MaxIter         ....  1500
 SCF integral mode      SCFMode         .... Direct
   Integral package                     .... SHARK and LIBINT hybrid scheme
 Reset frequency        DirectResetFreq ....    20
 Integral Threshold     Thresh          ....  2.500e-11 Eh
 Primitive CutOff       TCut            ....  2.500e-12 Eh

Convergence Tolerance:
 Convergence Check Mode ConvCheckMode   .... Total+1el-Energy
 Convergence forced     ConvForced      .... 0
 Energy Change          TolE            ....  1.000e-08 Eh
 1-El. energy change                    ....  1.000e-05 Eh
 Orbital Gradient       TolG            ....  1.000e-05
 Orbital Rotation angle TolX            ....  1.000e-05
 DIIS Error             TolErr          ....  5.000e-07

------------------------------
INITIAL GUESS: MODEL POTENTIAL
------------------------------
Loading Hartree-Fock densities                     ... done
Calculating cut-offs                               ... done
Initializing the effective Hamiltonian             ... done
Setting up the integral package (SHARK)            ... done
Starting the Coulomb interaction                   ... done (   0.2 sec)
Making the grid                                    ... done (   0.5 sec)
Mapping shells                                     ... done
Starting the XC term evaluation                    ... done (   0.1 sec)
  promolecular density results
     # of electrons  =     97.992727804
     EX              =    -80.483111707
     EC              =     -3.261881608
     EX+EC           =    -83.744993316
Transforming the Hamiltonian                       ... done (   1.0 sec)
Diagonalizing the Hamiltonian                      ... done (   0.0 sec)
Back transforming the eigenvectors                 ... done (   0.2 sec)
Now organizing SCF variables                       ... done
                      ------------------
                      INITIAL GUESS DONE (   2.8 sec)
                      ------------------
             **** ENERGY FILE WAS UPDATED (cs_rporg_w09_red_opt_01.en.tmp) ****
Finished Guess after   4.6 sec
Maximum memory used throughout the entire GUESS-calculation: 16.5 MB


           ************************************************************
           *        Program running with 15 parallel MPI-processes    *
           *              working on a common directory               *
           ************************************************************

-------------------------------------------------------------------------------------------
                                      ORCA LEAN-SCF
                              memory conserving SCF solver
-------------------------------------------------------------------------------------------

----------------------------------------D-I-I-S--------------------------------------------
Iteration    Energy (Eh)           Delta-E    RMSDP     MaxDP     DIISErr   Damp  Time(sec)
-------------------------------------------------------------------------------------------
               ***  Starting incremental Fock matrix formation  ***
    1    -612.2163405547127013     0.00e+00  1.36e-03  2.81e-02  1.32e-01  0.850   5.6
Warning: op=0 Small HOMO/LUMO gap (   0.077) - skipping pre-diagonalization
         Will do a full diagonalization
    2    -612.3122496866936899    -9.59e-02  1.43e-03  3.30e-02  9.21e-02  0.850   5.2
                               ***Turning on AO-DIIS***
    3    -612.3729255965844231    -6.07e-02  6.59e-04  1.40e-02  5.81e-02  0.850   5.1
    4    -612.4122537687575232    -3.93e-02  4.17e-04  9.22e-03  4.62e-02  0.850   5.9
    5    -612.4408656913918776    -2.86e-02  3.14e-04  7.78e-03  3.99e-02  0.850   6.7
    6    -612.4636207644465458    -2.28e-02  2.61e-04  7.43e-03  3.47e-02  0.850   5.5
    7    -612.4824623129226211    -1.88e-02  2.30e-04  7.43e-03  2.96e-02  0.850   6.8
    8    -612.4982188032701060    -1.58e-02  1.29e-03  4.24e-02  2.44e-02  0.000   5.1
    9    -612.5797904478200735    -8.16e-02  2.40e-04  7.26e-03  6.10e-03  0.000   6.9
   10    -612.5800489440958927    -2.58e-04  6.93e-05  3.02e-03  4.94e-03  0.000   6.3
   11    -612.5802531583323116    -2.04e-04  5.63e-05  2.88e-03  2.22e-03  0.000   6.3
   12    -612.5803417900466457    -8.86e-05  5.04e-05  2.32e-03  1.25e-03  0.000   4.8
                              *** Initializing SOSCF ***
---------------------------------------S-O-S-C-F--------------------------------------
Iteration    Energy (Eh)           Delta-E    RMSDP     MaxDP     MaxGrad    Time(sec)
--------------------------------------------------------------------------------------
   13    -612.5803910589421548    -4.93e-05  3.40e-05  1.30e-03  7.56e-04     5.9
               *** Restarting incremental Fock matrix formation ***
   14    -612.5803499185245755     4.11e-05  3.23e-05  1.37e-03  8.54e-04     5.4
   15    -612.5803591388756786    -9.22e-06  6.02e-05  1.61e-03  5.79e-04     7.9
   16    -612.5803605718050449    -1.43e-06  2.75e-05  6.06e-04  5.48e-04     5.4
   17    -612.5803650695937677    -4.50e-06  7.08e-06  1.35e-04  7.12e-05     5.9
   18    -612.5803650127348874     5.69e-08  4.12e-06  1.08e-04  8.28e-05     8.0
   19    -612.5803652594610185    -2.47e-07  1.07e-06  3.70e-05  8.28e-06     8.5
   20    -612.5803652558814747     3.58e-09  6.79e-07  2.96e-05  2.25e-05     7.6
                 **** Energy Check signals convergence ****

               *****************************************************
               *                     SUCCESS                       *
               *           SCF CONVERGED AFTER  20 CYCLES          *
               *****************************************************

Recomputing exchange energy using gridx3       ... done (    1.917 sec)
Old exchange energy                            :    -20.534132485 Eh
New exchange energy                            :    -20.534171030 Eh
Exchange energy change after final integration :     -0.000038545 Eh
Total energy after final integration           :   -612.580403801 Eh
             **** ENERGY FILE WAS UPDATED (cs_rporg_w09_red_opt_01.en.tmp) ****

----------------
TOTAL SCF ENERGY
----------------

Total Energy       :       -612.58040380079501 Eh          -16669.16023 eV

Components:
Nuclear Repulsion  :        823.65872138336033 Eh           22412.89326 eV
Electronic Energy  :      -1436.23908663924180 Eh          -39082.05244 eV
One Electron Energy:      -2481.82269189364979 Eh          -67533.82880 eV
Two Electron Energy:       1045.58360525440798 Eh           28451.77636 eV

Virial components:
Potential Energy   :      -1219.22026802017444 Eh          -33176.67016 eV
Kinetic Energy     :        606.63986421937955 Eh           16507.50993 eV
Virial Ratio       :          2.00979253084375

DFT components:
N(Alpha)           :       49.999986360222 electrons
N(Beta)            :       48.999979340742 electrons
N(Total)           :       98.999965700964 electrons
E(X)               :      -61.489802299657 Eh       
E(C)               :       -3.318533983083 Eh       
E(XC)              :      -64.808336282739 Eh       

---------------
SCF CONVERGENCE
---------------

  Last Energy change         ...   -3.5795e-09  Tolerance :   1.0000e-08
  Last MAX-Density change    ...    2.9639e-05  Tolerance :   1.0000e-07
  Last RMS-Density change    ...    6.7901e-07  Tolerance :   5.0000e-09
  Last DIIS Error            ...    7.5631e-04  Tolerance :   5.0000e-07
  Last Orbital Gradient      ...    2.2536e-05  Tolerance :   1.0000e-05
  Last Orbital Rotation      ...    7.5633e-05  Tolerance :   1.0000e-05


----------------------
UHF SPIN CONTAMINATION
----------------------

Warning: in a DFT calculation there is little theoretical justification to 
         calculate <S**2> as in Hartree-Fock theory. We will do it anyways
         but you should keep in mind that the values have only limited relevance

Expectation value of <S**2>     :     0.788285
Ideal value S*(S+1) for S=0.5   :     0.750000
Deviation                       :     0.038285

----------------
ORBITAL ENERGIES
----------------
                 SPIN UP ORBITALS
  NO   OCC          E(Eh)            E(eV) 
   0   1.0000     -19.014647      -517.4148 
   1   1.0000     -19.014507      -517.4110 
   2   1.0000     -10.128126      -275.6003 
   3   1.0000     -10.128012      -275.5972 
   4   1.0000     -10.107961      -275.0516 
   5   1.0000     -10.107616      -275.0422 
   6   1.0000     -10.102176      -274.8942 
   7   1.0000     -10.101892      -274.8864 
   8   1.0000     -10.100849      -274.8581 
   9   1.0000     -10.100749      -274.8554 
  10   1.0000     -10.100482      -274.8481 
  11   1.0000     -10.100149      -274.8390 
  12   1.0000     -10.093926      -274.6697 
  13   1.0000     -10.093851      -274.6677 
  14   1.0000      -0.801325       -21.8052 
  15   1.0000      -0.787201       -21.4208 
  16   1.0000      -0.736480       -20.0406 
  17   1.0000      -0.701294       -19.0832 
  18   1.0000      -0.644225       -17.5303 
  19   1.0000      -0.631993       -17.1974 
  20   1.0000      -0.608140       -16.5483 
  21   1.0000      -0.567426       -15.4404 
  22   1.0000      -0.546214       -14.8632 
  23   1.0000      -0.485325       -13.2064 
  24   1.0000      -0.475672       -12.9437 
  25   1.0000      -0.432958       -11.7814 
  26   1.0000      -0.392826       -10.6893 
  27   1.0000      -0.373850       -10.1730 
  28   1.0000      -0.342717        -9.3258 
  29   1.0000      -0.334044        -9.0898 
  30   1.0000      -0.316408        -8.6099 
  31   1.0000      -0.305137        -8.3032 
  32   1.0000      -0.288866        -7.8604 
  33   1.0000      -0.285652        -7.7730 
  34   1.0000      -0.272211        -7.4072 
  35   1.0000      -0.271319        -7.3830 
  36   1.0000      -0.271216        -7.3802 
  37   1.0000      -0.257763        -7.0141 
  38   1.0000      -0.236114        -6.4250 
  39   1.0000      -0.235720        -6.4143 
  40   1.0000      -0.215941        -5.8760 
  41   1.0000      -0.214110        -5.8262 
  42   1.0000      -0.207202        -5.6383 
  43   1.0000      -0.187720        -5.1081 
  44   1.0000      -0.132027        -3.5926 
  45   1.0000      -0.131761        -3.5854 
  46   1.0000      -0.117777        -3.2049 
  47   1.0000      -0.095885        -2.6092 
  48   1.0000      -0.094590        -2.5739 
  49   1.0000      -0.044935        -1.2227 
  50   0.0000       0.107319         2.9203 
  51   0.0000       0.122048         3.3211 
  52   0.0000       0.194342         5.2883 
  53   0.0000       0.196122         5.3368 
  54   0.0000       0.198900         5.4123 
  55   0.0000       0.231170         6.2905 
  56   0.0000       0.238820         6.4986 
  57   0.0000       0.239755         6.5241 
  58   0.0000       0.264929         7.2091 
  59   0.0000       0.269361         7.3297 
  60   0.0000       0.281719         7.6660 

                 SPIN DOWN ORBITALS
  NO   OCC          E(Eh)            E(eV) 
   0   1.0000     -19.003789      -517.1194 
   1   1.0000     -19.003650      -517.1156 
   2   1.0000     -10.127639      -275.5871 
   3   1.0000     -10.127527      -275.5840 
   4   1.0000     -10.107772      -275.0464 
   5   1.0000     -10.107423      -275.0370 
   6   1.0000     -10.101743      -274.8824 
   7   1.0000     -10.101479      -274.8752 
   8   1.0000     -10.100908      -274.8597 
   9   1.0000     -10.100833      -274.8577 
  10   1.0000     -10.099431      -274.8195 
  11   1.0000     -10.099080      -274.8099 
  12   1.0000     -10.094041      -274.6728 
  13   1.0000     -10.093966      -274.6708 
  14   1.0000      -0.788276       -21.4501 
  15   1.0000      -0.767540       -20.8858 
  16   1.0000      -0.731187       -19.8966 
  17   1.0000      -0.692620       -18.8472 
  18   1.0000      -0.642638       -17.4871 
  19   1.0000      -0.629782       -17.1372 
  20   1.0000      -0.603789       -16.4299 
  21   1.0000      -0.566315       -15.4102 
  22   1.0000      -0.539514       -14.6809 
  23   1.0000      -0.484923       -13.1954 
  24   1.0000      -0.473249       -12.8778 
  25   1.0000      -0.431046       -11.7294 
  26   1.0000      -0.391509       -10.6535 
  27   1.0000      -0.372474       -10.1355 
  28   1.0000      -0.340501        -9.2655 
  29   1.0000      -0.333494        -9.0748 
  30   1.0000      -0.312858        -8.5133 
  31   1.0000      -0.304984        -8.2990 
  32   1.0000      -0.287202        -7.8152 
  33   1.0000      -0.283743        -7.7210 
  34   1.0000      -0.271376        -7.3845 
  35   1.0000      -0.270324        -7.3559 
  36   1.0000      -0.266783        -7.2595 
  37   1.0000      -0.257608        -7.0099 
  38   1.0000      -0.234986        -6.3943 
  39   1.0000      -0.226826        -6.1723 
  40   1.0000      -0.214766        -5.8441 
  41   1.0000      -0.204639        -5.5685 
  42   1.0000      -0.182495        -4.9659 
  43   1.0000      -0.180215        -4.9039 
  44   1.0000      -0.116623        -3.1735 
  45   1.0000      -0.114937        -3.1276 
  46   1.0000      -0.085629        -2.3301 
  47   1.0000      -0.084494        -2.2992 
  48   1.0000      -0.063458        -1.7268 
  49   0.0000       0.051806         1.4097 
  50   0.0000       0.114490         3.1154 
  51   0.0000       0.131252         3.5716 
  52   0.0000       0.194749         5.2994 
  53   0.0000       0.196256         5.3404 
  54   0.0000       0.216803         5.8995 
  55   0.0000       0.237172         6.4538 
  56   0.0000       0.239111         6.5066 
  57   0.0000       0.240507         6.5445 
  58   0.0000       0.265288         7.2189 
  59   0.0000       0.270453         7.3594 
*Only the first 10 virtual orbitals were printed.

                    ********************************
                    * MULLIKEN POPULATION ANALYSIS *
                    ********************************

--------------------------------------------
MULLIKEN ATOMIC CHARGES AND SPIN POPULATIONS
--------------------------------------------
   0 C :    0.128628    0.001695
   1 C :   -0.121602    0.070215
   2 C :   -0.122340    0.070174
   3 C :    0.128878    0.001717
   4 C :    0.016359    0.031430
   5 C :    0.016332    0.031388
   6 C :   -0.135068   -0.002721
   7 C :   -0.088740    0.012454
   8 C :   -0.088568    0.012472
   9 C :   -0.134604   -0.002737
  10 H :    0.065259   -0.001450
  11 H :    0.050107   -0.000879
  12 H :    0.050227   -0.000877
  13 H :    0.065565   -0.001449
  14 C :   -0.269656   -0.008921
  15 H :    0.109170    0.002983
  16 H :    0.121884    0.000282
  17 H :    0.098200    0.000618
  18 C :   -0.269982   -0.008920
  19 H :    0.109293    0.002985
  20 H :    0.121980    0.000281
  21 H :    0.098242    0.000618
  22 O :   -0.474825    0.394308
  23 O :   -0.474739    0.394332
Sum of atomic charges         :   -1.0000000
Sum of atomic spin populations:    1.0000000

-----------------------------------------------------
MULLIKEN REDUCED ORBITAL CHARGES AND SPIN POPULATIONS
-----------------------------------------------------
CHARGE
  0 C s       :     3.101614  s :     3.101614
      pz      :     0.801722  p :     2.700955
      px      :     0.965043
      py      :     0.934190
      dz2     :     0.020160  d :     0.068803
      dxz     :     0.010287
      dyz     :     0.022081
      dx2y2   :     0.007580
      dxy     :     0.008695

  1 C s       :     3.105637  s :     3.105637
      pz      :     0.981126  p :     2.974074
      px      :     1.025871
      py      :     0.967076
      dz2     :     0.010963  d :     0.041891
      dxz     :     0.006342
      dyz     :     0.012185
      dx2y2   :     0.005842
      dxy     :     0.006558

  2 C s       :     3.106099  s :     3.106099
      pz      :     0.967241  p :     2.974351
      px      :     1.025855
      py      :     0.981255
      dz2     :     0.009949  d :     0.041890
      dxz     :     0.007149
      dyz     :     0.013742
      dx2y2   :     0.005299
      dxy     :     0.005751

  3 C s       :     3.101553  s :     3.101553
      pz      :     0.828364  p :     2.700766
      px      :     0.965048
      py      :     0.907353
      dz2     :     0.020836  d :     0.068803
      dxz     :     0.012024
      dyz     :     0.021357
      dx2y2   :     0.007628
      dxy     :     0.006958

  4 C s       :     3.091728  s :     3.091728
      pz      :     0.927745  p :     2.850592
      px      :     0.996172
      py      :     0.926675
      dz2     :     0.010829  d :     0.041321
      dxz     :     0.005759
      dyz     :     0.012384
      dx2y2   :     0.005803
      dxy     :     0.006545

  5 C s       :     3.091785  s :     3.091785
      pz      :     0.986063  p :     2.850560
      px      :     0.996188
      py      :     0.868309
      dz2     :     0.009873  d :     0.041322
      dxz     :     0.006199
      dyz     :     0.013615
      dx2y2   :     0.005530
      dxy     :     0.006105

  6 C s       :     3.288290  s :     3.288290
      pz      :     0.812256  p :     2.810028
      px      :     0.970276
      py      :     1.027497
      dz2     :     0.009880  d :     0.036750
      dxz     :     0.003542
      dyz     :     0.012543
      dx2y2   :     0.005069
      dxy     :     0.005715

  7 C s       :     3.168265  s :     3.168265
      pz      :     0.974260  p :     2.883165
      px      :     1.039804
      py      :     0.869100
      dz2     :     0.011626  d :     0.037310
      dxz     :     0.007199
      dyz     :     0.009573
      dx2y2   :     0.006969
      dxy     :     0.001944

  8 C s       :     3.168641  s :     3.168641
      pz      :     0.887902  p :     2.882618
      px      :     1.039722
      py      :     0.954993
      dz2     :     0.008594  d :     0.037309
      dxz     :     0.003428
      dyz     :     0.014692
      dx2y2   :     0.004879
      dxy     :     0.005716

  9 C s       :     3.287960  s :     3.287960
      pz      :     0.940633  p :     2.809892
      px      :     0.970333
      py      :     0.898926
      dz2     :     0.009608  d :     0.036752
      dxz     :     0.002739
      dyz     :     0.012760
      dx2y2   :     0.005127
      dxy     :     0.006519

 10 H s       :     0.934741  s :     0.934741

 11 H s       :     0.949893  s :     0.949893

 12 H s       :     0.949773  s :     0.949773

 13 H s       :     0.934435  s :     0.934435

 14 C s       :     3.059028  s :     3.059028
      pz      :     1.066221  p :     3.178967
      px      :     1.064335
      py      :     1.048411
      dz2     :     0.005951  d :     0.031660
      dxz     :     0.005434
      dyz     :     0.006577
      dx2y2   :     0.006344
      dxy     :     0.007355

 15 H s       :     0.890830  s :     0.890830

 16 H s       :     0.878116  s :     0.878116

 17 H s       :     0.901800  s :     0.901800

 18 C s       :     3.059079  s :     3.059079
      pz      :     1.074213  p :     3.179241
      px      :     1.064423
      py      :     1.040605
      dz2     :     0.006564  d :     0.031662
      dxz     :     0.006789
      dyz     :     0.006279
      dx2y2   :     0.006027
      dxy     :     0.006003

 19 H s       :     0.890707  s :     0.890707

 20 H s       :     0.878020  s :     0.878020

 21 H s       :     0.901758  s :     0.901758

 22 O s       :     3.859769  s :     3.859769
      pz      :     1.415745  p :     4.606005
      px      :     1.449852
      py      :     1.740408
      dz2     :     0.003228  d :     0.009051
      dxz     :     0.001883
      dyz     :     0.003029
      dx2y2   :     0.000446
      dxy     :     0.000466

 23 O s       :     3.859749  s :     3.859749
      pz      :     1.417891  p :     4.605939
      px      :     1.449815
      py      :     1.738234
      dz2     :     0.003221  d :     0.009051
      dxz     :     0.001858
      dyz     :     0.003050
      dx2y2   :     0.000431
      dxy     :     0.000491


SPIN
  0 C s       :     0.002860  s :     0.002860
      pz      :    -0.008416  p :    -0.004296
      px      :     0.013841
      py      :    -0.009722
      dz2     :    -0.000009  d :     0.003132
      dxz     :     0.002265
      dyz     :    -0.000106
      dx2y2   :    -0.000218
      dxy     :     0.001200

  1 C s       :     0.005583  s :     0.005583
      pz      :     0.000762  p :     0.064101
      px      :     0.064776
      py      :    -0.001438
      dz2     :     0.000078  d :     0.000531
      dxz     :    -0.000165
      dyz     :    -0.000132
      dx2y2   :    -0.000228
      dxy     :     0.000978

  2 C s       :     0.005576  s :     0.005576
      pz      :     0.001480  p :     0.064067
      px      :     0.064760
      py      :    -0.002172
      dz2     :    -0.000115  d :     0.000531
      dxz     :     0.000688
      dyz     :     0.000010
      dx2y2   :    -0.000177
      dxy     :     0.000125

  3 C s       :     0.002868  s :     0.002868
      pz      :    -0.007608  p :    -0.004283
      px      :     0.013849
      py      :    -0.010524
      dz2     :    -0.000075  d :     0.003131
      dxz     :     0.003000
      dyz     :    -0.000076
      dx2y2   :    -0.000183
      dxy     :     0.000465

  4 C s       :     0.002441  s :     0.002441
      pz      :    -0.000792  p :     0.028647
      px      :     0.032513
      py      :    -0.003074
      dz2     :     0.000044  d :     0.000343
      dxz     :    -0.000036
      dyz     :    -0.000109
      dx2y2   :    -0.000115
      dxy     :     0.000560

  5 C s       :     0.002427  s :     0.002427
      pz      :     0.000901  p :     0.028618
      px      :     0.032501
      py      :    -0.004784
      dz2     :    -0.000102  d :     0.000343
      dxz     :     0.000342
      dyz     :     0.000009
      dx2y2   :    -0.000088
      dxy     :     0.000182

  6 C s       :     0.000186  s :     0.000186
      pz      :    -0.000492  p :    -0.003231
      px      :    -0.000531
      py      :    -0.002208
      dz2     :    -0.000023  d :     0.000324
      dxz     :     0.000087
      dyz     :    -0.000001
      dx2y2   :     0.000013
      dxy     :     0.000248

  7 C s       :     0.001143  s :     0.001143
      pz      :    -0.000057  p :     0.011239
      px      :     0.011014
      py      :     0.000282
      dz2     :    -0.000011  d :     0.000072
      dxz     :     0.000127
      dyz     :     0.000000
      dx2y2   :    -0.000033
      dxy     :    -0.000011

  8 C s       :     0.001144  s :     0.001144
      pz      :     0.000069  p :     0.011256
      px      :     0.011027
      py      :     0.000159
      dz2     :     0.000010  d :     0.000072
      dxz     :     0.000070
      dyz     :    -0.000015
      dx2y2   :    -0.000039
      dxy     :     0.000046

  9 C s       :     0.000181  s :     0.000181
      pz      :    -0.000402  p :    -0.003241
      px      :    -0.000540
      py      :    -0.002299
      dz2     :     0.000011  d :     0.000324
      dxz     :     0.000028
      dyz     :    -0.000013
      dx2y2   :    -0.000010
      dxy     :     0.000308

 10 H s       :    -0.001450  s :    -0.001450

 11 H s       :    -0.000879  s :    -0.000879

 12 H s       :    -0.000877  s :    -0.000877

 13 H s       :    -0.001449  s :    -0.001449

 14 C s       :    -0.002414  s :    -0.002414
      pz      :    -0.000857  p :    -0.006866
      px      :    -0.001886
      py      :    -0.004123
      dz2     :     0.000024  d :     0.000358
      dxz     :    -0.000016
      dyz     :    -0.000007
      dx2y2   :     0.000003
      dxy     :     0.000355

 15 H s       :     0.002983  s :     0.002983

 16 H s       :     0.000282  s :     0.000282

 17 H s       :     0.000618  s :     0.000618

 18 C s       :    -0.002413  s :    -0.002413
      pz      :    -0.002176  p :    -0.006866
      px      :    -0.001886
      py      :    -0.002803
      dz2     :     0.000000  d :     0.000358
      dxz     :     0.000166
      dyz     :     0.000004
      dx2y2   :     0.000015
      dxy     :     0.000173

 19 H s       :     0.002985  s :     0.002985

 20 H s       :     0.000281  s :     0.000281

 21 H s       :     0.000618  s :     0.000618

 22 O s       :     0.007875  s :     0.007875
      pz      :     0.009279  p :     0.386784
      px      :     0.371212
      py      :     0.006292
      dz2     :    -0.000018  d :    -0.000350
      dxz     :    -0.000280
      dyz     :    -0.000010
      dx2y2   :     0.000024
      dxy     :    -0.000067

 23 O s       :     0.007876  s :     0.007876
      pz      :     0.009349  p :     0.386806
      px      :     0.371237
      py      :     0.006221
      dz2     :    -0.000017  d :    -0.000350
      dxz     :    -0.000276
      dyz     :    -0.000011
      dx2y2   :     0.000024
      dxy     :    -0.000071



                     *******************************
                     * LOEWDIN POPULATION ANALYSIS *
                     *******************************

-------------------------------------------
LOEWDIN ATOMIC CHARGES AND SPIN POPULATIONS
-------------------------------------------
   0 C :    0.034518    0.024441
   1 C :   -0.075749    0.057770
   2 C :   -0.075757    0.057757
   3 C :    0.034530    0.024448
   4 C :   -0.046335    0.026544
   5 C :   -0.046330    0.026533
   6 C :   -0.111556   -0.001211
   7 C :   -0.160731    0.011538
   8 C :   -0.160645    0.011550
   9 C :   -0.111539   -0.001219
  10 H :    0.126605   -0.000602
  11 H :    0.108338   -0.000423
  12 H :    0.108364   -0.000423
  13 H :    0.126666   -0.000601
  14 C :   -0.331855   -0.003315
  15 H :    0.119914    0.002758
  16 H :    0.125997    0.000525
  17 H :    0.109588    0.000634
  18 C :   -0.331938   -0.003315
  19 H :    0.119947    0.002760
  20 H :    0.126028    0.000525
  21 H :    0.109597    0.000634
  22 O :   -0.398854    0.381334
  23 O :   -0.398803    0.381359

----------------------------------------------------
LOEWDIN REDUCED ORBITAL CHARGES AND SPIN POPULATIONS
----------------------------------------------------
CHARGE
  0 C s       :     2.859587  s :     2.859587
      pz      :     0.947640  p :     2.945883
      px      :     0.952269
      py      :     1.045974
      dz2     :     0.048368  d :     0.160012
      dxz     :     0.019247
      dyz     :     0.055618
      dx2y2   :     0.019261
      dxy     :     0.017517

  1 C s       :     2.861719  s :     2.861719
      pz      :     1.038042  p :     3.107867
      px      :     0.999369
      py      :     1.070456
      dz2     :     0.028537  d :     0.106163
      dxz     :     0.011938
      dyz     :     0.036403
      dx2y2   :     0.015909
      dxy     :     0.013376

  2 C s       :     2.861737  s :     2.861737
      pz      :     1.075663  p :     3.107856
      px      :     0.999362
      py      :     1.032831
      dz2     :     0.030474  d :     0.106163
      dxz     :     0.015326
      dyz     :     0.036681
      dx2y2   :     0.013695
      dxy     :     0.009987

  3 C s       :     2.859585  s :     2.859585
      pz      :     0.961852  p :     2.945873
      px      :     0.952267
      py      :     1.031753
      dz2     :     0.050576  d :     0.160011
      dxz     :     0.022852
      dyz     :     0.053482
      dx2y2   :     0.019189
      dxy     :     0.013912

  4 C s       :     2.849241  s :     2.849241
      pz      :     1.055864  p :     3.088147
      px      :     0.976325
      py      :     1.055959
      dz2     :     0.031114  d :     0.108947
      dxz     :     0.011510
      dyz     :     0.037173
      dx2y2   :     0.015949
      dxy     :     0.013201

  5 C s       :     2.849242  s :     2.849242
      pz      :     1.057120  p :     3.088140
      px      :     0.976332
      py      :     1.054689
      dz2     :     0.029565  d :     0.108948
      dxz     :     0.012649
      dyz     :     0.039290
      dx2y2   :     0.015383
      dxy     :     0.012061

  6 C s       :     2.898121  s :     2.898121
      pz      :     1.079970  p :     3.122349
      px      :     0.969245
      py      :     1.073134
      dz2     :     0.025080  d :     0.091086
      dxz     :     0.006318
      dyz     :     0.034050
      dx2y2   :     0.013667
      dxy     :     0.011971

  7 C s       :     2.895217  s :     2.895217
      pz      :     1.092470  p :     3.172661
      px      :     1.023957
      py      :     1.056234
      dz2     :     0.032885  d :     0.092854
      dxz     :     0.015206
      dyz     :     0.027696
      dx2y2   :     0.014020
      dxy     :     0.003047

  8 C s       :     2.895212  s :     2.895212
      pz      :     1.058220  p :     3.172576
      px      :     1.023902
      py      :     1.090454
      dz2     :     0.022511  d :     0.092857
      dxz     :     0.006723
      dyz     :     0.038932
      dx2y2   :     0.013158
      dxy     :     0.011532

  9 C s       :     2.898096  s :     2.898096
      pz      :     1.077637  p :     3.122358
      px      :     0.969288
      py      :     1.075433
      dz2     :     0.024355  d :     0.091086
      dxz     :     0.005002
      dyz     :     0.034020
      dx2y2   :     0.014421
      dxy     :     0.013287

 10 H s       :     0.873395  s :     0.873395

 11 H s       :     0.891662  s :     0.891662

 12 H s       :     0.891636  s :     0.891636

 13 H s       :     0.873334  s :     0.873334

 14 C s       :     2.946868  s :     2.946868
      pz      :     1.123941  p :     3.313854
      px      :     1.121643
      py      :     1.068271
      dz2     :     0.013809  d :     0.071132
      dxz     :     0.012289
      dyz     :     0.013928
      dx2y2   :     0.015435
      dxy     :     0.015671

 15 H s       :     0.880086  s :     0.880086

 16 H s       :     0.874003  s :     0.874003

 17 H s       :     0.890412  s :     0.890412

 18 C s       :     2.946850  s :     2.946850
      pz      :     1.094930  p :     3.313958
      px      :     1.121685
      py      :     1.097344
      dz2     :     0.014712  d :     0.071130
      dxz     :     0.014655
      dyz     :     0.015260
      dx2y2   :     0.013198
      dxy     :     0.013305

 19 H s       :     0.880053  s :     0.880053

 20 H s       :     0.873972  s :     0.873972

 21 H s       :     0.890403  s :     0.890403

 22 O s       :     3.690971  s :     3.690971
      pz      :     1.465027  p :     4.693246
      px      :     1.461385
      py      :     1.766835
      dz2     :     0.005571  d :     0.014636
      dxz     :     0.002483
      dyz     :     0.005315
      dx2y2   :     0.000667
      dxy     :     0.000601

 23 O s       :     3.690968  s :     3.690968
      pz      :     1.467337  p :     4.693199
      px      :     1.461348
      py      :     1.764513
      dz2     :     0.005610  d :     0.014636
      dxz     :     0.002433
      dyz     :     0.005300
      dx2y2   :     0.000642
      dxy     :     0.000651


SPIN
  0 C s       :    -0.001442  s :    -0.001442
      pz      :    -0.006651  p :     0.019594
      px      :     0.029252
      py      :    -0.003008
      dz2     :     0.000116  d :     0.006289
      dxz     :     0.004301
      dyz     :     0.000015
      dx2y2   :    -0.000267
      dxy     :     0.002124

  1 C s       :     0.001251  s :     0.001251
      pz      :     0.000859  p :     0.055471
      px      :     0.055207
      py      :    -0.000594
      dz2     :     0.000120  d :     0.001047
      dxz     :     0.000157
      dyz     :    -0.000308
      dx2y2   :    -0.000262
      dxy     :     0.001340

  2 C s       :     0.001252  s :     0.001252
      pz      :    -0.000496  p :     0.055457
      px      :     0.055194
      py      :     0.000760
      dz2     :    -0.000250  d :     0.001048
      dxz     :     0.001395
      dyz     :     0.000029
      dx2y2   :    -0.000228
      dxy     :     0.000102

  3 C s       :    -0.001442  s :    -0.001442
      pz      :    -0.007027  p :     0.019601
      px      :     0.029261
      py      :    -0.002632
      dz2     :     0.000039  d :     0.006289
      dxz     :     0.005552
      dyz     :     0.000066
      dx2y2   :    -0.000242
      dxy     :     0.000873

  4 C s       :     0.000243  s :     0.000243
      pz      :     0.000143  p :     0.025689
      px      :     0.026407
      py      :    -0.000861
      dz2     :     0.000066  d :     0.000612
      dxz     :     0.000006
      dyz     :    -0.000270
      dx2y2   :    -0.000134
      dxy     :     0.000943

  5 C s       :     0.000243  s :     0.000243
      pz      :    -0.000769  p :     0.025678
      px      :     0.026398
      py      :     0.000049
      dz2     :    -0.000251  d :     0.000612
      dxz     :     0.000711
      dyz     :     0.000034
      dx2y2   :    -0.000121
      dxy     :     0.000239

  6 C s       :    -0.000414  s :    -0.000414
      pz      :    -0.000492  p :    -0.001616
      px      :    -0.000464
      py      :    -0.000660
      dz2     :    -0.000035  d :     0.000818
      dxz     :     0.000115
      dyz     :    -0.000002
      dx2y2   :     0.000034
      dxy     :     0.000707

  7 C s       :     0.000315  s :     0.000315
      pz      :     0.000051  p :     0.011014
      px      :     0.010765
      py      :     0.000198
      dz2     :    -0.000025  d :     0.000209
      dxz     :     0.000306
      dyz     :    -0.000008
      dx2y2   :    -0.000045
      dxy     :    -0.000019

  8 C s       :     0.000315  s :     0.000315
      pz      :     0.000214  p :     0.011026
      px      :     0.010776
      py      :     0.000036
      dz2     :     0.000013  d :     0.000209
      dxz     :     0.000222
      dyz     :    -0.000038
      dx2y2   :    -0.000053
      dxy     :     0.000064

  9 C s       :    -0.000415  s :    -0.000415
      pz      :    -0.000435  p :    -0.001624
      px      :    -0.000471
      py      :    -0.000717
      dz2     :     0.000006  d :     0.000819
      dxz     :     0.000221
      dyz     :     0.000002
      dx2y2   :    -0.000012
      dxy     :     0.000601

 10 H s       :    -0.000602  s :    -0.000602

 11 H s       :    -0.000423  s :    -0.000423

 12 H s       :    -0.000423  s :    -0.000423

 13 H s       :    -0.000601  s :    -0.000601

 14 C s       :    -0.000770  s :    -0.000770
      pz      :    -0.000697  p :    -0.003494
      px      :    -0.000829
      py      :    -0.001969
      dz2     :     0.000069  d :     0.000949
      dxz     :    -0.000038
      dyz     :    -0.000013
      dx2y2   :     0.000058
      dxy     :     0.000873

 15 H s       :     0.002758  s :     0.002758

 16 H s       :     0.000525  s :     0.000525

 17 H s       :     0.000634  s :     0.000634

 18 C s       :    -0.000771  s :    -0.000771
[...]
     71       0.000287  -0.000419   0.000107   0.000016   0.000157  -0.000260


-----------
IR SPECTRUM
-----------

 Mode   freq       eps      Int      T**2         TX        TY        TZ
       cm**-1   L/(mol*cm) km/mol    a.u.
----------------------------------------------------------------------------
  6:     78.30   0.001256    6.35  0.005006  (-0.070692  0.001337  0.002512)
  7:    113.96   0.000000    0.00  0.000000  ( 0.000469 -0.000048 -0.000072)
  8:    124.07   0.000000    0.00  0.000000  ( 0.000016 -0.000010  0.000070)
  9:    157.75   0.000000    0.00  0.000000  (-0.000161  0.000045 -0.000017)
 10:    164.40   0.000043    0.22  0.000082  ( 0.009031 -0.000013 -0.000331)
 11:    184.51   0.000234    1.18  0.000396  ( 0.019880 -0.000462 -0.000771)
 12:    254.16   0.000461    2.33  0.000566  ( 0.000990  0.010616  0.021277)
 13:    290.60   0.000061    0.31  0.000065  ( 0.008084 -0.000193 -0.000283)
 14:    312.45   0.000315    1.59  0.000315  ( 0.000022  0.015902 -0.007858)
 15:    344.00   0.000025    0.13  0.000022  ( 0.000174  0.002174  0.004210)
 16:    394.62   0.001558    7.87  0.001232  (-0.000005  0.031423 -0.015646)
 17:    432.91   0.000001    0.01  0.000001  (-0.000023 -0.000844 -0.000394)
 18:    433.26   0.000044    0.22  0.000032  (-0.000247 -0.002414 -0.005115)
 19:    435.02   0.001123    5.68  0.000806  (-0.000011 -0.025411  0.012654)
 20:    460.64   0.000070    0.35  0.000047  ( 0.006869 -0.000091 -0.000230)
 21:    528.63   0.000007    0.04  0.000004  (-0.000008 -0.001839  0.000949)
 22:    537.12   0.000000    0.00  0.000000  (-0.000050 -0.000077  0.000029)
 23:    620.70   0.003350   16.93  0.001684  ( 0.001670  0.018257  0.036715)
 24:    675.87   0.000162    0.82  0.000075  ( 0.000051 -0.007753  0.003831)
 25:    690.12   0.000353    1.78  0.000159  ( 0.000451  0.005630  0.011295)
 26:    705.88   0.000000    0.00  0.000000  ( 0.000178  0.000072  0.000007)
 27:    713.52   0.010431   52.72  0.004562  ( 0.067486 -0.001244 -0.002498)
 28:    794.79   0.002118   10.70  0.000831  (-0.028814  0.000449  0.001012)
 29:    836.01   0.001549    7.83  0.000578  ( 0.000978  0.010781  0.021474)
 30:    836.32   0.000006    0.03  0.000002  (-0.000032  0.000652  0.001407)
 31:    905.82   0.000000    0.00  0.000000  ( 0.000042 -0.000025  0.000018)
 32:    925.40   0.000048    0.24  0.000016  (-0.000003  0.003622 -0.001752)
 33:    998.20   0.000198    1.00  0.000062  (-0.007851  0.000052  0.000354)
 34:   1001.02   0.000152    0.77  0.000047  (-0.000247 -0.003058 -0.006161)
 35:   1013.36   0.000000    0.00  0.000000  ( 0.000100  0.000046  0.000003)
 36:   1017.14   0.006831   34.52  0.002096  ( 0.000047 -0.040974  0.020414)
 37:   1032.41   0.000118    0.60  0.000036  (-0.005964 -0.000116  0.000403)
 38:   1050.76   0.002856   14.44  0.000848  (-0.000042  0.026085 -0.012957)
 39:   1065.94   0.000000    0.00  0.000000  ( 0.000014 -0.000220  0.000094)
 40:   1108.36   0.001237    6.25  0.000348  ( 0.000755  0.008420  0.016634)
 41:   1129.44   0.001937    9.79  0.000535  (-0.000911 -0.010269 -0.020710)
 42:   1140.51   0.000473    2.39  0.000129  ( 0.000004  0.010129 -0.005168)
 43:   1215.44   0.000032    0.16  0.000008  (-0.000004  0.002586 -0.001194)
 44:   1219.01   0.000000    0.00  0.000000  ( 0.000024 -0.000035  0.000323)
 45:   1282.16   0.001794    9.06  0.000437  ( 0.000804  0.014257  0.015252)
 46:   1282.63   0.008510   43.01  0.002071  ( 0.000115 -0.039526  0.022544)
 47:   1359.55   0.003543   17.90  0.000813  ( 0.001207  0.012621  0.025542)
 48:   1379.99   0.001647    8.32  0.000372  ( 0.000003  0.017291 -0.008569)
 49:   1429.00   0.001370    6.92  0.000299  ( 0.000653  0.007780  0.015434)
 50:   1430.82   0.001014    5.12  0.000221  (-0.000011  0.013326 -0.006598)
 51:   1459.80   0.000967    4.88  0.000207  (-0.000021  0.012578 -0.006957)
 52:   1467.18   0.015361   77.63  0.003267  (-0.002479 -0.025633 -0.051031)
 53:   1476.97   0.000001    0.00  0.000000  (-0.000008  0.000276 -0.000179)
 54:   1492.42   0.002724   13.77  0.000570  ( 0.023838 -0.000491 -0.001061)
 55:   1497.34   0.011639   58.82  0.002426  ( 0.000023 -0.044103  0.021925)
 56:   1522.14   0.000212    1.07  0.000044  ( 0.000267  0.002978  0.005879)
 57:   1579.63   0.005563   28.11  0.001099  ( 0.000018  0.029740 -0.014644)
 58:   1609.06   0.083033  419.61  0.016104  (-0.005092 -0.056428 -0.113549)
 59:   1611.20   0.005790   29.26  0.001121  (-0.000007 -0.030216  0.014436)
 60:   1683.84   0.003388   17.12  0.000628  (-0.001010 -0.011167 -0.022409)
 61:   1690.72   0.000086    0.43  0.000016  ( 0.000018  0.003601 -0.001707)
 62:   2997.73   0.003403   17.20  0.000354  (-0.000178  0.006982 -0.017479)
 63:   2998.65   0.033427  168.93  0.003479  ( 0.000031 -0.054043  0.023623)
 64:   3059.95   0.012928   65.33  0.001318  (-0.036282  0.000651  0.001286)
 65:   3063.25   0.000105    0.53  0.000011  (-0.003226 -0.000360  0.000391)
 66:   3142.28   0.000160    0.81  0.000016  ( 0.000069  0.003905  0.000786)
 67:   3143.56   0.001109    5.61  0.000110  ( 0.000395  0.004035  0.009678)
 68:   3159.05   0.003180   16.07  0.000314  ( 0.000701  0.007903  0.015848)
 69:   3178.97   0.009965   50.36  0.000978  ( 0.000014 -0.027993  0.013951)
 70:   3209.61   0.001927    9.74  0.000187  (-0.000518 -0.005288 -0.012615)
 71:   3212.12   0.004584   23.17  0.000445  ( 0.000013  0.019147 -0.008874)

* The epsilon (eps) is given for a Dirac delta lineshape.
** The dipole moment derivative (T) already includes vibrational overlap.

The first frequency considered to be a vibration is 6
The total number of vibrations considered is 66


--------------------------
THERMOCHEMISTRY AT 298.15K
--------------------------

Temperature         ...   298.15 K
Pressure            ...     1.00 atm
Total Mass          ...   186.21 AMU
Quasi RRHO          ...     True
Cut-Off Frequency   ...     1.00 cm^-1

Throughout the following assumptions are being made:
  (1) The electronic state is orbitally nondegenerate
      but the spin degeneracy is treated
  (2) There are no thermally accessible electronically excited states
  (3) Hindered rotations indicated by low frequency modes are not
      treated as such but are treated as vibrations and this may
      cause some error
  (4) All equations used are the standard statistical mechanics
      equations for an ideal gas
  (5) All vibrations are strictly harmonic

freq.      78.30  E(vib)   ...       0.49 
freq.     113.96  E(vib)   ...       0.44 
freq.     124.07  E(vib)   ...       0.43 
freq.     157.75  E(vib)   ...       0.40 
freq.     164.40  E(vib)   ...       0.39 
freq.     184.51  E(vib)   ...       0.37 
freq.     254.16  E(vib)   ...       0.30 
freq.     290.60  E(vib)   ...       0.27 
freq.     312.45  E(vib)   ...       0.25 
freq.     344.00  E(vib)   ...       0.23 
freq.     394.62  E(vib)   ...       0.20 
freq.     432.91  E(vib)   ...       0.17 
freq.     433.26  E(vib)   ...       0.17 
freq.     435.02  E(vib)   ...       0.17 
freq.     460.64  E(vib)   ...       0.16 
freq.     528.63  E(vib)   ...       0.13 
freq.     537.12  E(vib)   ...       0.12 
freq.     620.70  E(vib)   ...       0.09 
freq.     675.87  E(vib)   ...       0.08 
freq.     690.12  E(vib)   ...       0.07 
freq.     705.88  E(vib)   ...       0.07 
freq.     713.52  E(vib)   ...       0.07 
freq.     794.79  E(vib)   ...       0.05 
freq.     836.01  E(vib)   ...       0.04 
freq.     836.32  E(vib)   ...       0.04 
freq.     905.82  E(vib)   ...       0.03 
freq.     925.40  E(vib)   ...       0.03 
freq.     998.20  E(vib)   ...       0.02 
freq.    1001.02  E(vib)   ...       0.02 
freq.    1013.36  E(vib)   ...       0.02 
freq.    1017.14  E(vib)   ...       0.02 
freq.    1032.41  E(vib)   ...       0.02 
freq.    1050.76  E(vib)   ...       0.02 
freq.    1065.94  E(vib)   ...       0.02 
freq.    1108.36  E(vib)   ...       0.02 
freq.    1129.44  E(vib)   ...       0.01 
freq.    1140.51  E(vib)   ...       0.01 
freq.    1215.44  E(vib)   ...       0.01 
freq.    1219.01  E(vib)   ...       0.01 
freq.    1282.16  E(vib)   ...       0.01 
freq.    1282.63  E(vib)   ...       0.01 
freq.    1359.55  E(vib)   ...       0.01 
freq.    1379.99  E(vib)   ...       0.01 
freq.    1429.00  E(vib)   ...       0.00 
freq.    1430.82  E(vib)   ...       0.00 
freq.    1459.80  E(vib)   ...       0.00 
freq.    1467.18  E(vib)   ...       0.00 
freq.    1476.97  E(vib)   ...       0.00 
freq.    1492.42  E(vib)   ...       0.00 
freq.    1497.34  E(vib)   ...       0.00 
freq.    1522.14  E(vib)   ...       0.00 
freq.    1579.63  E(vib)   ...       0.00 
freq.    1609.06  E(vib)   ...       0.00 
freq.    1611.20  E(vib)   ...       0.00 
freq.    1683.84  E(vib)   ...       0.00 
freq.    1690.72  E(vib)   ...       0.00 
freq.    2997.73  E(vib)   ...       0.00 
freq.    2998.65  E(vib)   ...       0.00 
freq.    3059.95  E(vib)   ...       0.00 
freq.    3063.25  E(vib)   ...       0.00 
freq.    3142.28  E(vib)   ...       0.00 
freq.    3143.56  E(vib)   ...       0.00 
freq.    3159.05  E(vib)   ...       0.00 
freq.    3178.97  E(vib)   ...       0.00 
freq.    3209.61  E(vib)   ...       0.00 
freq.    3212.12  E(vib)   ...       0.00 

------------
INNER ENERGY
------------

The inner energy is: U= E(el) + E(ZPE) + E(vib) + E(rot) + E(trans)
    E(el)   - is the total energy from the electronic structure calculation
              = E(kin-el) + E(nuc-el) + E(el-el) + E(nuc-nuc)
    E(ZPE)  - the the zero temperature vibrational energy from the frequency calculation
    E(vib)  - the the finite temperature correction to E(ZPE) due to population
              of excited vibrational states
    E(rot)  - is the rotational thermal energy
    E(trans)- is the translational thermal energy

Summary of contributions to the inner energy U:
Electronic energy                ...   -612.67263823 Eh
Zero point energy                ...      0.18763455 Eh     117.74 kcal/mol
Thermal vibrational correction   ...      0.00885803 Eh       5.56 kcal/mol
Thermal rotational correction    ...      0.00141627 Eh       0.89 kcal/mol
Thermal translational correction ...      0.00141627 Eh       0.89 kcal/mol
-----------------------------------------------------------------------
Total thermal energy                   -612.47331310 Eh


Summary of corrections to the electronic energy:
(perhaps to be used in another calculation)
Total thermal correction                  0.01169057 Eh       7.34 kcal/mol
Non-thermal (ZPE) correction              0.18763455 Eh     117.74 kcal/mol
-----------------------------------------------------------------------
Total correction                          0.19932513 Eh     125.08 kcal/mol


--------
ENTHALPY
--------

The enthalpy is H = U + kB*T
                kB is Boltzmann's constant
Total thermal energy              ...   -612.47331310 Eh 
Thermal Enthalpy correction       ...      0.00094421 Eh       0.59 kcal/mol
-----------------------------------------------------------------------
Total Enthalpy                    ...   -612.47236889 Eh


Note: Only C1 symmetry has been detected, increase convergence thresholds 
      if your molecule has a higher symmetry. Symmetry factor of 1.0 is   
      used for the rotational entropy correction. 
 

Note: Rotational entropy computed according to Herzberg 
Infrared and Raman Spectra, Chapter V,1, Van Nostrand Reinhold, 1945 
Point Group:  C1, Symmetry Number:   1  
Rotational constants in cm-1:     0.036449     0.021992     0.013787 

Vibrational entropy computed according to the QRRHO of S. Grimme
Chem.Eur.J. 2012 18 9955 using a reference frequency of 100.0 cm-1


-------
ENTROPY
-------

The entropy contributions are T*S = T*(S(el)+S(vib)+S(rot)+S(trans))
     S(el)   - electronic entropy
     S(vib)  - vibrational entropy
     S(rot)  - rotational entropy
     S(trans)- translational entropy
The entropies will be listed as multiplied by the temperature to get
units of energy

Electronic entropy                ...      0.00065446 Eh      0.41 kcal/mol
Vibrational entropy               ...      0.01489371 Eh      9.35 kcal/mol
Rotational entropy                ...      0.01489875 Eh      9.35 kcal/mol
Translational entropy             ...      0.01975174 Eh     12.39 kcal/mol
-----------------------------------------------------------------------
Final entropy term                ...      0.05019866 Eh     31.50 kcal/mol

In case the symmetry of your molecule has not been determined correctly
or in case you have a reason to use a different symmetry number we print 
out the resulting rotational entropy values for sn=1,12:

 non-linear molecules -----------------------------------
|  sn= 1 | S(rot)=       0.01489875 Eh      9.35 kcal/mol|
|  sn= 2 | S(rot)=       0.01424429 Eh      8.94 kcal/mol|
|  sn= 3 | S(rot)=       0.01386146 Eh      8.70 kcal/mol|
|  sn= 4 | S(rot)=       0.01358984 Eh      8.53 kcal/mol|
|  sn= 5 | S(rot)=       0.01337915 Eh      8.40 kcal/mol|
|  sn= 6 | S(rot)=       0.01320700 Eh      8.29 kcal/mol|
|  sn= 7 | S(rot)=       0.01306146 Eh      8.20 kcal/mol|
|  sn= 8 | S(rot)=       0.01293538 Eh      8.12 kcal/mol|
|  sn= 9 | S(rot)=       0.01282417 Eh      8.05 kcal/mol|
|  sn=10 | S(rot)=       0.01272469 Eh      7.98 kcal/mol|
|  sn=11 | S(rot)=       0.01263470 Eh      7.93 kcal/mol|
|  sn=12 | S(rot)=       0.01255255 Eh      7.88 kcal/mol|
 linear molecules ---------------------------------------
|  Dinfh | S(rot)=       0.00937068 Eh      5.88 kcal/mol|
|  Cinfv | S(rot)=       0.01002514 Eh      6.29 kcal/mol|
 --------------------------------------------------------


-------------------
GIBBS FREE ENERGY
-------------------

The Gibbs free energy is G = H - T*S

Total enthalpy                    ...   -612.47236889 Eh 
Total entropy correction          ...     -0.05019866 Eh    -31.50 kcal/mol
-----------------------------------------------------------------------
Final Gibbs free energy         ...   -612.52256755 Eh

For completeness - the Gibbs free energy minus the electronic energy
G-E(el)                           ...      0.15007068 Eh     94.17 kcal/mol


Maximum memory used throughout the entire PROP-calculation: 151.1 MB

--------------------------------
SUGGESTED CITATIONS FOR THIS RUN
--------------------------------

Below you find a list of papers that are relevant to this ORCA run
We neither can nor want to force you to cite these papers, but we appreciate if you do
You receive ORCA, which is the product of decades of hard work by many enthusiastic individuals, for free
The only thing we kindly ask in return is that you cite our papers,
We deeply appreciate it, if you show your appreciation for ORCA by not just citing the generic ORCA reference.

Please note that relegating all ORCA citations to the supporting information does *not* help us.
SI sections are not indexed - citations you put there will not count into any citation statistics
But we need these citations in order to attract the funding resources that allow us to do what we are doing

Therefore, if you are a happy ORCA user, please consider citing a few of the papers listed below in the main body of your paper

In addition to the list printed below, the program has created the file cs_rporg_w09_red_opt_01.bibtex that contains the list in bibtex format
You can import this file easily into all common literature databanks and citation aid programs


List of essential papers. We consider these as the minimum necessary citations

  1. Neese,F.
     Software update: the ORCA program system, version 5.0
     WIRES Comput. Molec. Sci., 2022 12(1)e1606
     doi.org/10.1002/wcms.1606

List of papers to cite with high priority. The work reported in these papers was absolutely
necessary for this run to complete.
Our perspective: the developers of density functionals and basis sets usually get cited in chemistry papers
Good! But without the algorithms to do something with them, the functionals or basis sets would not do anything.
Hence, in our opinion, the algorithm design and method developments papers are equally worthy of getting cited

  1. Neese,F.
     An improvement of the resolution of the identity approximation for the formation of the Coulomb matrix
     J. Comp. Chem., 2003 24(14)1740-1747
     doi.org/10.1002/jcc.10318
  2. Neese,F.; Wennmohs,F.; Hansen,A.; Becker,U.
     Efficient, approximate and parallel Hartree-Fock and hybrid DFT calculations. A 'chain-of-spheres' algorithm for the Hartree-Fock exchange
     Chem. Phys., 2009 356(1-3)98-109
     doi.org/10.1016/j.chemphys.2008.10.036
  3. Bykov,D.; Petrenko,T.; Izsak,R.; Kossmann,S.; Becker,U.; Valeev,E.; Neese,F.
     Efficient implementation of the analytic second derivatives of Hartree-Fock and hybrid DFT energies: a detailed analysis of different approximations
     Molec. Phys., 2015 113 1961-1977
     doi.org/10.1080/00268976.2015.1025114
  4. Helmich-Paris,B.; de Souza,B.; Neese,F.; Izsák,R.
     An improved chain of spheres for exchange algorithm
     J. Chem. Phys., 2021 155 104109
     doi.org/doi: 10.1063/5.0058766.
  5. Neese,F.
     The SHARK Integral Generation and Digestion System
     J. Comp. Chem., 2022  1-16
     doi.org/10.1002/jcc.26942
  6. Grimme,S.; Antony,J.; Ehrlich,S.; Krieg,H.
     A consistent and accurate ab initio parametrization of density functional dispersion correction (DFT-D) for the 94 elements H-Pu
     J. Chem. Phys., 2010 132 154104-XXXX
     doi.org/10.1063/1.3382344
  7. Grimme,S.; Ehrlich,S.; Goerigk,L.
     Effect of the damping function in dispersion corrected density functional theory
     J. Comput. Chem., 2011 32(7)1456-1465
     doi.org/10.1002/jcc.21759

List of suggested additional citations. These are papers that are important in the 'surrounding' of 
of this run, or papers that preceded the highly important papers. If you like your results we are grateful for a citation.

  1. Izsak,R.; Neese,F.
     An overlap fitted chain of spheres exchange method
     J. Chem. Phys., 2011 135 144105
     doi.org/10.1063/1.3646921
  2. Izsak,R.; Hansen,A.; Neese,F.
     The resolution of identity and chain of spheres approximations for the LPNO-CCSD singles Fock term
     Molec. Phys., 2012 110 2413-2417
     doi.org/10.1080/00268976.2012.687466
  3. Neese,F.
     The ORCA program system
     WIRES Comput. Molec. Sci., 2012 2(1)73-78
     doi.org/10.1002/wcms.81
  4. Izsak,R.; Neese,F.; Klopper,W.
     Robust fitting techniques in the chain of spheres approximation to the Fock exchange: The role of the complementary space
     J. Chem. Phys., 2013 139 
     doi.org/10.1063/1.4819264
  5. Neese,F.
     Software update: the ORCA program system, version 4.0
     WIRES Comput. Molec. Sci., 2018 8(1)1-6
     doi.org/10.1002/wcms.1327
  6. Neese,F.; Wennmohs,F.; Becker,U.; Riplinger,C.
     The ORCA quantum chemistry program package
     J. Chem. Phys., 2020 152 Art. No. L224108
     doi.org/10.1063/5.0004608

List of optional additional citations

  1. Neese,F.
     Approximate second-order SCF convergence for spin unrestricted wavefunctions
     Chem. Phys. Lett., 2000 325(1-3)93-98
     doi.org/10.1016/s0009-2614(00)00662-x

Timings for individual modules:

Sum of individual times          ...     1620.572 sec (=  27.010 min)
Startup calculation              ...       68.372 sec (=   1.140 min)   4.2 %
SCF iterations                   ...      924.463 sec (=  15.408 min)  57.0 %
Property integrals               ...       92.345 sec (=   1.539 min)   5.7 %
SCF Response                     ...      295.131 sec (=   4.919 min)  18.2 %
Property calculations            ...      102.240 sec (=   1.704 min)   6.3 %
SCF Gradient evaluation          ...      136.950 sec (=   2.283 min)   8.5 %
Geometry relaxation              ...        1.069 sec (=   0.018 min)   0.1 %
                             ****ORCA TERMINATED NORMALLY****
TOTAL RUN TIME: 0 days 0 hours 27 minutes 45 seconds 525 msec
