
                                 *****************
                                 * O   R   C   A *
                                 *****************

                                            #,                                       
                                            ###                                      
                                            ####                                     
                                            #####                                    
                                            ######                                   
                                           ########,                                 
                                     ,,################,,,,,                         
                               ,,#################################,,                 
                          ,,##########################################,,             
                       ,#########################################, ''#####,          
                    ,#############################################,,   '####,        
                  ,##################################################,,,,####,       
                ,###########''''           ''''###############################       
              ,#####''   ,,,,##########,,,,          '''####'''          '####       
            ,##' ,,,,###########################,,,                        '##       
           ' ,,###''''                  '''############,,,                           
         ,,##''                                '''############,,,,        ,,,,,,###''
      ,#''                                            '''#######################'''  
     '                                                          ''''####''''         
             ,#######,   #######,   ,#######,      ##                                
            ,#'     '#,  ##    ##  ,#'     '#,    #''#        ,####,   ,####,        
            ##       ##  ##   ,#'  ##            #'  '#       #'       #'  '#        
            ##       ##  #######   ##           ,######,      #####,   #    #        
            '#,     ,#'  ##    ##  '#,     ,#' ,#      #,     #,   #   #,  ,#        
             '#######'   ##     ##  '#######'  #'      '#     '####' # '####'        



                #########################################################
                #                        -***-                          #
                #          Department of theory and spectroscopy        #
                #                                                       #
                #                      Frank Neese                      #
                #                                                       #
                #     Directorship, Architecture, Infrastructure        #
                #                    SHARK, DRIVERS                     #
                #        Core code/Algorithms in most modules           #
                #                                                       #
                #        Max Planck Institute fuer Kohlenforschung      #
                #                Kaiser Wilhelm Platz 1                 #
                #                 D-45470 Muelheim/Ruhr                 #
                #                      Germany                          #
                #                                                       #
                #                  All rights reserved                  #
                #                        -***-                          #
                #########################################################


                         Program Version 6.0.0  -   RELEASE  -


 With contributions from (in alphabetic order):
   Daniel Aravena         : Magnetic Suceptibility
   Michael Atanasov       : Ab Initio Ligand Field Theory (pilot matlab implementation)
   Alexander A. Auer      : GIAO ZORA, VPT2 properties, NMR spectrum
   Ute Becker             : All parallelization in ORCA, NUMFREQ, NUMCALC
   Giovanni Bistoni       : ED, misc. LED, open-shell LED, HFLD
   Martin Brehm           : Molecular dynamics
   Dmytro Bykov           : pre 5.0 version of the SCF Hessian
   Marcos Casanova-Páez   : Triplet and SCS-CIS(D). UHF-(DLPNO)-IP/EA/STEOM-CCSD. UHF-CVS-IP/STEOM-CCSD
   Vijay G. Chilkuri      : MRCI spin determinant printing, contributions to CSF-ICE
   Pauline Colinet        : FMM embedding
   Dipayan Datta          : RHF DLPNO-CCSD density
   Achintya Kumar Dutta   : EOM-CC, STEOM-CC
   Nicolas Foglia         : Exact transition moments, OPA infrastructure, MCD improvements
   Dmitry Ganyushin       : Spin-Orbit,Spin-Spin,Magnetic field MRCI
   Miquel Garcia          : C-PCM and meta-GGA Hessian, CCSD/C-PCM, Gaussian charge scheme
   Tiago L. C. Gouveia    : GS-ROHF, GS-ROCIS
   Yang Guo               : DLPNO-NEVPT2, F12-NEVPT2, CIM, IAO-localization
   Andreas Hansen         : Spin unrestricted coupled pair/coupled cluster methods
   Ingolf Harden          : AUTO-CI MPn and infrastructure 
   Benjamin Helmich-Paris : MC-RPA, TRAH-(SCF,CASSCF), AVAS, COSX integrals, SCF dyn. polar.
   Lee Huntington         : MR-EOM, pCC
   Robert Izsak           : Overlap fitted RIJCOSX, COSX-SCS-MP3, EOM
   Riya Kayal             : Wick's Theorem for AUTO-CI, AUTO-CI UHF-CCSDT
   Emily Kempfer          : AUTO-CI, RHF CISDT and CCSDT
   Christian Kollmar      : KDIIS, OOCD, Brueckner-CCSD(T), CCSD density, CASPT2, CASPT2-K, improved NEVPT2
   Axel Koslowski         : Symmetry handling
   Simone Kossmann        : Meta GGA functionals, TD-DFT gradient, OOMP2, (MP2 Hessian; deprecated post 5.0)
   Lucas Lang             : DCDCAS
   Marvin Lechner         : AUTO-CI (C++ implementation), FIC-MRCC
   Spencer Leger          : CASSCF response
   Dagmar Lenk            : GEPOL surface, SMD, ORCA-2-JSON
   Dimitrios Liakos       : Extrapolation schemes; Compound Job, initial MDCI parallelization
   Dimitrios Manganas     : Further ROCIS development; embedding schemes. LFT, Crystal Embedding
   Dimitrios Pantazis     : SARC Basis sets
   Anastasios Papadopoulos: AUTO-CI, single reference methods and gradients
   Taras Petrenko         : pre 6.0 DFT Hessian and TD-DFT gradient, (ASA, deprecated), ECA, 1-Electron XAS/XES, NRVS
   Peter Pinski           : DLPNO-MP2, DLPNO-MP2 Gradient
   Christoph Reimann      : Effective Core Potentials
   Marius Retegan         : Local ZFS, SOC
   Christoph Riplinger    : Optimizer, TS searches, QM/MM, DLPNO-CCSD(T), (RO)-DLPNO pert. Triples
   Michael Roemelt        : Original ROCIS implementation
   Masaaki Saitow         : Open-shell DLPNO-CCSD energy and density
   Barbara Sandhoefer     : DKH picture change effects
   Kantharuban Sivalingam : CASSCF convergence/infrastructure, NEVPT2 and variants, FIC-MRCI
   Bernardo de Souza      : ESD, SOC TD-DFT
   Georgi Stoychev        : AutoAux, RI-MP2 NMR, DLPNO-MP2 response, X2C
   Van Anh Tran           : RI-MP2 g-tensors
   Willem Van den Heuvel  : Paramagnetic NMR
   Zikuan Wang            : NOTCH, Electric field optimization 
   Frank Wennmohs         : Technical directorship and infrastructure
   Hang Xu                : AUTO-CI-Response properties 


 We gratefully acknowledge several colleagues who have allowed us to
 interface, adapt or use parts of their codes:
   Stefan Grimme, W. Hujo, H. Kruse, P. Pracht,  : VdW corrections, initial TS optimization,
                  C. Bannwarth, S. Ehlert,         DFT functionals, gCP, sTDA/sTD-DF
                  L. Wittmann, M. Mueller
   Ed Valeev, F. Pavosevic, A. Kumar             : LibInt (2-el integral package), F12 methods
   Garnet Chan, S. Sharma, J. Yang, R. Olivares  : DMRG
   Ulf Ekstrom                                   : XCFun DFT Library
   Mihaly Kallay                                 : mrcc  (arbitrary order and MRCC methods)
   Frank Weinhold                                : gennbo (NPA and NBO analysis)
   Simon Mueller                                 : openCOSMO-RS
   Christopher J. Cramer and Donald G. Truhlar   : smd solvation model
   Lars Goerigk                                  : TD-DFT with DH, B97 family of functionals
   V. Asgeirsson, H. Jonsson                     : NEB implementation
   FAccTs GmbH                                   : IRC, NEB, NEB-TS, DLPNO-Multilevel, CI-OPT
                                                   MM, QMMM, 2- and 3-layer-ONIOM, Crystal-QMMM,
                                                   LR-CPCM, SF, NACMEs, symmetry and pop. for TD-DFT,
                                                   nearIR, NL-DFT gradient (VV10), updates on ESD,
                                                   ML-optimized integration grids, MBIS, APM,
                                                   GOAT, DOCKER, SOLVATOR, interface openCOSMO-RS
   S Lehtola, MJT Oliveira, MAL Marques          : LibXC Library
   Liviu Ungur et al                             : ANISO software


 Your calculation uses the libint2 library for the computation of 2-el integrals
 For citations please refer to: http://libint.valeyev.net

 Your ORCA version has been built with support for libXC version: 6.2.2
 For citations please refer to: https://libxc.gitlab.io

 This ORCA versions uses:
   CBLAS   interface :  Fast vector & matrix operations
   LAPACKE interface :  Fast linear algebra routines
   SCALAPACK package :  Parallel linear algebra routines
   Shared memory     :  Shared parallel matrices
   BLAS/LAPACK       :  OpenBLAS 0.3.27  USE64BITINT DYNAMIC_ARCH NO_AFFINITY SkylakeX SINGLE_THREADED
        Core in use  :  SkylakeX
   Copyright (c) 2011-2014, The OpenBLAS Project


NOTE: MaxCore=3000 MB was set to SCF,MP2,MDCI,CIPSI,MRCI and CIS
      => If you want to overwrite this, your respective input block should be placed after the MaxCore statement
Your calculation utilizes the atom-pairwise dispersion correction
with the Becke-Johnson damping scheme (D3BJ)


Your calculation utilizes the SMD solvation module
Please cite in your paper:
A.V. Marenich, C.J. Cramer, D.G. Truhlar J. Phys. Chem. B, 113, (2009), 6378 

Warning: RI is on but no J-basis has been assigned. Assigning Def2/J (nothing to worry about!)
================================================================================

----- Orbital basis set information -----
Your calculation utilizes the basis: aug-cc-pVTZ 
    H, B-Ne : Obtained from the ccRepo (grant-hill.group.shef.ac.uk/ccrepo) Feb. 2017
              R. A. Kendall, T. H. Dunning, Jr., R. J. Harrison, J. Chem. Phys. 96, 6796 (1992)
         He : Obtained from the ccRepo (grant-hill.group.shef.ac.uk/ccrepo) Feb. 2017
              D. E. Woon, T. H. Dunning, Jr., J. Chem. Phys. 100, 2975 (1994)
  Li-Be, Na : Obtained from the ccRepo (grant-hill.group.shef.ac.uk/ccrepo) Feb. 2017
              B. P. Prascher, D. E. Woon, K. A. Peterson, T. H. Dunning, Jr., A. K. Wilson, Theor. Chem. Acc. 128, 69 (2011)
         Mg : Obtained from the Peterson Research Group Website (tyr0.chem.wsu.edu/~kipeters) Feb. 2017
              B. P. Prascher, D. E. Woon, K. A. Peterson, T. H. Dunning, Jr., A. K. Wilson, Theor. Chem. Acc. 128, 69 (2011)
      Al-Ar : Obtained from the ccRepo (grant-hill.group.shef.ac.uk/ccrepo) Feb. 2017
              D. E. Woon, T. H. Dunning, Jr., J. Chem. Phys. 98, 1358 (1993)
      Sc-Zn : Obtained from the ccRepo (grant-hill.group.shef.ac.uk/ccrepo) Feb. 2017
              N. B. Balabanov, K. A. Peterson, J. Chem. Phys. 123, 064107 (2005)
              N. B. Balabanov, K. A. Peterson, J. Chem. Phys. 125, 074110 (2006)
      Ga-Kr : Obtained from the ccRepo (grant-hill.group.shef.ac.uk/ccrepo) Feb. 2017
              A. K. Wilson, D. E. Woon, K. A. Peterson, T. H. Dunning, Jr., J. Chem. Phys. 110, 7667 (1999)
     Ag, Au : Obtained from the Peterson Research Group Website (tyr0.chem.wsu.edu/~kipeters) Feb. 2017
              K. A. Peterson, C. Puzzarini, Theor. Chem. Acc. 114, 283 (2005)

----- AuxJ basis set information -----
Your calculation utilizes the auxiliary basis: def2/J
   F. Weigend, Phys. Chem. Chem. Phys. 8, 1057 (2006).

================================================================================
                                        WARNINGS
                       Please study these warnings very carefully!
================================================================================

Using LibXC functional ID 497 : Re-regularized SCAN exchange by Furness et al
[ 1]  J. W. Furness, A. D. Kaplan, J. Ning, J. P. Perdew, and J. Sun.,  J. Phys. Chem. Lett. 11, 8208-8215 (2020)
[ 2]  J. W. Furness, A. D. Kaplan, J. Ning, J. P. Perdew, and J. Sun.,  J. Phys. Chem. Lett. 11, 9248-9248 (2020)
Using LibXC functional ID 498 : Re-regularized SCAN correlation by Furness et al
[ 1]  J. W. Furness, A. D. Kaplan, J. Ning, J. P. Perdew, and J. Sun.,  J. Phys. Chem. Lett. 11, 8208-8215 (2020)
[ 2]  J. W. Furness, A. D. Kaplan, J. Ning, J. P. Perdew, and J. Sun.,  J. Phys. Chem. Lett. 11, 9248-9248 (2020)
Using LibXC functional ID 497 : Re-regularized SCAN exchange by Furness et al
[ 1]  J. W. Furness, A. D. Kaplan, J. Ning, J. P. Perdew, and J. Sun.,  J. Phys. Chem. Lett. 11, 8208-8215 (2020)
[ 2]  J. W. Furness, A. D. Kaplan, J. Ning, J. P. Perdew, and J. Sun.,  J. Phys. Chem. Lett. 11, 9248-9248 (2020)
Using LibXC functional ID 498 : Re-regularized SCAN correlation by Furness et al
[ 1]  J. W. Furness, A. D. Kaplan, J. Ning, J. P. Perdew, and J. Sun.,  J. Phys. Chem. Lett. 11, 8208-8215 (2020)
[ 2]  J. W. Furness, A. D. Kaplan, J. Ning, J. P. Perdew, and J. Sun.,  J. Phys. Chem. Lett. 11, 9248-9248 (2020)

WARNING: your system is open-shell and RHF/RKS was chosen
  ===> : WILL SWITCH to UHF/UKS


================================================================================
                                       INPUT FILE
================================================================================
NAME = cs_rporg_184_red_solv_04.inp
|  1> !r2SCANh aug-cc-pVTZ d3 TightSCF SlowConv RIJCOSX defgrid2
|  2>  
|  3> %pal
|  4> nprocs 4
|  5> end
|  6>  
|  7> %scf
|  8> MaxIter 1500
|  9> end
| 10>  
| 11> %maxcore 3000
| 12>  
| 13> !CPCM
| 14> %cpcm smd true
| 15> SMDsolvent "MeCN"
| 16> surfacetype gepol_ses
| 17> rsolv 2.19
| 18> end 
| 19>  
| 20> * xyz 0 2
| 21> S          -0.00010950333410      1.33232152061846      0.00000284685572
| 22> C          -1.36367602339461      0.23464932550616     -0.00507122495906
| 23> C          -2.63111207479134      0.80918677441119     -0.00931514148930
| 24> C          -3.79749598688692      0.01748913706240     -0.01353133573099
| 25> C          -3.62690722369362     -1.39108123583356     -0.01295952620618
| 26> C          -2.36711161265690     -1.94934818919206     -0.00874256384629
| 27> H          -2.23684953206305     -3.03459019141420     -0.00838133626109
| 28> C          -1.17821016281749     -1.17668732648083     -0.00472311773149
| 29> N          -0.00002243259599     -1.83446497066754     -0.00098097198001
| 30> C           1.17812817196274     -1.17662234567149      0.00321348810966
| 31> C           2.36706725678156     -1.94922452722425      0.00667750909652
| 32> C           3.62683749655594     -1.39090083721577      0.01126100122058
| 33> C           3.79735129127031      0.01767608816689      0.01293153169759
| 34> C           2.63092897415049      0.80931688655999      0.00908647542932
| 35> C           1.36351983422924      0.23472394637557      0.00444992884257
| 36> H           2.70292817680075      1.89826895685548      0.00952338683142
| 37> N           5.04756390584320      0.58778935524973      0.01788863149424
| 38> C           5.18172091093512      2.01927291145544      0.01839451021747
| 39> H           4.72362917020845      2.48089047963546     -0.87882697554764
| 40> H           4.71362444681400      2.48052031071610      0.91057955441826
| 41> H           6.24845927057729      2.28645848294775      0.02468300648574
| 42> C           6.21890311032700     -0.24765571266402      0.01987377959494
| 43> H           7.11746405207368      0.38638280457377      0.02575541170059
| 44> H           6.26272829635460     -0.90187803580692      0.91268866293187
| 45> H           6.27030724212294     -0.89602611228501     -0.87693708029874
| 46> H           4.49368813972706     -2.05282067647445      0.01344982462292
| 47> H           2.23685254993858     -3.03447155031151      0.00547512817034
| 48> H          -4.49372906017109     -2.05303540820711     -0.01582821380380
| 49> N          -5.04773346330895      0.58755010330840     -0.01787016769593
| 50> C          -6.21904670194275     -0.24792774805618     -0.02103570915344
| 51> H          -6.26948350136630     -0.89843815146211      0.87422819476414
| 52> H          -6.26381702737160     -0.90001046584191     -0.91541895496807
| 53> H          -7.11762903933965      0.38609970182385     -0.02430714598305
| 54> C          -5.18193217827922      2.01902912759794     -0.01996728409317
| 55> H          -4.72352139465997      2.48160383072144      0.87657566790498
| 56> H          -4.71418178558910      2.47935235497991     -0.91283316827598
| 57> H          -6.24867837130277      2.28618639267493     -0.02606269937327
| 58> H          -2.70315182110753      1.89814199356804     -0.00903802299134
| 59> *
| 60> 
| 61>                          ****END OF INPUT****
================================================================================

                       ****************************
                       * Single Point Calculation *
                       ****************************

---------------------------------
CARTESIAN COORDINATES (ANGSTROEM)
---------------------------------
  S     -0.000110    1.332322    0.000003
  C     -1.363676    0.234649   -0.005071
  C     -2.631112    0.809187   -0.009315
  C     -3.797496    0.017489   -0.013531
  C     -3.626907   -1.391081   -0.012960
  C     -2.367112   -1.949348   -0.008743
  H     -2.236850   -3.034590   -0.008381
  C     -1.178210   -1.176687   -0.004723
  N     -0.000022   -1.834465   -0.000981
  C      1.178128   -1.176622    0.003213
  C      2.367067   -1.949225    0.006678
  C      3.626837   -1.390901    0.011261
  C      3.797351    0.017676    0.012932
  C      2.630929    0.809317    0.009086
  C      1.363520    0.234724    0.004450
  H      2.702928    1.898269    0.009523
  N      5.047564    0.587789    0.017889
  C      5.181721    2.019273    0.018395
  H      4.723629    2.480890   -0.878827
  H      4.713624    2.480520    0.910580
  H      6.248459    2.286458    0.024683
  C      6.218903   -0.247656    0.019874
  H      7.117464    0.386383    0.025755
  H      6.262728   -0.901878    0.912689
  H      6.270307   -0.896026   -0.876937
  H      4.493688   -2.052821    0.013450
  H      2.236853   -3.034472    0.005475
  H     -4.493729   -2.053035   -0.015828
  N     -5.047733    0.587550   -0.017870
  C     -6.219047   -0.247928   -0.021036
  H     -6.269484   -0.898438    0.874228
  H     -6.263817   -0.900010   -0.915419
  H     -7.117629    0.386100   -0.024307
  C     -5.181932    2.019029   -0.019967
  H     -4.723521    2.481604    0.876576
  H     -4.714182    2.479352   -0.912833
  H     -6.248678    2.286186   -0.026063
  H     -2.703152    1.898142   -0.009038

----------------------------
CARTESIAN COORDINATES (A.U.)
----------------------------
  NO LB      ZA    FRAG     MASS         X           Y           Z
   0 S    16.0000    0    32.060   -0.000207    2.517723    0.000005
   1 C     6.0000    0    12.011   -2.576974    0.443423   -0.009583
   2 C     6.0000    0    12.011   -4.972081    1.529141   -0.017603
   3 C     6.0000    0    12.011   -7.176227    0.033050   -0.025571
   4 C     6.0000    0    12.011   -6.853861   -2.628763   -0.024490
   5 C     6.0000    0    12.011   -4.473193   -3.683734   -0.016521
   6 H     1.0000    0     1.008   -4.227033   -5.734544   -0.015838
   7 C     6.0000    0    12.011   -2.226495   -2.223617   -0.008925
   8 N     7.0000    0    14.007   -0.000042   -3.466636   -0.001854
   9 C     6.0000    0    12.011    2.226340   -2.223494    0.006073
  10 C     6.0000    0    12.011    4.473109   -3.683501    0.012619
  11 C     6.0000    0    12.011    6.853730   -2.628422    0.021280
  12 C     6.0000    0    12.011    7.175954    0.033403    0.024437
  13 C     6.0000    0    12.011    4.971735    1.529387    0.017171
  14 C     6.0000    0    12.011    2.576679    0.443564    0.008409
  15 H     1.0000    0     1.008    5.107794    3.587208    0.017997
  16 N     7.0000    0    14.007    9.538513    1.110761    0.033805
  17 C     6.0000    0    12.011    9.792033    3.815873    0.034761
  18 H     1.0000    0     1.008    8.926365    4.688204   -1.660742
  19 H     1.0000    0     1.008    8.907459    4.687504    1.720746
  20 H     1.0000    0     1.008   11.807877    4.320780    0.046644
  21 C     6.0000    0    12.011   11.752024   -0.468001    0.037556
  22 H     1.0000    0     1.008   13.450058    0.730158    0.048671
  23 H     1.0000    0     1.008   11.834841   -1.704302    1.724732
  24 H     1.0000    0     1.008   11.849163   -1.693244   -1.657171
  25 H     1.0000    0     1.008    8.491840   -3.879269    0.025416
  26 H     1.0000    0     1.008    4.227039   -5.734320    0.010346
  27 H     1.0000    0     1.008   -8.491917   -3.879675   -0.029911
  28 N     7.0000    0    14.007   -9.538834    1.110309   -0.033770
  29 C     6.0000    0    12.011  -11.752295   -0.468516   -0.039752
  30 H     1.0000    0     1.008  -11.847607   -1.697802    1.652052
  31 H     1.0000    0     1.008  -11.836899   -1.700773   -1.729891
  32 H     1.0000    0     1.008  -13.450370    0.729623   -0.045934
  33 C     6.0000    0    12.011   -9.792433    3.815412   -0.037733
  34 H     1.0000    0     1.008   -8.926162    4.689552    1.656488
  35 H     1.0000    0     1.008   -8.908513    4.685297   -1.725005
  36 H     1.0000    0     1.008  -11.808291    4.320266   -0.049251
  37 H     1.0000    0     1.008   -5.108217    3.586969   -0.017079

--------------------------------
INTERNAL COORDINATES (ANGSTROEM)
--------------------------------
 S      0   0   0     0.000000000000     0.00000000     0.00000000
 C      1   0   0     1.750492401799     0.00000000     0.00000000
 C      2   1   0     1.391583786698   116.78110464     0.00000000
 C      3   2   1     1.409700094230   121.44799126   180.00383555
 C      4   3   2     1.418862695434   117.26164438     0.00000000
 C      5   4   3     1.377956732111   120.80534264     0.00000000
 H      6   5   4     1.093031812672   120.74448953   180.00459953
 C      6   5   4     1.417923701101   123.08054811     0.00000000
 N      8   6   5     1.349374581238   117.80618799   180.00948040
 C      9   8   6     1.349375173841   121.64818860   180.01145321
 C     10   9   8     1.417921816530   117.80581146   180.01255591
 C     11  10   9     1.377957694650   123.08075012   180.00873917
 C     12  11  10     1.418861057179   120.80501875     0.00000000
 C     13  12  11     1.409698889839   117.26176835   359.97109859
 C     14  13  12     1.391583440700   121.44823352     0.02822080
 H     14  13  12     1.091329779432   120.38143117   180.03820801
 N     13  12  11     1.374076159381   121.41593336   179.98066331
 C     17  13  12     1.437756422213   119.86752882   179.95174794
 H     18  17  13     1.108126895573   112.07986200   299.31205728
 H     18  17  13     1.108087368461   112.04317164    60.51305633
 H     18  17  13     1.099708326208   109.41541326   179.88649417
 C     17  13  12     1.438752214342   119.98852253     0.07521153
 H     22  17  13     1.099750517604   109.29480025   180.10395979
 H     22  17  13     1.107721043827   112.10276074   299.42224968
 H     22  17  13     1.107834048174   112.11729948    60.77850889
 H     12  11  10     1.090675342216   118.73247631   180.01625811
 H     11  10   9     1.093031754670   116.17454419     0.00000000
 H      5   4   3     1.090674860756   120.46187760   179.98373840
 N      4   3   2     1.374074990002   121.32192416   180.00748201
 C     29   4   3     1.438752224593   119.98940566   180.04936345
 H     30  29   4     1.107792901825   112.10346237    60.69092265
 H     30  29   4     1.107762448934   112.11735791   299.33351576
 H     30  29   4     1.099750756573   109.29436872   180.00031392
 C     29   4   3     1.437757243062   119.86702376     0.08297961
 H     34  29   4     1.108108779536   112.07556526   299.27222928
 H     34  29   4     1.108105315693   112.04755507    60.47331795
 H     34  29   4     1.099707960643   109.41592390   179.85336556
 H      3   2   1     1.091335544722   118.16980127     0.00000000

---------------------------
INTERNAL COORDINATES (A.U.)
---------------------------
 S      0   0   0     0.000000000000     0.00000000     0.00000000
 C      1   0   0     3.307951238911     0.00000000     0.00000000
 C      2   1   0     2.629712249265   116.78110464     0.00000000
 C      3   2   1     2.663947109058   121.44799126   180.00383555
 C      4   3   2     2.681261916008   117.26164438     0.00000000
 C      5   4   3     2.603960848084   120.80534264     0.00000000
 H      6   5   4     2.065530781614   120.74448953   180.00459953
 C      6   5   4     2.679487473876   123.08054811     0.00000000
 N      8   6   5     2.549948410614   117.80618799   180.00948040
 C      9   8   6     2.549949530472   121.64818860   180.01145321
 C     10   9   8     2.679483912554   117.80581146   180.01255591
 C     11  10   9     2.603962667019   123.08075012   180.00873917
 C     12  11  10     2.681258820155   120.80501875     0.00000000
 C     13  12  11     2.663944833089   117.26176835   359.97109859
 C     14  13  12     2.629711595423   121.44823352     0.02822080
 H     14  13  12     2.062314404919   120.38143117   180.03820801
 N     13  12  11     2.596627628381   121.41593336   179.98066331
 C     17  13  12     2.716965885270   119.86752882   179.95174794
 H     18  17  13     2.094056354266   112.07986200   299.31205728
 H     18  17  13     2.093981658849   112.04317164    60.51305633
 H     18  17  13     2.078147563726   109.41541326   179.88649417
 C     17  13  12     2.718847659680   119.98852253     0.07521153
 H     22  17  13     2.078227293909   109.29480025   180.10395979
 H     22  17  13     2.093289405614   112.10276074   299.42224968
 H     22  17  13     2.093502952882   112.11729948    60.77850889
 H     12  11  10     2.061077697809   118.73247631   180.01625811
 H     11  10   9     2.065530672006   116.17454419     0.00000000
 H      5   4   3     2.061076787982   120.46187760   179.98373840
 N      4   3   2     2.596625418575   121.32192416   180.00748201
 C     29   4   3     2.718847679051   119.98940566   180.04936345
 H     30  29   4     2.093425197551   112.10346237    60.69092265
 H     30  29   4     2.093367649927   112.11735791   299.33351576
 H     30  29   4     2.078227745495   109.29436872   180.00031392
 C     29   4   3     2.716967436449   119.86702376     0.08297961
 H     34  29   4     2.094022119918   112.07556526   299.27222928
 H     34  29   4     2.094015574202   112.04755507    60.47331795
 H     34  29   4     2.078146872908   109.41592390   179.85336556
 H      3   2   1     2.062325299738   118.16980127     0.00000000

---------------------
BASIS SET INFORMATION
---------------------
There are 4 groups of distinct atoms

 Group   1 Type S   : 42s17p3d2f contracted to 6s5p3d2f pattern {131313111/77111/111/11}
 Group   2 Type C   : 19s6p3d2f contracted to 5s4p3d2f pattern {88111/3111/111/11}
 Group   3 Type H   : 6s3p2d contracted to 4s3p2d pattern {3111/111/11}
 Group   4 Type N   : 19s6p3d2f contracted to 5s4p3d2f pattern {88111/3111/111/11}

Atom   0S    basis set group =>   1
Atom   1C    basis set group =>   2
Atom   2C    basis set group =>   2
Atom   3C    basis set group =>   2
Atom   4C    basis set group =>   2
Atom   5C    basis set group =>   2
Atom   6H    basis set group =>   3
Atom   7C    basis set group =>   2
Atom   8N    basis set group =>   4
Atom   9C    basis set group =>   2
Atom  10C    basis set group =>   2
Atom  11C    basis set group =>   2
Atom  12C    basis set group =>   2
Atom  13C    basis set group =>   2
Atom  14C    basis set group =>   2
Atom  15H    basis set group =>   3
Atom  16N    basis set group =>   4
Atom  17C    basis set group =>   2
Atom  18H    basis set group =>   3
Atom  19H    basis set group =>   3
Atom  20H    basis set group =>   3
Atom  21C    basis set group =>   2
Atom  22H    basis set group =>   3
Atom  23H    basis set group =>   3
Atom  24H    basis set group =>   3
Atom  25H    basis set group =>   3
Atom  26H    basis set group =>   3
Atom  27H    basis set group =>   3
Atom  28N    basis set group =>   4
Atom  29C    basis set group =>   2
Atom  30H    basis set group =>   3
Atom  31H    basis set group =>   3
Atom  32H    basis set group =>   3
Atom  33C    basis set group =>   2
Atom  34H    basis set group =>   3
Atom  35H    basis set group =>   3
Atom  36H    basis set group =>   3
Atom  37H    basis set group =>   3
---------------------------------
AUXILIARY/J BASIS SET INFORMATION
---------------------------------
There are 4 groups of distinct atoms

 Group   1 Type S   : 14s5p5d2f1g contracted to 8s4p3d1f1g pattern {71111111/2111/311/2/1}
 Group   2 Type C   : 12s5p4d2f1g contracted to 6s4p3d1f1g pattern {711111/2111/211/2/1}
 Group   3 Type H   : 5s2p1d contracted to 3s1p1d pattern {311/2/1}
 Group   4 Type N   : 12s5p4d2f1g contracted to 6s4p3d1f1g pattern {711111/2111/211/2/1}

Atom   0S    basis set group =>   1
Atom   1C    basis set group =>   2
Atom   2C    basis set group =>   2
Atom   3C    basis set group =>   2
Atom   4C    basis set group =>   2
Atom   5C    basis set group =>   2
Atom   6H    basis set group =>   3
Atom   7C    basis set group =>   2
Atom   8N    basis set group =>   4
Atom   9C    basis set group =>   2
Atom  10C    basis set group =>   2
Atom  11C    basis set group =>   2
Atom  12C    basis set group =>   2
Atom  13C    basis set group =>   2
Atom  14C    basis set group =>   2
Atom  15H    basis set group =>   3
Atom  16N    basis set group =>   4
Atom  17C    basis set group =>   2
Atom  18H    basis set group =>   3
Atom  19H    basis set group =>   3
Atom  20H    basis set group =>   3
Atom  21C    basis set group =>   2
Atom  22H    basis set group =>   3
Atom  23H    basis set group =>   3
Atom  24H    basis set group =>   3
Atom  25H    basis set group =>   3
Atom  26H    basis set group =>   3
Atom  27H    basis set group =>   3
Atom  28N    basis set group =>   4
Atom  29C    basis set group =>   2
Atom  30H    basis set group =>   3
Atom  31H    basis set group =>   3
Atom  32H    basis set group =>   3
Atom  33C    basis set group =>   2
Atom  34H    basis set group =>   3
Atom  35H    basis set group =>   3
Atom  36H    basis set group =>   3
Atom  37H    basis set group =>   3


           ************************************************************
           *        Program running with 4 parallel MPI-processes     *
           *              working on a common directory               *
           ************************************************************
------------------------------------------------------------------------------
                             ORCA STARTUP CALCULATIONS
                           -- RI-GTO INTEGRALS CHOSEN --
------------------------------------------------------------------------------
------------------------------------------------------------------------------
                   ___                                                        
                  /   \      - P O W E R E D   B Y -                         
                 /     \                                                     
                 |  |  |   _    _      __       _____    __    __             
                 |  |  |  | |  | |    /  \     |  _  \  |  |  /  |          
                  \  \/   | |  | |   /    \    | | | |  |  | /  /          
                 / \  \   | |__| |  /  /\  \   | |_| |  |  |/  /          
                |  |  |   |  __  | /  /__\  \  |    /   |      \           
                |  |  |   | |  | | |   __   |  |    \   |  |\   \          
                \     /   | |  | | |  |  |  |  | |\  \  |  | \   \       
                 \___/    |_|  |_| |__|  |__|  |_| \__\ |__|  \__/        
                                                                              
                      - O R C A' S   B I G   F R I E N D -                    
                                      &                                       
                       - I N T E G R A L  F E E D E R -                       
                                                                              
 v1 FN, 2020, v2 2021, v3 2022-2024                                           
------------------------------------------------------------------------------


----------------------
SHARK INTEGRAL PACKAGE
----------------------

Number of atoms                             ...     38
Number of basis functions                   ...   1477
Number of shells                            ...    573
Maximum angular momentum                    ...      3
Integral batch strategy                     ... SHARK/LIBINT Hybrid
RI-J (if used) integral strategy            ... SPLIT-RIJ (Revised 2003 algorithm where possible)
Printlevel                                  ...      1
Contraction scheme used                     ... PARTIAL GENERAL contraction
Prescreening option                         ... SCHWARTZ
   Thresh                                   ... 2.500e-11
   Tcut                                     ... 2.500e-12
   Tpresel                                  ... 2.500e-12 
Coulomb Range Separation                    ... NOT USED
Exchange Range Separation                   ... NOT USED
Multipole approximations                    ... NOT USED
Finite Nucleus Model                        ... NOT USED
CABS basis                                  ... NOT available
Auxiliary Coulomb fitting basis             ... AVAILABLE
   # of basis functions in Aux-J            ...   1180
   # of shells in Aux-J                     ...    392
   Maximum angular momentum in Aux-J        ...      4
Auxiliary J/K fitting basis                 ... NOT available
Auxiliary Correlation fitting basis         ... NOT available
Auxiliary 'external' fitting basis          ... NOT available

Checking pre-screening integrals            ... done (  0.0 sec) Dimension = 573
Save PGC pre-screening integrals            ... done (  0.0 sec) Dimension = 573
Calculate PGC overlap integrals             ... done (  0.2 sec) Dimension = 444
Calculating pre-screening integrals (ORCA)  ... done (  0.5 sec) Dimension = 444
Check shell pair data                       ... done (  0.0 sec)
Shell pair information
Shell pair cut-off parameter TPreSel        ...   2.5e-12
Total number of shell pairs                 ...    164451
Shell pairs after pre-screening             ...    105526
Total number of primitive shell pairs       ...    209739
Primitive shell pairs kept                  ...    121738
          la=0 lb=0:  23692 shell pairs
          la=1 lb=0:  27716 shell pairs
          la=1 lb=1:   7493 shell pairs
          la=2 lb=0:  18161 shell pairs
          la=2 lb=1:   9814 shell pairs
          la=2 lb=2:   3286 shell pairs
          la=3 lb=0:   7791 shell pairs
          la=3 lb=1:   4188 shell pairs
          la=3 lb=2:   2754 shell pairs
          la=3 lb=3:    631 shell pairs

Calculating one electron integrals          ... done (  0.3 sec)
Calculating RI/J V-Matrix + Cholesky decomp.... done (  0.2 sec)
Calculating Nuclear repulsion               ... done (  0.0 sec) ENN=   1582.706907924722 Eh

Diagonalization of the overlap matrix:
Smallest eigenvalue                        ... 8.825e-08
Time for diagonalization                   ...    0.321 sec
Threshold for overlap eigenvalues          ... 1.000e-07
Number of eigenvalues below threshold      ... 1
Smallest eigenvalue above threshold        ... 1.564e-07

IMPORTANT:
Smallest eigenvalue of S below the DiffSThresh (1.000e-06) while
Thresh>1e-12 and/or TCut>1e-13! In order to avoid SCF convergence issues,
Thresh will be set to at least 1e-12 and TCut to at least 1e-13.
This can be turned off by adding %SCF DiffSThresh -1 END to the input.

Time for construction of square roots      ...    0.300 sec
Total time needed                          ...    0.697 sec

-------------------
DFT GRID GENERATION
-------------------

General Integration Accuracy     IntAcc      ... 4.388
Radial Grid Type                 RadialGrid  ... OptM3 with GC (2021)
Angular Grid (max. ang.)         AngularGrid ... 4 (Lebedev-302)
Angular grid pruning method      GridPruning ... 4 (adaptive)
Weight generation scheme         WeightScheme... mBecke (2022)
Basis function cutoff            BFCut       ... 1.0000e-11
Integration weight cutoff        WCut        ... 1.0000e-14
Partially contracted basis set               ... off
Rotationally invariant grid construction     ... off
Angular grids for H and He will be reduced by one unit
Diffuse basis detected: some atoms will have their outermost
                        angular grid increased by 1.

Total number of grid points                  ...   186006
Total number of batches                      ...     2928
Average number of points per batch           ...       63
Average number of grid points per atom       ...     4895

---------------------
SHARK GRID GENERATION
---------------------

General Integration Accuracy     IntAcc      ... 4.388
Radial Grid Type                 RadialGrid  ... OptM3 with GC (2021)
Angular Grid (max. ang.)         AngularGrid ... 4 (Lebedev-302)
Angular grid pruning method      GridPruning ... 4 (adaptive)
Weight generation scheme         WeightScheme... mBecke (2022)
Basis function cutoff            BFCut       ... 1.0000e-11
Integration weight cutoff        WCut        ... 1.0000e-14
Partially contracted basis set               ... off
Rotationally invariant grid construction     ... off
Angular grids for H and He will be reduced by one unit
Diffuse basis detected: some atoms will have their outermost
                        angular grid increased by 1.
Core-polarized basis detected: some atoms will have their core
                               angular grid increased.
Steep s-basis detected: some atoms will have their radial
                        grid points doubled.

Total number of grid points                  ...   316494
Total number of batches                      ...     4965
Average number of points per batch           ...       63
Average number of grid points per atom       ...     8329

--------------------
COSX GRID GENERATION
--------------------

GRIDX 1
-------
General Integration Accuracy     IntAcc      ... 3.816
Radial Grid Type                 RadialGrid  ... OptM3 with GC (2021)
Angular Grid (max. ang.)         AngularGrid ... 1 (Lebedev-50)
Angular grid pruning method      GridPruning ... 4 (adaptive)
Weight generation scheme         WeightScheme... mBecke (2022)
Basis function cutoff            BFCut       ... 1.0000e-11
Integration weight cutoff        WCut        ... 1.0000e-14
Partially contracted basis set               ... on
Rotationally invariant grid construction     ... off
Angular grids for H and He will be reduced by one unit
Diffuse basis detected: some atoms will have their outermost
                        angular grid increased by 1.

Total number of grid points                  ...    24484
Total number of batches                      ...      212
Average number of points per batch           ...      115
Average number of grid points per atom       ...      644
UseSFitting                                  ... on

GRIDX 2
-------
General Integration Accuracy     IntAcc      ... 4.020
Radial Grid Type                 RadialGrid  ... OptM3 with GC (2021)
Angular Grid (max. ang.)         AngularGrid ... 2 (Lebedev-110)
Angular grid pruning method      GridPruning ... 4 (adaptive)
Weight generation scheme         WeightScheme... mBecke (2022)
Basis function cutoff            BFCut       ... 1.0000e-11
Integration weight cutoff        WCut        ... 1.0000e-14
Partially contracted basis set               ... on
Rotationally invariant grid construction     ... off
Angular grids for H and He will be reduced by one unit
Diffuse basis detected: some atoms will have their outermost
                        angular grid increased by 1.

Total number of grid points                  ...    55113
Total number of batches                      ...      453
Average number of points per batch           ...      121
Average number of grid points per atom       ...     1450
UseSFitting                                  ... on

GRIDX 3
-------
General Integration Accuracy     IntAcc      ... 4.338
Radial Grid Type                 RadialGrid  ... OptM3 with GC (2021)
Angular Grid (max. ang.)         AngularGrid ... 3 (Lebedev-194)
Angular grid pruning method      GridPruning ... 4 (adaptive)
Weight generation scheme         WeightScheme... mBecke (2022)
Basis function cutoff            BFCut       ... 1.0000e-11
Integration weight cutoff        WCut        ... 1.0000e-14
Partially contracted basis set               ... on
Rotationally invariant grid construction     ... off
Angular grids for H and He will be reduced by one unit
Diffuse basis detected: some atoms will have their outermost
                        angular grid increased by 1.

Total number of grid points                  ...   122679
Total number of batches                      ...      981
Average number of points per batch           ...      125
Average number of grid points per atom       ...     3228
UseSFitting                                  ... on
Initializing property integral containers    ... done (  0.0 sec)

SHARK setup successfully completed in  20.3 seconds

Maximum memory used throughout the entire STARTUP-calculation: 227.2 MB


           ************************************************************
           *        Program running with 4 parallel MPI-processes     *
           *              working on a common directory               *
           ************************************************************
-------------------------------------------------------------------------------
                                 ORCA GUESS
                   Start orbitals & Density for SCF / CASSCF
-------------------------------------------------------------------------------

------------
SCF SETTINGS
------------
Hamiltonian:
 Density Functional     Method          .... DFT(GTOs)
  Functional kind                       .... Exchange
  Functional name                       .... Re-regularized SCAN exchange by Furness et al
  Functional family                     .... MGGA
  Functional refs                              
    [ 0] J. W. Furness, A. D. Kaplan, J. Ning, J. P. Perdew, and J. Sun.,  J. Phys. Chem. Lett. 11, 8208-8215 (2020), doi: 10.1021/acs.jpclett.0c02405
    [ 1] J. W. Furness, A. D. Kaplan, J. Ning, J. P. Perdew, and J. Sun.,  J. Phys. Chem. Lett. 11, 9248-9248 (2020), doi: 10.1021/acs.jpclett.0c03077
  Functional external parameters        .... 6
    Parameter  0 _c1        =  6.670000e-01 : c1 parameter        
    Parameter  1 _c2        =  8.000000e-01 : c2 parameter        
    Parameter  2 _d         =  1.240000e+00 : d parameter         
    Parameter  3 _k1        =  6.500000e-02 : k1 parameter        
    Parameter  4 _eta       =  1.000000e-03 : eta parameter       
    Parameter  5 _dp2       =  3.610000e-01 : dp2 parameter       
  Functional kind                       .... Correlation
  Functional name                       .... Re-regularized SCAN correlation by Furness et al
  Functional family                     .... MGGA
  Functional refs                              
    [ 0] J. W. Furness, A. D. Kaplan, J. Ning, J. P. Perdew, and J. Sun.,  J. Phys. Chem. Lett. 11, 8208-8215 (2020), doi: 10.1021/acs.jpclett.0c02405
    [ 1] J. W. Furness, A. D. Kaplan, J. Ning, J. P. Perdew, and J. Sun.,  J. Phys. Chem. Lett. 11, 9248-9248 (2020), doi: 10.1021/acs.jpclett.0c03077
  Functional external parameters        .... 1
    Parameter  0 _eta       =  1.000000e-03 : Regularization parameter
 Gradients option       PostSCFGGA      .... off
 Hybrid DFT is turned on
   Fraction HF Exchange ScalHFX         ....  0.100000
   Scaling of DF-GGA-X  ScalDFX         ....  0.900000
   Scaling of DF-GGA-C  ScalDFC         ....  1.000000
   Scaling of DF-LDA-C  ScalLDAC        ....  1.000000
   Perturbative correction              ....  0.000000
   NL short-range parameter             .... 11.900000
 RI-approximation to the Coulomb term is turned on
   Number of AuxJ basis functions       .... 1180
   RIJ-COSX (HFX calculated with COS-X)).... on


General Settings:
 Integral files         IntName         .... cs_rporg_184_red_solv_04
 Hartree-Fock type      HFTyp           .... UHF
 Total Charge           Charge          ....    0
 Multiplicity           Mult            ....    2
 Number of Electrons    NEL             ....  151
 Basis Dimension        Dim             .... 1338
 Nuclear Repulsion      ENuc            ....   1582.7069079247 Eh

Convergence Acceleration:
 AO-DIIS                CNVDIIS         .... on
   Start iteration      DIISMaxIt       ....     0
   Startup error        DIISStart       ....  0.200000
   # of expansion vecs  DIISMaxEq       ....     5
   Bias factor          DIISBfac        ....   1.050
   Max. coefficient     DIISMaxC        ....  10.000
 MO-DIIS                CNVKDIIS        .... off
 Trust-Rad. Augm. Hess. CNVTRAH         .... auto
   Auto Start mean grad. ratio tolernc. ....  1.125000
   Auto Start start iteration           ....    50
   Auto Start num. interpolation iter.  ....    10
   Max. Number of Micro iterations      ....    24
   Max. Number of Macro iterations      .... Maxiter - #DIIS iter
   Number of Davidson start vectors     ....     2
   Converg. threshold    (grad. norm)   ....   1.000e-05
   Grad. Scal. Fac. for Micro threshold ....   0.100
   Minimum threshold for Micro iter.    ....   1.000e-02
   NR start threshold (gradient norm)   ....   1.000e-04
   Initial trust radius                 ....   0.400
   Minimum AH scaling param. (alpha)    ....   1.000
   Maximum AH scaling param. (alpha)    .... 1000.000
   Quad. conv. algorithm                .... NR
   White noise on init. David. guess    .... on
   Maximum white noise                  ....   0.010
   Pseudo random numbers                .... off
   Inactive MOs                         .... canonical
   Orbital update algorithm             .... Taylor
   Preconditioner                       .... Diag
   Full preconditioner red. dimension   ....   250
 SOSCF                  CNVSOSCF        .... on
   Start iteration      SOSCFMaxIt      ....   150
   Startup grad/error   SOSCFStart      ....  0.001000
   Hessian update       SOSCFHessUp     .... L-BFGS
 Level Shifting         CNVShift        .... on
   Level shift para.    LevelShift      ....    0.2500
   Turn off err/grad.   ShiftErr        ....    0.0000
 Zerner damping         CNVZerner       .... off
 Static damping         CNVDamp         .... on
   Fraction old density DampFac         ....    0.8500
   Max. Damping (<1)    DampMax         ....    0.9800
   Min. Damping (>=0)   DampMin         ....    0.0000
   Turn off err/grad.   DampErr         ....    0.0300

SCF Procedure:
 Maximum # iterations   MaxIter         ....  1500
 SCF integral mode      SCFMode         .... Direct
   Integral package                     .... SHARK and LIBINT hybrid scheme
 Reset frequency        DirectResetFreq ....    20
 Integral Threshold     Thresh          ....  1.000e-12 Eh
 Primitive CutOff       TCut            ....  1.000e-13 Eh

Convergence Tolerance:
 Convergence Check Mode ConvCheckMode   .... Total+1el-Energy
 Convergence forced     ConvForced      .... 0
 Energy Change          TolE            ....  1.000e-08 Eh
 1-El. energy change                    ....  1.000e-05 Eh
 Orbital Gradient       TolG            ....  1.000e-05
 Orbital Rotation angle TolX            ....  1.000e-05
 DIIS Error             TolErr          ....  5.000e-07

------------------------------
INITIAL GUESS: MODEL POTENTIAL
------------------------------
Loading Hartree-Fock densities                     ... done
Calculating cut-offs                               ... done
Initializing the effective Hamiltonian             ... done
Setting up the integral package (SHARK)            ... done
Starting the Coulomb interaction                   ... done (   2.7 sec)
Making the grid                                    ... done (   0.9 sec)
Mapping shells                                     ... done
Starting the XC term evaluation                    ... done (   2.9 sec)
  promolecular density results
     # of electrons  =    150.978946821
     EX              =   -131.742122574
     EC              =     -5.157670275
     EX+EC           =   -136.899792849
Transforming the Hamiltonian                       ... done (   0.2 sec)
Diagonalizing the Hamiltonian                      ... done (   0.4 sec)
Back transforming the eigenvectors                 ... done (   0.2 sec)
Now organizing SCF variables                       ... done
                      ------------------
                      INITIAL GUESS DONE (   7.8 sec)
                      ------------------
             **** ENERGY FILE WAS UPDATED (cs_rporg_184_red_solv_04.en.tmp) ****
Finished Guess after   9.4 sec
Maximum memory used throughout the entire GUESS-calculation: 193.2 MB


           ************************************************************
           *        Program running with 4 parallel MPI-processes     *
           *              working on a common directory               *
           ************************************************************

-------------------------------------------------------------------------------------------
                                      ORCA LEAN-SCF
                              memory conserving SCF solver
-------------------------------------------------------------------------------------------

--------------------
CPCM SOLVATION MODEL
--------------------
CPCM parameters:
  Epsilon                                         ...      35.6880
  Refrac                                          ...       1.3442
  Rsolv                                           ...       2.1900
  Surface type                                    ...    GEPOL SES
  Discretization scheme                           ... Constant num. charges
  Epsilon function type                           ...         CPCM
Solvent:                                          ... ACETONITRILE
SMD-CDS solvent descriptors:
  Soln                                            ...       1.3442
  Soln25                                          ...       1.3416
  Sola                                            ...       0.0700
  Solb                                            ...       0.3200
  Solg                                            ...      41.2500
  Solc                                            ...       0.0000
  Solh                                            ...       0.0000
Radii:
  Scheme                                          ... Element-dependent radii
  Radius for S  used is    4.7054 Bohr (=   2.4900 Ang.)
  Radius for C  used is    3.4960 Bohr (=   1.8500 Ang.)
  Radius for H  used is    2.2677 Bohr (=   1.2000 Ang.)
  Radius for N  used is    3.5716 Bohr (=   1.8900 Ang.)
Calculating surface                               ...        done! (  0.1s)
Cavity surface points                             ...         1209
Cavity Volume                                     ...    2144.9146
Cavity Surface-area                               ...    1106.7983
Calculating surface distance matrix               ...        done! (  0.0s)
Performing Cholesky decomposition & store         ...        done! (  0.1s)
Overall time for CPCM initialization              ...                 0.1s

----------------------------------------D-I-I-S--------------------------------------------
Iteration    Energy (Eh)           Delta-E    RMSDP     MaxDP     DIISErr   Damp  Time(sec)
-------------------------------------------------------------------------------------------
               ***  Starting incremental Fock matrix formation  ***
    1    -1182.3025410098771317     0.00e+00  8.27e-04  6.62e-02  1.18e-01  0.850 152.3
Warning: op=0 Small HOMO/LUMO gap (   0.060) - skipping pre-diagonalization
         Will do a full diagonalization
    2    -1182.4185028978226910    -1.16e-01  8.15e-04  6.20e-02  8.85e-02  0.850  97.5
                               ***Turning on AO-DIIS***
    3    -1182.4979692923934635    -7.95e-02  6.42e-04  5.03e-02  6.06e-02  0.850  92.5
    4    -1182.5496877061559644    -5.17e-02  5.37e-04  4.08e-02  4.91e-02  0.850  94.7
    5    -1182.5870093991238718    -3.73e-02  4.56e-04  3.44e-02  4.20e-02  0.850  93.8
    6    -1182.6162170826687543    -2.92e-02  3.90e-04  2.92e-02  3.62e-02  0.850  92.1
    7    -1182.6400842874350019    -2.39e-02  3.34e-04  2.49e-02  3.09e-02  0.850  92.9
    8    -1182.6598697667950546    -1.98e-02  2.83e-04  2.11e-02  2.59e-02  0.850  92.0
    9    -1182.6762327729557001    -1.64e-02  1.60e-03  1.20e-01  2.19e-02  0.000  86.2
   10    -1182.7613144541264774    -8.51e-02  7.06e-05  7.00e-03  2.29e-03  0.000  84.5
   11    -1182.7614922709708480    -1.78e-04  3.32e-05  4.18e-03  1.83e-03  0.000  76.3
   12    -1182.7615594884282473    -6.72e-05  3.02e-05  2.59e-03  1.10e-03  0.000  74.4
                              *** Initializing SOSCF ***
---------------------------------------S-O-S-C-F--------------------------------------
Iteration    Energy (Eh)           Delta-E    RMSDP     MaxDP     MaxGrad    Time(sec)
--------------------------------------------------------------------------------------
   13    -1182.7616142245806259    -5.47e-05  3.08e-05  2.40e-03  6.22e-04    69.5
               *** Restarting incremental Fock matrix formation ***
   14    -1182.7616492786737581    -3.51e-05  6.17e-04  6.61e-02  6.56e-04   139.3
   15    -1182.7616745660143351    -2.53e-05  6.05e-04  7.71e-02  3.39e-04   113.6
   16    -1182.7616871272352910    -1.26e-05  4.77e-04  6.07e-02  4.74e-04   115.9
   17    -1182.7616955706498629    -8.44e-06  1.68e-04  1.78e-02  2.35e-04   111.1
   18    -1182.7616963443647364    -7.74e-07  4.28e-05  4.76e-03  9.76e-05   106.2
   19    -1182.7616970118524478    -6.67e-07  1.71e-05  1.77e-03  3.99e-05    99.0
   20    -1182.7616970497356306    -3.79e-08  1.14e-05  1.27e-03  3.54e-05    94.0
   21    -1182.7616971097531859    -6.00e-08  8.99e-06  1.03e-03  1.52e-05    89.8
   22    -1182.7616970969888825     1.28e-08  5.07e-06  5.94e-04  6.56e-06    86.4
   23    -1182.7616970964586471     5.30e-10  6.17e-06  1.03e-03  2.57e-06    82.1
                 **** Energy Check signals convergence ****

               *****************************************************
               *                     SUCCESS                       *
               *           SCF CONVERGED AFTER  23 CYCLES          *
               *****************************************************

Recomputing exchange energy using gridx3       ... done (  183.454 sec)
Old exchange energy                            :    -13.426423576 Eh
New exchange energy                            :    -13.426383347 Eh
Exchange energy change after final integration :      0.000040229 Eh
Total energy after final integration           :  -1182.761656867 Eh

SMD CDS free energy correction energy :                -3.64646     Kcal/mol
Total Energy after SMD CDS correction =             -1182.767467866 Eh
             **** ENERGY FILE WAS UPDATED (cs_rporg_184_red_solv_04.en.tmp) ****

----------------
TOTAL SCF ENERGY
----------------

Total Energy       :      -1182.76746786608715 Eh          -32184.73904 eV

Components:
Nuclear Repulsion  :       1582.70690792472215 Eh           43067.64448 eV
Electronic Energy  :      -2765.44064813334944 Eh          -75251.46575 eV
One Electron Energy:      -4757.81035234115279 Eh         -129466.60164 eV
Two Electron Energy:       1992.36970420780335 Eh           54215.13590 eV
CPCM Dielectric    :         -0.02795688783140 Eh              -0.76075 eV
SMD CDS (Gcds)     :         -0.00581099874167 Eh              -0.15813 eV

Virial components:
Potential Energy   :      -2359.88892801403153 Eh          -64215.84240 eV
Kinetic Energy     :       1177.12146014794439 Eh           32031.10336 eV
Virial Ratio       :          2.00479645296538

DFT components:
N(Alpha)           :       75.999974527144 electrons
N(Beta)            :       74.999967216438 electrons
N(Total)           :      150.999941743582 electrons
E(X)               :     -121.208147854729 Eh       
E(C)               :       -5.010799888922 Eh       
E(XC)              :     -126.218947743650 Eh       

CPCM Solvation Model Properties:
Surface-charge          :         -0.05915011200414
Corrected charge        :         -0.00000000000000
Outlying charge corr.   :          0.00018426740697 Eh               0.00501 eV
Free-energy (cav+disp)  :         -0.00581099874167 Eh              -0.15813 eV

---------------
SCF CONVERGENCE
---------------

  Last Energy change         ...   -5.3024e-10  Tolerance :   1.0000e-08
  Last MAX-Density change    ...    1.0326e-03  Tolerance :   1.0000e-07
  Last RMS-Density change    ...    6.1745e-06  Tolerance :   5.0000e-09
  Last DIIS Error            ...    6.2194e-04  Tolerance :   5.0000e-07
  Last Orbital Gradient      ...    2.5740e-06  Tolerance :   1.0000e-05
  Last Orbital Rotation      ...    1.2634e-05  Tolerance :   1.0000e-05


----------------------
UHF SPIN CONTAMINATION
----------------------

Warning: in a DFT calculation there is little theoretical justification to 
         calculate <S**2> as in Hartree-Fock theory. We will do it anyways
         but you should keep in mind that the values have only limited relevance

Expectation value of <S**2>     :     0.780718
Ideal value S*(S+1) for S=0.5   :     0.750000
Deviation                       :     0.030718

----------------
ORBITAL ENERGIES
----------------
                 SPIN UP ORBITALS
  NO   OCC          E(Eh)            E(eV) 
   0   1.0000     -88.927034     -2419.8276 
   1   1.0000     -14.334585      -390.0639 
   2   1.0000     -14.334579      -390.0637 
   3   1.0000     -14.294618      -388.9763 
   4   1.0000     -10.206373      -277.7295 
   5   1.0000     -10.206362      -277.7292 
   6   1.0000     -10.203071      -277.6397 
   7   1.0000     -10.203063      -277.6395 
   8   1.0000     -10.191421      -277.3227 
   9   1.0000     -10.191418      -277.3226 
  10   1.0000     -10.178354      -276.9671 
  11   1.0000     -10.178325      -276.9663 
  12   1.0000     -10.178290      -276.9653 
  13   1.0000     -10.178280      -276.9651 
  14   1.0000     -10.160431      -276.4794 
  15   1.0000     -10.160425      -276.4792 
  16   1.0000     -10.159758      -276.4611 
  17   1.0000     -10.159725      -276.4602 
  18   1.0000     -10.157039      -276.3871 
  19   1.0000     -10.157033      -276.3869 
  20   1.0000      -7.992299      -217.4815 
  21   1.0000      -5.913426      -160.9125 
  22   1.0000      -5.909852      -160.8153 
  23   1.0000      -5.907205      -160.7432 
  24   1.0000      -0.962423       -26.1889 
  25   1.0000      -0.961816       -26.1723 
  26   1.0000      -0.943244       -25.6670 
  27   1.0000      -0.856849       -23.3160 
  28   1.0000      -0.847320       -23.0567 
  29   1.0000      -0.805601       -21.9215 
  30   1.0000      -0.760653       -20.6984 
  31   1.0000      -0.755249       -20.5514 
  32   1.0000      -0.734369       -19.9832 
  33   1.0000      -0.716771       -19.5043 
  34   1.0000      -0.716444       -19.4954 
  35   1.0000      -0.682431       -18.5699 
  36   1.0000      -0.664653       -18.0861 
  37   1.0000      -0.630752       -17.1636 
  38   1.0000      -0.602364       -16.3912 
  39   1.0000      -0.601355       -16.3637 
  40   1.0000      -0.581484       -15.8230 
  41   1.0000      -0.538054       -14.6412 
  42   1.0000      -0.534989       -14.5578 
  43   1.0000      -0.504239       -13.7210 
  44   1.0000      -0.495709       -13.4889 
  45   1.0000      -0.492581       -13.4038 
  46   1.0000      -0.468935       -12.7604 
  47   1.0000      -0.458110       -12.4658 
  48   1.0000      -0.457475       -12.4485 
  49   1.0000      -0.440740       -11.9931 
  50   1.0000      -0.432134       -11.7590 
  51   1.0000      -0.426175       -11.5968 
  52   1.0000      -0.421762       -11.4767 
  53   1.0000      -0.417065       -11.3489 
  54   1.0000      -0.408220       -11.1082 
  55   1.0000      -0.406047       -11.0491 
  56   1.0000      -0.387194       -10.5361 
  57   1.0000      -0.387182       -10.5358 
  58   1.0000      -0.382873       -10.4185 
  59   1.0000      -0.382647       -10.4123 
  60   1.0000      -0.374025       -10.1777 
  61   1.0000      -0.371533       -10.1099 
  62   1.0000      -0.364609        -9.9215 
  63   1.0000      -0.359200        -9.7743 
  64   1.0000      -0.352643        -9.5959 
  65   1.0000      -0.340982        -9.2786 
  66   1.0000      -0.330946        -9.0055 
  67   1.0000      -0.326419        -8.8823 
  68   1.0000      -0.323761        -8.8100 
  69   1.0000      -0.290879        -7.9152 
  70   1.0000      -0.267077        -7.2675 
  71   1.0000      -0.253902        -6.9090 
  72   1.0000      -0.248624        -6.7654 
  73   1.0000      -0.209999        -5.7144 
  74   1.0000      -0.193952        -5.2777 
  75   1.0000      -0.146702        -3.9920 
  76   0.0000      -0.037197        -1.0122 
  77   0.0000      -0.033335        -0.9071 
  78   0.0000      -0.015397        -0.4190 
  79   0.0000       0.003268         0.0889 
  80   0.0000       0.005160         0.1404 
  81   0.0000       0.016377         0.4457 
  82   0.0000       0.018832         0.5124 
  83   0.0000       0.023533         0.6404 
  84   0.0000       0.028679         0.7804 
  85   0.0000       0.030362         0.8262 
  86   0.0000       0.034175         0.9299 

                 SPIN DOWN ORBITALS
  NO   OCC          E(Eh)            E(eV) 
   0   1.0000     -88.926335     -2419.8086 
   1   1.0000     -14.332187      -389.9986 
   2   1.0000     -14.332180      -389.9985 
   3   1.0000     -14.284475      -388.7003 
   4   1.0000     -10.204608      -277.6815 
   5   1.0000     -10.204597      -277.6812 
   6   1.0000     -10.200504      -277.5698 
   7   1.0000     -10.200496      -277.5696 
   8   1.0000     -10.192839      -277.3612 
   9   1.0000     -10.192835      -277.3612 
  10   1.0000     -10.178504      -276.9712 
  11   1.0000     -10.178475      -276.9704 
  12   1.0000     -10.178439      -276.9694 
  13   1.0000     -10.178429      -276.9691 
  14   1.0000     -10.161045      -276.4961 
  15   1.0000     -10.161012      -276.4952 
  16   1.0000     -10.158430      -276.4249 
  17   1.0000     -10.158424      -276.4248 
  18   1.0000     -10.157537      -276.4006 
  19   1.0000     -10.157531      -276.4005 
  20   1.0000      -7.991800      -217.4679 
  21   1.0000      -5.913102      -160.9037 
  22   1.0000      -5.909581      -160.8079 
  23   1.0000      -5.905100      -160.6859 
  24   1.0000      -0.958820       -26.0908 
  25   1.0000      -0.958355       -26.0782 
  26   1.0000      -0.932777       -25.3822 
  27   1.0000      -0.854147       -23.2425 
  28   1.0000      -0.840603       -22.8740 
  29   1.0000      -0.802814       -21.8457 
  30   1.0000      -0.759441       -20.6654 
  31   1.0000      -0.752712       -20.4823 
  32   1.0000      -0.732712       -19.9381 
  33   1.0000      -0.716061       -19.4850 
  34   1.0000      -0.713767       -19.4226 
  35   1.0000      -0.681263       -18.5381 
  36   1.0000      -0.665209       -18.1013 
  37   1.0000      -0.627074       -17.0635 
  38   1.0000      -0.600476       -16.3398 
  39   1.0000      -0.598437       -16.2843 
  40   1.0000      -0.579171       -15.7600 
  41   1.0000      -0.535831       -14.5807 
  42   1.0000      -0.533959       -14.5298 
  43   1.0000      -0.502742       -13.6803 
  44   1.0000      -0.493877       -13.4391 
  45   1.0000      -0.491994       -13.3878 
  46   1.0000      -0.468152       -12.7391 
  47   1.0000      -0.453176       -12.3316 
  48   1.0000      -0.452728       -12.3194 
  49   1.0000      -0.439882       -11.9698 
  50   1.0000      -0.430960       -11.7270 
  51   1.0000      -0.425171       -11.5695 
  52   1.0000      -0.416469       -11.3327 
  53   1.0000      -0.408255       -11.1092 
  54   1.0000      -0.407667       -11.0932 
  55   1.0000      -0.405172       -11.0253 
  56   1.0000      -0.386609       -10.5202 
  57   1.0000      -0.386599       -10.5199 
  58   1.0000      -0.382360       -10.4045 
  59   1.0000      -0.381917       -10.3925 
  60   1.0000      -0.370395       -10.0789 
  61   1.0000      -0.367411        -9.9978 
  62   1.0000      -0.363515        -9.8917 
  63   1.0000      -0.358573        -9.7573 
  64   1.0000      -0.351745        -9.5715 
  65   1.0000      -0.328173        -8.9300 
  66   1.0000      -0.323990        -8.8162 
  67   1.0000      -0.323158        -8.7936 
  68   1.0000      -0.316331        -8.6078 
  69   1.0000      -0.281277        -7.6539 
  70   1.0000      -0.261106        -7.1051 
  71   1.0000      -0.245606        -6.6833 
  72   1.0000      -0.232928        -6.3383 
  73   1.0000      -0.204248        -5.5579 
  74   1.0000      -0.187508        -5.1023 
  75   0.0000      -0.099012        -2.6942 
  76   0.0000      -0.030539        -0.8310 
  77   0.0000      -0.023198        -0.6313 
  78   0.0000      -0.008480        -0.2308 
  79   0.0000       0.004055         0.1103 
  80   0.0000       0.006631         0.1804 
  81   0.0000       0.017882         0.4866 
  82   0.0000       0.019453         0.5294 
  83   0.0000       0.024049         0.6544 
  84   0.0000       0.029086         0.7915 
  85   0.0000       0.031427         0.8552 
*Only the first 10 virtual orbitals were printed.

                    ********************************
                    * MULLIKEN POPULATION ANALYSIS *
                    ********************************

--------------------------------------------
MULLIKEN ATOMIC CHARGES AND SPIN POPULATIONS
--------------------------------------------
   0 S :   -0.004193    0.119113
   1 C :    1.062096    0.194298
   2 C :   -1.152131   -0.146149
   3 C :    1.393620    0.184157
   4 C :    0.114470   -0.102782
   5 C :   -0.979737    0.127966
   6 H :    0.227584    0.004070
   7 C :    0.472277   -0.058678
   8 N :   -1.042033    0.373592
   9 C :    0.431440   -0.059221
  10 C :   -0.985434    0.128127
  11 C :    0.150139   -0.102994
  12 C :    1.418884    0.184091
  13 C :   -1.209339   -0.145953
  14 C :    1.056979    0.194152
  15 H :   -0.143151   -0.011417
  16 N :   -0.263499    0.077313
  17 C :   -0.982333   -0.015629
  18 H :    0.251351    0.006405
  19 H :    0.250731    0.006410
  20 H :    0.315651    0.000033
  21 C :   -0.952182   -0.014533
  22 H :    0.322993    0.000412
  23 H :    0.225520    0.006237
  24 H :    0.227918    0.006269
  25 H :    0.151646   -0.010437
  26 H :    0.230145    0.004117
  27 H :    0.145815   -0.010504
  28 N :   -0.263113    0.077355
  29 C :   -0.943529   -0.014524
  30 H :    0.225752    0.006275
  31 H :    0.226087    0.006239
  32 H :    0.326527    0.000410
  33 C :   -0.980795   -0.015602
  34 H :    0.251318    0.006409
  35 H :    0.249047    0.006385
  36 H :    0.315777    0.000032
  37 H :   -0.142297   -0.011442
Sum of atomic charges         :    0.0000000
Sum of atomic spin populations:    1.0000000

-----------------------------------------------------
MULLIKEN REDUCED ORBITAL CHARGES AND SPIN POPULATIONS
-----------------------------------------------------
CHARGE
  0 S s       :     6.185505  s :     6.185505
      pz      :     3.805280  p :     9.776605
      px      :     2.647317
      py      :     3.324008
      dz2     :     0.016392  d :     0.034862
      dxz     :     0.028721
      dyz     :     0.013056
      dx2y2   :    -0.048474
      dxy     :     0.025167
      f0      :     0.003221  f :     0.007220
      f+1     :    -0.000059
      f-1     :     0.000936
      f+2     :     0.000525
      f-2     :     0.001301
      f+3     :     0.000834
      f-3     :     0.000463

  1 C s       :     3.303807  s :     3.303807
      pz      :     0.989648  p :     1.490884
      px      :    -0.113213
      py      :     0.614449
      dz2     :    -0.022734  d :     0.202262
      dxz     :    -0.028925
      dyz     :    -0.013889
      dx2y2   :     0.152442
      dxy     :     0.115367
      f0      :     0.003553  f :    -0.059049
      f+1     :    -0.000174
      f-1     :    -0.001543
      f+2     :    -0.003485
      f-2     :     0.003252
      f+3     :    -0.058769
      f-3     :    -0.001884

  2 C s       :     4.466928  s :     4.466928
      pz      :     1.103983  p :     2.423248
      px      :     0.500516
      py      :     0.818750
      dz2     :     0.004329  d :     0.283570
      dxz     :    -0.013810
      dyz     :     0.009086
      dx2y2   :     0.145622
      dxy     :     0.138344
      f0      :     0.001087  f :    -0.021616
      f+1     :    -0.000483
      f-1     :     0.000052
      f+2     :     0.001246
      f-2     :    -0.000949
      f+3     :    -0.023730
      f-3     :     0.001161

  3 C s       :     3.490587  s :     3.490587
      pz      :     0.957043  p :     1.503596
      px      :     0.344597
      py      :     0.201956
      dz2     :    -0.034818  d :    -0.378415
      dxz     :     0.049468
      dyz     :    -0.004921
      dx2y2   :    -0.107307
      dxy     :    -0.280836
      f0      :     0.003036  f :    -0.009388
      f+1     :     0.000645
      f-1     :    -0.000561
      f+2     :     0.003044
      f-2     :     0.005082
      f+3     :    -0.013473
      f-3     :    -0.007160

  4 C s       :     3.751158  s :     3.751158
      pz      :     1.021945  p :     2.220143
      px      :     0.536855
      py      :     0.661343
      dz2     :    -0.000265  d :    -0.065790
      dxz     :     0.020769
      dyz     :     0.007129
      dx2y2   :     0.016471
      dxy     :    -0.109895
      f0      :     0.000335  f :    -0.019981
      f+1     :     0.000437
      f-1     :    -0.000127
      f+2     :    -0.001485
      f-2     :    -0.000090
      f+3     :    -0.022929
      f-3     :     0.003877

  5 C s       :     4.231326  s :     4.231326
      pz      :     0.979608  p :     2.709074
      px      :     0.833192
      py      :     0.896274
      dz2     :    -0.002930  d :     0.061251
      dxz     :     0.049204
      dyz     :     0.014912
      dx2y2   :     0.055229
      dxy     :    -0.055164
      f0      :     0.000491  f :    -0.021915
      f+1     :    -0.000480
      f-1     :     0.000809
      f+2     :    -0.001029
      f-2     :     0.000016
      f+3     :    -0.023966
      f-3     :     0.002244

  6 H s       :     0.714264  s :     0.714264
      pz      :     0.022313  p :     0.050816
      px      :     0.029513
      py      :    -0.001011
      dz2     :     0.000287  d :     0.007337
      dxz     :    -0.000183
      dyz     :     0.005312
      dx2y2   :     0.001164
      dxy     :     0.000757

  7 C s       :     3.139679  s :     3.139679
      pz      :     0.951751  p :     2.444960
      px      :     0.568894
      py      :     0.924315
      dz2     :    -0.019407  d :    -0.025362
      dxz     :     0.021867
      dyz     :     0.009239
      dx2y2   :     0.012743
      dxy     :    -0.049804
      f0      :     0.001893  f :    -0.031554
      f+1     :     0.001756
      f-1     :     0.002175
      f+2     :     0.000325
      f-2     :     0.003967
      f+3     :    -0.032575
      f-3     :    -0.009095

  8 N s       :     4.270019  s :     4.270019
      pz      :     1.235920  p :     3.648917
      px      :     0.918636
      py      :     1.494361
      dz2     :    -0.011979  d :     0.131224
      dxz     :     0.057912
      dyz     :     0.013571
      dx2y2   :     0.040000
      dxy     :     0.031720
      f0      :     0.001226  f :    -0.008128
      f+1     :    -0.001910
      f-1     :    -0.000118
      f+2     :    -0.000542
      f-2     :     0.002783
      f+3     :    -0.008115
      f-3     :    -0.001452

  9 C s       :     3.163204  s :     3.163204
      pz      :     0.951855  p :     2.461142
      px      :     0.588435
      py      :     0.920852
      dz2     :    -0.018520  d :    -0.024801
      dxz     :     0.021896
      dyz     :     0.009218
      dx2y2   :     0.008032
      dxy     :    -0.045426
      f0      :     0.001894  f :    -0.030986
      f+1     :     0.001823
      f-1     :     0.002194
      f+2     :     0.000329
      f-2     :     0.003959
      f+3     :    -0.032204
      f-3     :    -0.008982

 10 C s       :     4.234641  s :     4.234641
      pz      :     0.979597  p :     2.707784
      px      :     0.829646
      py      :     0.898542
      dz2     :    -0.003117  d :     0.064999
      dxz     :     0.049212
      dyz     :     0.014911
      dx2y2   :     0.058547
      dxy     :    -0.054554
      f0      :     0.000490  f :    -0.021990
      f+1     :    -0.000471
      f-1     :     0.000800
      f+2     :    -0.001033
      f-2     :     0.000012
      f+3     :    -0.024000
      f-3     :     0.002212

 11 C s       :     3.747893  s :     3.747893
      pz      :     1.021996  p :     2.195954
      px      :     0.532361
      py      :     0.641597
      dz2     :     0.000073  d :    -0.074041
      dxz     :     0.020822
      dyz     :     0.007128
      dx2y2   :     0.009914
      dxy     :    -0.111978
      f0      :     0.000335  f :    -0.019945
      f+1     :     0.000455
      f-1     :    -0.000135
      f+2     :    -0.001488
      f-2     :    -0.000087
      f+3     :    -0.022926
      f-3     :     0.003901

 12 C s       :     3.480178  s :     3.480178
      pz      :     0.957030  p :     1.491452
      px      :     0.361087
      py      :     0.173335
      dz2     :    -0.034211  d :    -0.381332
      dxz     :     0.049430
      dyz     :    -0.005101
      dx2y2   :    -0.110939
      dxy     :    -0.280511
      f0      :     0.003035  f :    -0.009183
      f+1     :     0.000690
      f-1     :    -0.000548
      f+2     :     0.003034
      f-2     :     0.005085
      f+3     :    -0.013430
      f-3     :    -0.007050

 13 C s       :     4.485731  s :     4.485731
      pz      :     1.103931  p :     2.467525
      px      :     0.541671
      py      :     0.821924
      dz2     :     0.004873  d :     0.277322
      dxz     :    -0.013546
      dyz     :     0.009045
      dx2y2   :     0.140287
      dxy     :     0.136664
      f0      :     0.001095  f :    -0.021239
      f+1     :    -0.000432
      f-1     :     0.000046
      f+2     :     0.001240
      f-2     :    -0.000951
      f+3     :    -0.023353
      f-3     :     0.001115

 14 C s       :     3.298280  s :     3.298280
      pz      :     0.989554  p :     1.487825
      px      :    -0.121960
      py      :     0.620230
      dz2     :    -0.022600  d :     0.215868
      dxz     :    -0.028730
      dyz     :    -0.014030
      dx2y2   :     0.156554
      dxy     :     0.124674
      f0      :     0.003555  f :    -0.058951
      f+1     :    -0.000189
      f-1     :    -0.001544
      f+2     :    -0.003486
      f-2     :     0.003250
      f+3     :    -0.058737
      f-3     :    -0.001801

 15 H s       :     1.139313  s :     1.139313
      pz      :     0.019562  p :    -0.006624
      px      :    -0.041515
      py      :     0.015329
      dz2     :     0.000817  d :     0.010463
      dxz     :     0.000004
      dyz     :     0.005515
      dx2y2   :     0.001579
      dxy     :     0.002549

 16 N s       :     4.264095  s :     4.264095
      pz      :     1.499307  p :     2.929319
      px      :     0.680214
      py      :     0.749799
      dz2     :    -0.006248  d :     0.049248
      dxz     :     0.028798
      dyz     :     0.017828
      dx2y2   :     0.006871
      dxy     :     0.001999
      f0      :    -0.000064  f :     0.020837
      f+1     :    -0.000600
      f-1     :    -0.000859
      f+2     :     0.002539
      f-2     :     0.002698
      f+3     :     0.017814
      f-3     :    -0.000693

 17 C s       :     3.678466  s :     3.678466
      pz      :     1.144731  p :     3.132134
      px      :     1.115491
      py      :     0.871912
      dz2     :     0.016058  d :     0.140829
      dxz     :     0.022252
      dyz     :     0.083045
      dx2y2   :    -0.004012
      dxy     :     0.023487
      f0      :     0.004688  f :     0.030904
      f+1     :     0.001156
      f-1     :     0.003043
      f+2     :     0.003259
      f-2     :     0.004433
      f+3     :     0.013682
      f-3     :     0.000644

 18 H s       :     0.715096  s :     0.715096
      pz      :     0.014687  p :     0.029164
      px      :     0.009892
      py      :     0.004584
      dz2     :     0.002271  d :     0.004389
      dxz     :     0.000380
      dyz     :     0.001997
      dx2y2   :    -0.000300
      dxy     :     0.000042

 19 H s       :     0.715724  s :     0.715724
      pz      :     0.014682  p :     0.029183
      px      :     0.010020
      py      :     0.004481
      dz2     :     0.002307  d :     0.004361
      dxz     :     0.000314
      dyz     :     0.001990
      dx2y2   :    -0.000297
      dxy     :     0.000047

 20 H s       :     0.659816  s :     0.659816
      pz      :     0.017926  p :     0.019328
      px      :     0.010399
      py      :    -0.008998
      dz2     :    -0.000666  d :     0.005206
      dxz     :     0.003218
      dyz     :    -0.000011
      dx2y2   :    -0.001155
      dxy     :     0.003820

 21 C s       :     3.644367  s :     3.644367
      pz      :     1.143900  p :     3.130186
      px      :     0.904318
      py      :     1.081968
      dz2     :     0.009720  d :     0.147265
      dxz     :     0.029154
      dyz     :     0.079642
      dx2y2   :     0.026781
      dxy     :     0.001967
      f0      :     0.004827  f :     0.030365
      f+1     :     0.001502
      f-1     :     0.003302
      f+2     :     0.005353
      f-2     :     0.002117
      f+3     :     0.010284
      f-3     :     0.002980

 22 H s       :     0.651518  s :     0.651518
      pz      :     0.018114  p :     0.020022
      px      :     0.004824
      py      :    -0.002916
      dz2     :    -0.000710  d :     0.005468
      dxz     :     0.000965
      dyz     :     0.002250
      dx2y2   :     0.003822
      dxy     :    -0.000859

 23 H s       :     0.735430  s :     0.735430
      pz      :     0.016653  p :     0.034735
      px      :    -0.001718
      py      :     0.019800
      dz2     :     0.002208  d :     0.004316
      dxz     :     0.001795
      dyz     :     0.000537
      dx2y2   :     0.000098
      dxy     :    -0.000324

 24 H s       :     0.732810  s :     0.732810
      pz      :     0.016997  p :     0.034975
      px      :    -0.001624
      py      :     0.019601
      dz2     :     0.002145  d :     0.004297
      dxz     :     0.001828
      dyz     :     0.000581
      dx2y2   :     0.000095
      dxy     :    -0.000351

[...]
      dxz     :    -0.000014
      dyz     :    -0.000080
      dx2y2   :     0.000026
      dxy     :     0.000145

 35 H s       :     0.002324  s :     0.002324
      pz      :     0.000200  p :     0.000204
      px      :     0.000016
      py      :    -0.000013
      dz2     :    -0.000047  d :     0.000031
      dxz     :    -0.000015
      dyz     :    -0.000079
      dx2y2   :     0.000026
      dxy     :     0.000146

 36 H s       :     0.000079  s :     0.000079
      pz      :    -0.000146  p :    -0.000304
      px      :    -0.000027
      py      :    -0.000131
      dz2     :    -0.000010  d :     0.000234
      dxz     :    -0.000056
      dyz     :     0.000449
      dx2y2   :    -0.000020
      dxy     :    -0.000127

 37 H s       :     0.000952  s :     0.000952
      pz      :    -0.003517  p :    -0.004209
      px      :    -0.000214
      py      :    -0.000478
      dz2     :     0.000000  d :    -0.003315
      dxz     :     0.000355
      dyz     :    -0.003190
      dx2y2   :    -0.000237
      dxy     :    -0.000244



                      *****************************
                      * MAYER POPULATION ANALYSIS *
                      *****************************

  NA   - Mulliken gross atomic population
  ZA   - Total nuclear charge
  QA   - Mulliken gross atomic charge
  VA   - Mayer's total valence
  BVA  - Mayer's bonded valence
  FA   - Mayer's free valence

  ATOM       NA         ZA         QA         VA         BVA        FA
  0 S     16.0042    16.0000    -0.0042     0.9143     0.8972     0.0171
  1 C      4.9379     6.0000     1.0621     0.2068     0.1880     0.0188
  2 C      7.1521     6.0000    -1.1521     1.4585     1.4494     0.0091
  3 C      4.6064     6.0000     1.3936    -0.2149    -0.2289     0.0140
  4 C      5.8855     6.0000     0.1145     1.4461     1.4412     0.0049
  5 C      6.9797     6.0000    -0.9797     1.3240     1.3089     0.0151
  6 H      0.7724     1.0000     0.2276     1.0799     1.0798     0.0000
  7 C      5.5277     6.0000     0.4723     2.0649     2.0540     0.0109
  8 N      8.0420     7.0000    -1.0420     1.2251     1.0963     0.1288
  9 C      5.5686     6.0000     0.4314     2.1345     2.1236     0.0109
 10 C      6.9854     6.0000    -0.9854     1.2936     1.2786     0.0151
 11 C      5.8499     6.0000     0.1501     1.3757     1.3709     0.0049
 12 C      4.5811     6.0000     1.4189    -0.2744    -0.2884     0.0140
 13 C      7.2093     6.0000    -1.2093     1.5404     1.5313     0.0091
 14 C      4.9430     6.0000     1.0570     0.2299     0.2111     0.0188
 15 H      1.1432     1.0000    -0.1432     1.1195     1.1194     0.0001
 16 N      7.2635     7.0000    -0.2635     1.4289     1.4222     0.0067
 17 C      6.9823     6.0000    -0.9823     3.6690     3.6688     0.0002
 18 H      0.7486     1.0000     0.2514     0.9723     0.9723     0.0000
 19 H      0.7493     1.0000     0.2507     0.9720     0.9719     0.0000
 20 H      0.6843     1.0000     0.3157     0.8591     0.8591     0.0000
 21 C      6.9522     6.0000    -0.9522     3.7000     3.6997     0.0002
 22 H      0.6770     1.0000     0.3230     0.8480     0.8480     0.0000
 23 H      0.7745     1.0000     0.2255     1.0062     1.0062     0.0000
 24 H      0.7721     1.0000     0.2279     1.0057     1.0057     0.0000
 25 H      0.8484     1.0000     0.1516     0.7286     0.7285     0.0001
 26 H      0.7699     1.0000     0.2301     1.0784     1.0784     0.0000
 27 H      0.8542     1.0000     0.1458     0.7337     0.7336     0.0001
 28 N      7.2631     7.0000    -0.2631     1.4603     1.4536     0.0067
 29 C      6.9435     6.0000    -0.9435     3.7037     3.7035     0.0002
 30 H      0.7742     1.0000     0.2258     1.0076     1.0075     0.0000
 31 H      0.7739     1.0000     0.2261     1.0078     1.0078     0.0000
 32 H      0.6735     1.0000     0.3265     0.8447     0.8447     0.0000
 33 C      6.9808     6.0000    -0.9808     3.6762     3.6760     0.0002
 34 H      0.7487     1.0000     0.2513     0.9726     0.9726     0.0000
 35 H      0.7510     1.0000     0.2490     0.9747     0.9747     0.0000
 36 H      0.6842     1.0000     0.3158     0.8616     0.8616     0.0000
 37 H      1.1423     1.0000    -0.1423     1.1173     1.1172     0.0001

  Mayer bond orders larger than 0.100000
B(  0-S ,  1-C ) :   0.1524 B(  0-S ,  2-C ) :   0.1343 B(  0-S ,  7-C ) :   0.3509 
B(  0-S ,  8-N ) :  -0.1727 B(  0-S ,  9-C ) :   0.3573 B(  0-S , 13-C ) :   0.1340 
B(  0-S , 14-C ) :   0.1733 B(  1-C ,  4-C ) :  -0.4646 B(  1-C ,  7-C ) :   0.5961 
B(  1-C , 12-C ) :   0.1033 B(  1-C , 13-C ) :   0.2101 B(  1-C , 14-C ) :  -0.3905 
B(  1-C , 28-N ) :   0.3236 B(  1-C , 33-C ) :   0.1681 B(  1-C , 37-H ) :  -0.1108 
B(  2-C ,  3-C ) :   0.1752 B(  2-C ,  5-C ) :  -0.2333 B(  2-C ,  7-C ) :   0.5876 
B(  2-C ,  9-C ) :  -0.2097 B(  2-C , 14-C ) :   0.2182 B(  2-C , 25-H ) :  -0.1032 
B(  2-C , 28-N ) :  -0.5298 B(  2-C , 29-C ) :   0.1937 B(  2-C , 33-C ) :  -0.3001 
B(  2-C , 37-H ) :   1.4707 B(  3-C ,  4-C ) :   0.4796 B(  3-C ,  5-C ) :  -0.2627 
B(  3-C ,  6-H ) :   0.1191 B(  3-C ,  9-C ) :  -0.1575 B(  3-C , 27-H ) :  -0.1522 
B(  3-C , 28-N ) :  -0.2211 B(  3-C , 29-C ) :  -0.1931 B(  3-C , 33-C ) :  -0.2383 
B(  3-C , 37-H ) :  -0.1582 B(  4-C ,  5-C ) :   0.6666 B(  4-C ,  7-C ) :   0.6418 
B(  4-C ,  8-N ) :   0.1496 B(  4-C , 27-H ) :   0.9903 B(  4-C , 28-N ) :  -0.6159 
B(  4-C , 29-C ) :  -0.2335 B(  5-C ,  6-H ) :   0.9109 B(  5-C ,  7-C ) :  -0.5935 
B(  5-C ,  8-N ) :   0.3961 B(  5-C ,  9-C ) :   0.4295 B(  5-C , 28-N ) :   0.1203 
B(  6-H ,  8-N ) :   0.2288 B(  6-H ,  9-C ) :  -0.1806 B(  7-C ,  8-N ) :  -0.1087 
B(  7-C ,  9-C ) :   0.8705 B(  7-C , 10-C ) :   0.4480 B(  7-C , 12-C ) :  -0.1898 
B(  7-C , 13-C ) :  -0.1941 B(  7-C , 14-C ) :  -0.1057 B(  7-C , 26-H ) :  -0.1803 
B(  7-C , 28-N ) :  -0.2107 B(  7-C , 37-H ) :  -0.1108 B(  8-N , 10-C ) :   0.3722 
B(  8-N , 11-C ) :   0.1507 B(  8-N , 26-H ) :   0.2394 B(  9-C , 10-C ) :  -0.5948 
B(  9-C , 11-C ) :   0.6354 B(  9-C , 13-C ) :   0.6029 B(  9-C , 14-C ) :   0.5801 
B(  9-C , 15-H ) :  -0.1073 B(  9-C , 16-N ) :  -0.2040 B( 10-C , 11-C ) :   0.6653 
B( 10-C , 12-C ) :  -0.2816 B( 10-C , 13-C ) :  -0.2310 B( 10-C , 16-N ) :   0.1177 
B( 10-C , 26-H ) :   0.9124 B( 11-C , 12-C ) :   0.5184 B( 11-C , 14-C ) :  -0.4681 
B( 11-C , 16-N ) :  -0.6838 B( 11-C , 21-C ) :  -0.2528 B( 11-C , 25-H ) :   0.9912 
B( 12-C , 13-C ) :   0.1583 B( 12-C , 15-H ) :  -0.1560 B( 12-C , 16-N ) :  -0.2504 
B( 12-C , 17-C ) :  -0.2689 B( 12-C , 21-C ) :  -0.1820 B( 12-C , 25-H ) :  -0.1578 
B( 12-C , 26-H ) :   0.1173 B( 13-C , 15-H ) :   1.4634 B( 13-C , 16-N ) :  -0.4645 
B( 13-C , 17-C ) :  -0.2778 B( 13-C , 21-C ) :   0.1965 B( 14-C , 15-H ) :  -0.1108 
B( 14-C , 16-N ) :   0.3195 B( 14-C , 17-C ) :   0.1672 B( 15-H , 17-C ) :  -0.1589 
B( 16-N , 17-C ) :   1.3032 B( 16-N , 20-H ) :  -0.1093 B( 16-N , 21-C ) :   1.3397 
B( 17-C , 18-H ) :   0.9691 B( 17-C , 19-H ) :   0.9698 B( 17-C , 20-H ) :   0.8611 
B( 21-C , 22-H ) :   0.8093 B( 21-C , 23-H ) :   1.0146 B( 21-C , 24-H ) :   1.0119 
B( 21-C , 25-H ) :  -0.2282 B( 27-H , 29-C ) :  -0.2279 B( 28-N , 29-C ) :   1.3360 
B( 28-N , 33-C ) :   1.2985 B( 28-N , 36-H ) :  -0.1078 B( 29-C , 30-H ) :   1.0141 
B( 29-C , 31-H ) :   1.0145 B( 29-C , 32-H ) :   0.8035 B( 33-C , 34-H ) :   0.9694 
B( 33-C , 35-H ) :   0.9708 B( 33-C , 36-H ) :   0.8613 B( 33-C , 37-H ) :  -0.1609 


-------
TIMINGS
-------

Total SCF time: 0 days 0 hours 40 min 25 sec 

Total time                  ....    2425.262 sec
Sum of individual times     ....    2424.561 sec  (100.0%)

SCF preparation             ....       1.785 sec  (  0.1%)
Fock matrix formation       ....    2358.766 sec  ( 97.3%)
  Startup                   ....       2.768 sec  (  0.1% of F)
  Split-RI-J                ....      96.425 sec  (  4.1% of F)
  Chain of spheres X        ....    1401.273 sec  ( 59.4% of F)
  XC integration            ....     803.290 sec  ( 34.1% of F)
    XC Preparation          ....       0.000 sec  (  0.0% of XC)
    Basis function eval.    ....      41.536 sec  (  5.2% of XC)
    Density eval.           ....     296.065 sec  ( 36.9% of XC)
    XC-Functional eval.     ....       3.602 sec  (  0.4% of XC)
    XC-Potential eval.      ....     447.892 sec  ( 55.8% of XC)
  CPCM terms                ....      45.010 sec  (  1.9% of F)
Diagonalization             ....       0.000 sec  (  0.0%)
Density matrix formation    ....       7.933 sec  (  0.3%)
Total Energy calculation    ....       3.855 sec  (  0.2%)
Population analysis         ....       1.223 sec  (  0.1%)
Orbital Transformation      ....       4.223 sec  (  0.2%)
Orbital Orthonormalization  ....       0.000 sec  (  0.0%)
DIIS solution               ....      33.697 sec  (  1.4%)
SOSCF solution              ....      13.078 sec  (  0.5%)
Finished LeanSCF after 2425.9 sec

Maximum memory used throughout the entire LEANSCF-calculation: 358.6 MB


-------------------------------------------------------------------------------
                          DFT DISPERSION CORRECTION                            
                                                                               
                              DFTD3 V3.1  Rev 1                                
                          USING Becke-Johnson damping                          
-------------------------------------------------------------------------------
The R2SCANh functional is recognized
Active option DFTDOPT                   ...         4   

molecular C6(AA) [au] = 17387.483025 


            DFT-D V3
 parameters
 s6 scaling factor         :     1.0000 
 a1 scaling factor         :     0.4709 
 s8 scaling factor         :     1.1236 
 a2 scaling factor         :     5.9157 
 ad hoc parameters k1-k3   :    16.0000     1.3333    -4.0000 

 Edisp/kcal,au: -10.574547346157  -0.016851612056 
 E6   /kcal   :  -7.557628777 
 E8   /kcal   :  -3.016918570 
 % E8         :  28.530002003 

-------------------------   ----------------
Dispersion correction           -0.016851612
-------------------------   ----------------


-------------------------   --------------------
FINAL SINGLE POINT ENERGY     -1182.784319478143
-------------------------   --------------------



           ************************************************************
           *        Program running with 4 parallel MPI-processes     *
           *              working on a common directory               *
           ************************************************************

------------------------------------------------------------------------------
                              ORCA PROPERTY CALCULATIONS
------------------------------------------------------------------------------

GBWName                                 ... cs_rporg_184_red_solv_04.gbw
Number of atoms                         ...     38
Number of basis functions               ...   1477
Max core memory                         ...   3000 MB

Electric properties:
Dipole moment                           ... YES
Quadrupole moment                       ...  NO
Static polarizability (Dipole/Dipole)   ...  NO
Static polarizability (Dipole/Quad.)    ...  NO
Static polarizability (Quad./Quad.)     ...  NO
Static polarizability (Velocity)        ...  NO

Atomic electric properties:
Dipole moment                           ...  NO
Quadrupole moment                       ...  NO
Static polarizability                   ...  NO

Choice of electric origin               ... Center of mass
Position of electric origin             ...    -0.000133    -0.010880    -0.000942

General magnetic properties:
Magnetizability                         ...  NO

EPR properties:
g-Tensor (aka g-matrix)                 ...  NO
Zero-Field splitting spin-orbit         ...  NO
Zero-field splitting spin-spin          ...  NO
Hyperfine couplings                     ...  NO (   0 nuclei)
Quadrupole couplings                    ...  NO (   0 nuclei)
Contact density                         ...  NO (   0 nuclei)

NMR properties:
Chemical shifts                         ...  NO (   0 nuclei)
Spin-rotation constants                 ...  NO (   0 nuclei)
Spin-spin couplings                     ...  NO (   0 nuclei,    0 pairs)

Choice of magnetic origin               ... GIAO
Position of magnetic origin             ...     0.000000     0.000000     0.000000

Properties with geometric perturbations:
SCF Hessian                             ...  NO
IR spectrum                             ...  NO
VCD spectrum                            ...  NO
X-ray spectroscopy properties:
SCF XES/XAS/RIXS spectra                ...  NO


-------------
DIPOLE MOMENT
-------------

Method             : SCF
Type of density    : Electron Density
Multiplicity       :   2
Irrep              :   0
Energy             : -1182.7674678660871450 Eh
Relativity type    : 
Basis              : AO
                                X                 Y                 Z
Electronic contribution:     -0.000632771      -3.192721784       0.004937124
Nuclear contribution   :     -0.000087217       5.020383448      -0.005360537
                        -----------------------------------------
Total Dipole Moment    :     -0.000719987       1.827661664      -0.000423413
                        -----------------------------------------
Magnitude (a.u.)       :      1.827661855
Magnitude (Debye)      :      4.645547248



--------------------
Rotational spectrum 
--------------------
 
Rotational constants in cm-1:             0.035055             0.004401             0.003922 
Rotational constants in MHz :          1050.925207           131.948316           117.581806 

Dipole components along the rotational axes: 
x,y,z [a.u.] :    -0.000678    -1.827662    -0.000763 
x,y,z [Debye]:    -0.001724    -4.645547    -0.001940 

 

Dipole moment calculation done in   0.1 sec 

Maximum memory used throughout the entire PROP-calculation: 208.4 MB

--------------------------------
SUGGESTED CITATIONS FOR THIS RUN
--------------------------------

Below you find a list of papers that are relevant to this ORCA run
We neither can nor want to force you to cite these papers, but we appreciate if you do
You receive ORCA, which is the product of decades of hard work by many enthusiastic individuals, for free
The only thing we kindly ask in return is that you cite our papers,
We deeply appreciate it, if you show your appreciation for ORCA by not just citing the generic ORCA reference.

Please note that relegating all ORCA citations to the supporting information does *not* help us.
SI sections are not indexed - citations you put there will not count into any citation statistics
But we need these citations in order to attract the funding resources that allow us to do what we are doing

Therefore, if you are a happy ORCA user, please consider citing a few of the papers listed below in the main body of your paper

In addition to the list printed below, the program has created the file cs_rporg_184_red_solv_04.bibtex that contains the list in bibtex format
You can import this file easily into all common literature databanks and citation aid programs


List of essential papers. We consider these as the minimum necessary citations

  1. Neese,F.
     Software update: the ORCA program system, version 5.0
     WIRES Comput. Molec. Sci., 2022 12(1)e1606
     doi.org/10.1002/wcms.1606

List of papers to cite with high priority. The work reported in these papers was absolutely
necessary for this run to complete.
Our perspective: the developers of density functionals and basis sets usually get cited in chemistry papers
Good! But without the algorithms to do something with them, the functionals or basis sets would not do anything.
Hence, in our opinion, the algorithm design and method developments papers are equally worthy of getting cited

  1. Neese,F.
     An improvement of the resolution of the identity approximation for the formation of the Coulomb matrix
     J. Comp. Chem., 2003 24(14)1740-1747
     doi.org/10.1002/jcc.10318
  2. Neese,F.; Wennmohs,F.; Hansen,A.; Becker,U.
     Efficient, approximate and parallel Hartree-Fock and hybrid DFT calculations. A 'chain-of-spheres' algorithm for the Hartree-Fock exchange
     Chem. Phys., 2009 356(1-3)98-109
     doi.org/10.1016/j.chemphys.2008.10.036
  3. Garcia-Rates,M.; Neese,F.
     Effect of the Solute Cavity on the Solvation Energy and its Derivatives within the Framework of the Gaussian Charge Scheme
     J. Comput. Chem., 2020 41 922-939
     doi.org/10.1002/jcc.26139
  4. Helmich-Paris,B.; de Souza,B.; Neese,F.; Izsák,R.
     An improved chain of spheres for exchange algorithm
     J. Chem. Phys., 2021 155 104109
     doi.org/doi: 10.1063/5.0058766.
  5. Neese,F.
     The SHARK Integral Generation and Digestion System
     J. Comp. Chem., 2022  1-16
     doi.org/10.1002/jcc.26942
  6. Lehtola,S.; Steigemann,C.; Oliveira,M.; Marques,M.
     Recent developments in Libxc - A comprehensive library of functionals for density functional theory
     Software X, 2018 7 
     doi.org/10.1016/j.softx.2017.11.002
  7. Grimme,S.; Antony,J.; Ehrlich,S.; Krieg,H.
     A consistent and accurate ab initio parametrization of density functional dispersion correction (DFT-D) for the 94 elements H-Pu
     J. Chem. Phys., 2010 132 154104-XXXX
     doi.org/10.1063/1.3382344
  8. Grimme,S.; Ehrlich,S.; Goerigk,L.
     Effect of the damping function in dispersion corrected density functional theory
     J. Comput. Chem., 2011 32(7)1456-1465
     doi.org/10.1002/jcc.21759
  9. Bursch,M.; Neugebauer,H.; Ehlert,S.; Grimme,S.
     Dispersion corrected r2SCAN based global hybrid functionals: r2SCANh, r2SCAN0, and r2SCAN50
     J. Phys. Chem., 2022 156(13)134105
     doi.org/10.1063/5.0086040

List of suggested additional citations. These are papers that are important in the 'surrounding' of 
of this run, or papers that preceded the highly important papers. If you like your results we are grateful for a citation.

  1. Izsak,R.; Neese,F.
     An overlap fitted chain of spheres exchange method
     J. Chem. Phys., 2011 135 144105
     doi.org/10.1063/1.3646921
  2. Izsak,R.; Hansen,A.; Neese,F.
     The resolution of identity and chain of spheres approximations for the LPNO-CCSD singles Fock term
     Molec. Phys., 2012 110 2413-2417
     doi.org/10.1080/00268976.2012.687466
  3. Neese,F.
     The ORCA program system
     WIRES Comput. Molec. Sci., 2012 2(1)73-78
     doi.org/10.1002/wcms.81
  4. Izsak,R.; Neese,F.; Klopper,W.
     Robust fitting techniques in the chain of spheres approximation to the Fock exchange: The role of the complementary space
     J. Chem. Phys., 2013 139 
     doi.org/10.1063/1.4819264
  5. Neese,F.
     Software update: the ORCA program system, version 4.0
     WIRES Comput. Molec. Sci., 2018 8(1)1-6
     doi.org/10.1002/wcms.1327
  6. Neese,F.; Wennmohs,F.; Becker,U.; Riplinger,C.
     The ORCA quantum chemistry program package
     J. Chem. Phys., 2020 152 Art. No. L224108
     doi.org/10.1063/5.0004608
  7. Wittmann,L.; Neugebauer,H.; Grimme,S.; Bursch,M.
     Dispersion-corrected r2SCAN based double-hybrid functionals
     J. Chem. Phys., 2023 159(22)224103
     doi.org/10.1063/5.0174988

List of optional additional citations

  1. Neese,F.
     Approximate second-order SCF convergence for spin unrestricted wavefunctions
     Chem. Phys. Lett., 2000 325(1-3)93-98
     doi.org/10.1016/s0009-2614(00)00662-x

Timings for individual modules:

Sum of individual times          ...     2462.452 sec (=  41.041 min)
Startup calculation              ...       22.186 sec (=   0.370 min)   0.9 %
SCF iterations                   ...     2437.906 sec (=  40.632 min)  99.0 %
Property calculations            ...        2.360 sec (=   0.039 min)   0.1 %
                             ****ORCA TERMINATED NORMALLY****
TOTAL RUN TIME: 0 days 0 hours 41 minutes 5 seconds 26 msec
