
                                 *****************
                                 * O   R   C   A *
                                 *****************

                                            #,                                       
                                            ###                                      
                                            ####                                     
                                            #####                                    
                                            ######                                   
                                           ########,                                 
                                     ,,################,,,,,                         
                               ,,#################################,,                 
                          ,,##########################################,,             
                       ,#########################################, ''#####,          
                    ,#############################################,,   '####,        
                  ,##################################################,,,,####,       
                ,###########''''           ''''###############################       
              ,#####''   ,,,,##########,,,,          '''####'''          '####       
            ,##' ,,,,###########################,,,                        '##       
           ' ,,###''''                  '''############,,,                           
         ,,##''                                '''############,,,,        ,,,,,,###''
      ,#''                                            '''#######################'''  
     '                                                          ''''####''''         
             ,#######,   #######,   ,#######,      ##                                
            ,#'     '#,  ##    ##  ,#'     '#,    #''#        ,####,   ,####,        
            ##       ##  ##   ,#'  ##            #'  '#       #'       #'  '#        
            ##       ##  #######   ##           ,######,      #####,   #    #        
            '#,     ,#'  ##    ##  '#,     ,#' ,#      #,     #,   #   #,  ,#        
             '#######'   ##     ##  '#######'  #'      '#     '####' # '####'        



                #########################################################
                #                        -***-                          #
                #          Department of theory and spectroscopy        #
                #                                                       #
                #                      Frank Neese                      #
                #                                                       #
                #     Directorship, Architecture, Infrastructure        #
                #                    SHARK, DRIVERS                     #
                #        Core code/Algorithms in most modules           #
                #                                                       #
                #        Max Planck Institute fuer Kohlenforschung      #
                #                Kaiser Wilhelm Platz 1                 #
                #                 D-45470 Muelheim/Ruhr                 #
                #                      Germany                          #
                #                                                       #
                #                  All rights reserved                  #
                #                        -***-                          #
                #########################################################


                         Program Version 6.0.0  -   RELEASE  -


 With contributions from (in alphabetic order):
   Daniel Aravena         : Magnetic Suceptibility
   Michael Atanasov       : Ab Initio Ligand Field Theory (pilot matlab implementation)
   Alexander A. Auer      : GIAO ZORA, VPT2 properties, NMR spectrum
   Ute Becker             : All parallelization in ORCA, NUMFREQ, NUMCALC
   Giovanni Bistoni       : ED, misc. LED, open-shell LED, HFLD
   Martin Brehm           : Molecular dynamics
   Dmytro Bykov           : pre 5.0 version of the SCF Hessian
   Marcos Casanova-Páez   : Triplet and SCS-CIS(D). UHF-(DLPNO)-IP/EA/STEOM-CCSD. UHF-CVS-IP/STEOM-CCSD
   Vijay G. Chilkuri      : MRCI spin determinant printing, contributions to CSF-ICE
   Pauline Colinet        : FMM embedding
   Dipayan Datta          : RHF DLPNO-CCSD density
   Achintya Kumar Dutta   : EOM-CC, STEOM-CC
   Nicolas Foglia         : Exact transition moments, OPA infrastructure, MCD improvements
   Dmitry Ganyushin       : Spin-Orbit,Spin-Spin,Magnetic field MRCI
   Miquel Garcia          : C-PCM and meta-GGA Hessian, CCSD/C-PCM, Gaussian charge scheme
   Tiago L. C. Gouveia    : GS-ROHF, GS-ROCIS
   Yang Guo               : DLPNO-NEVPT2, F12-NEVPT2, CIM, IAO-localization
   Andreas Hansen         : Spin unrestricted coupled pair/coupled cluster methods
   Ingolf Harden          : AUTO-CI MPn and infrastructure 
   Benjamin Helmich-Paris : MC-RPA, TRAH-(SCF,CASSCF), AVAS, COSX integrals, SCF dyn. polar.
   Lee Huntington         : MR-EOM, pCC
   Robert Izsak           : Overlap fitted RIJCOSX, COSX-SCS-MP3, EOM
   Riya Kayal             : Wick's Theorem for AUTO-CI, AUTO-CI UHF-CCSDT
   Emily Kempfer          : AUTO-CI, RHF CISDT and CCSDT
   Christian Kollmar      : KDIIS, OOCD, Brueckner-CCSD(T), CCSD density, CASPT2, CASPT2-K, improved NEVPT2
   Axel Koslowski         : Symmetry handling
   Simone Kossmann        : Meta GGA functionals, TD-DFT gradient, OOMP2, (MP2 Hessian; deprecated post 5.0)
   Lucas Lang             : DCDCAS
   Marvin Lechner         : AUTO-CI (C++ implementation), FIC-MRCC
   Spencer Leger          : CASSCF response
   Dagmar Lenk            : GEPOL surface, SMD, ORCA-2-JSON
   Dimitrios Liakos       : Extrapolation schemes; Compound Job, initial MDCI parallelization
   Dimitrios Manganas     : Further ROCIS development; embedding schemes. LFT, Crystal Embedding
   Dimitrios Pantazis     : SARC Basis sets
   Anastasios Papadopoulos: AUTO-CI, single reference methods and gradients
   Taras Petrenko         : pre 6.0 DFT Hessian and TD-DFT gradient, (ASA, deprecated), ECA, 1-Electron XAS/XES, NRVS
   Peter Pinski           : DLPNO-MP2, DLPNO-MP2 Gradient
   Christoph Reimann      : Effective Core Potentials
   Marius Retegan         : Local ZFS, SOC
   Christoph Riplinger    : Optimizer, TS searches, QM/MM, DLPNO-CCSD(T), (RO)-DLPNO pert. Triples
   Michael Roemelt        : Original ROCIS implementation
   Masaaki Saitow         : Open-shell DLPNO-CCSD energy and density
   Barbara Sandhoefer     : DKH picture change effects
   Kantharuban Sivalingam : CASSCF convergence/infrastructure, NEVPT2 and variants, FIC-MRCI
   Bernardo de Souza      : ESD, SOC TD-DFT
   Georgi Stoychev        : AutoAux, RI-MP2 NMR, DLPNO-MP2 response, X2C
   Van Anh Tran           : RI-MP2 g-tensors
   Willem Van den Heuvel  : Paramagnetic NMR
   Zikuan Wang            : NOTCH, Electric field optimization 
   Frank Wennmohs         : Technical directorship and infrastructure
   Hang Xu                : AUTO-CI-Response properties 


 We gratefully acknowledge several colleagues who have allowed us to
 interface, adapt or use parts of their codes:
   Stefan Grimme, W. Hujo, H. Kruse, P. Pracht,  : VdW corrections, initial TS optimization,
                  C. Bannwarth, S. Ehlert,         DFT functionals, gCP, sTDA/sTD-DF
                  L. Wittmann, M. Mueller
   Ed Valeev, F. Pavosevic, A. Kumar             : LibInt (2-el integral package), F12 methods
   Garnet Chan, S. Sharma, J. Yang, R. Olivares  : DMRG
   Ulf Ekstrom                                   : XCFun DFT Library
   Mihaly Kallay                                 : mrcc  (arbitrary order and MRCC methods)
   Frank Weinhold                                : gennbo (NPA and NBO analysis)
   Simon Mueller                                 : openCOSMO-RS
   Christopher J. Cramer and Donald G. Truhlar   : smd solvation model
   Lars Goerigk                                  : TD-DFT with DH, B97 family of functionals
   V. Asgeirsson, H. Jonsson                     : NEB implementation
   FAccTs GmbH                                   : IRC, NEB, NEB-TS, DLPNO-Multilevel, CI-OPT
                                                   MM, QMMM, 2- and 3-layer-ONIOM, Crystal-QMMM,
                                                   LR-CPCM, SF, NACMEs, symmetry and pop. for TD-DFT,
                                                   nearIR, NL-DFT gradient (VV10), updates on ESD,
                                                   ML-optimized integration grids, MBIS, APM,
                                                   GOAT, DOCKER, SOLVATOR, interface openCOSMO-RS
   S Lehtola, MJT Oliveira, MAL Marques          : LibXC Library
   Liviu Ungur et al                             : ANISO software


 Your calculation uses the libint2 library for the computation of 2-el integrals
 For citations please refer to: http://libint.valeyev.net

 Your ORCA version has been built with support for libXC version: 6.2.2
 For citations please refer to: https://libxc.gitlab.io

 This ORCA versions uses:
   CBLAS   interface :  Fast vector & matrix operations
   LAPACKE interface :  Fast linear algebra routines
   SCALAPACK package :  Parallel linear algebra routines
   Shared memory     :  Shared parallel matrices
   BLAS/LAPACK       :  OpenBLAS 0.3.27  USE64BITINT DYNAMIC_ARCH NO_AFFINITY Haswell SINGLE_THREADED
        Core in use  :  Haswell
   Copyright (c) 2011-2014, The OpenBLAS Project


NOTE: MaxCore=3000 MB was set to SCF,MP2,MDCI,CIPSI,MRCI and CIS
      => If you want to overwrite this, your respective input block should be placed after the MaxCore statement
Your calculation utilizes the atom-pairwise dispersion correction
with the Becke-Johnson damping scheme (D3BJ)


Your calculation utilizes the SMD solvation module
Please cite in your paper:
A.V. Marenich, C.J. Cramer, D.G. Truhlar J. Phys. Chem. B, 113, (2009), 6378 

Warning: RI is on but no J-basis has been assigned. Assigning Def2/J (nothing to worry about!)
================================================================================

----- Orbital basis set information -----
Your calculation utilizes the basis: aug-cc-pVTZ 
    H, B-Ne : Obtained from the ccRepo (grant-hill.group.shef.ac.uk/ccrepo) Feb. 2017
              R. A. Kendall, T. H. Dunning, Jr., R. J. Harrison, J. Chem. Phys. 96, 6796 (1992)
         He : Obtained from the ccRepo (grant-hill.group.shef.ac.uk/ccrepo) Feb. 2017
              D. E. Woon, T. H. Dunning, Jr., J. Chem. Phys. 100, 2975 (1994)
  Li-Be, Na : Obtained from the ccRepo (grant-hill.group.shef.ac.uk/ccrepo) Feb. 2017
              B. P. Prascher, D. E. Woon, K. A. Peterson, T. H. Dunning, Jr., A. K. Wilson, Theor. Chem. Acc. 128, 69 (2011)
         Mg : Obtained from the Peterson Research Group Website (tyr0.chem.wsu.edu/~kipeters) Feb. 2017
              B. P. Prascher, D. E. Woon, K. A. Peterson, T. H. Dunning, Jr., A. K. Wilson, Theor. Chem. Acc. 128, 69 (2011)
      Al-Ar : Obtained from the ccRepo (grant-hill.group.shef.ac.uk/ccrepo) Feb. 2017
              D. E. Woon, T. H. Dunning, Jr., J. Chem. Phys. 98, 1358 (1993)
      Sc-Zn : Obtained from the ccRepo (grant-hill.group.shef.ac.uk/ccrepo) Feb. 2017
              N. B. Balabanov, K. A. Peterson, J. Chem. Phys. 123, 064107 (2005)
              N. B. Balabanov, K. A. Peterson, J. Chem. Phys. 125, 074110 (2006)
      Ga-Kr : Obtained from the ccRepo (grant-hill.group.shef.ac.uk/ccrepo) Feb. 2017
              A. K. Wilson, D. E. Woon, K. A. Peterson, T. H. Dunning, Jr., J. Chem. Phys. 110, 7667 (1999)
     Ag, Au : Obtained from the Peterson Research Group Website (tyr0.chem.wsu.edu/~kipeters) Feb. 2017
              K. A. Peterson, C. Puzzarini, Theor. Chem. Acc. 114, 283 (2005)

----- AuxJ basis set information -----
Your calculation utilizes the auxiliary basis: def2/J
   F. Weigend, Phys. Chem. Chem. Phys. 8, 1057 (2006).

================================================================================
                                        WARNINGS
                       Please study these warnings very carefully!
================================================================================


WARNING: your system is open-shell and RHF/RKS was chosen
  ===> : WILL SWITCH to UHF/UKS


================================================================================
                                       INPUT FILE
================================================================================
NAME = cs_rporg_008_ox_solv_02.inp
|  1> !B3LYP aug-cc-pVTZ d3 TightSCF SlowConv RIJCOSX defgrid2
|  2>  
|  3> %pal
|  4> nprocs 4
|  5> end
|  6>  
|  7> %scf
|  8> MaxIter 1500
|  9> end
| 10>  
| 11> %maxcore 3000
| 12>  
| 13> !CPCM
| 14> %cpcm smd true
| 15> SMDsolvent "MeCN"
| 16> surfacetype gepol_ses
| 17> rsolv 2.19
| 18> end 
| 19>  
| 20> * xyz 1 2
| 21> C           1.84281234672153     -0.00006597869847      0.01285546623039
| 22> C           1.14355368564506     -1.23902490190253      0.00158488089103
| 23> C          -0.22635786234437     -1.24013111711704     -0.01699413586169
| 24> C          -0.95506719113591     -0.00029607647166     -0.02822657050256
| 25> C          -2.42493771335276     -0.00015694603531     -0.01540251479795
| 26> H          -2.85288988584861      0.90688759110700     -0.47308067341050
| 27> H          -2.85357110348468     -0.91037144459146     -0.46576655952987
| 28> H          -2.75683389603493      0.00504463864823      1.05046901822320
| 29> C          -0.22649470626097      1.23969602067318     -0.01458794729593
| 30> C           1.14339815090709      1.23878434923716      0.00398375524291
| 31> H           1.70466297579754      2.17704577622432      0.01138483317017
| 32> H          -0.78522490872320      2.18007136225477     -0.02327385957075
| 33> H          -0.78496408789097     -2.18055191214167     -0.02751919353185
| 34> H           1.70496196149810     -2.17721430622763      0.00716529435102
| 35> H           2.93762583450709      0.00000044504112      0.02964230639238
| 36> *
| 37> 
| 38>                          ****END OF INPUT****
================================================================================

                       ****************************
                       * Single Point Calculation *
                       ****************************

---------------------------------
CARTESIAN COORDINATES (ANGSTROEM)
---------------------------------
  C      1.842812   -0.000066    0.012855
  C      1.143554   -1.239025    0.001585
  C     -0.226358   -1.240131   -0.016994
  C     -0.955067   -0.000296   -0.028227
  C     -2.424938   -0.000157   -0.015403
  H     -2.852890    0.906888   -0.473081
  H     -2.853571   -0.910371   -0.465767
  H     -2.756834    0.005045    1.050469
  C     -0.226495    1.239696   -0.014588
  C      1.143398    1.238784    0.003984
  H      1.704663    2.177046    0.011385
  H     -0.785225    2.180071   -0.023274
  H     -0.784964   -2.180552   -0.027519
  H      1.704962   -2.177214    0.007165
  H      2.937626    0.000000    0.029642

----------------------------
CARTESIAN COORDINATES (A.U.)
----------------------------
  NO LB      ZA    FRAG     MASS         X           Y           Z
   0 C     6.0000    0    12.011    3.482411   -0.000125    0.024293
   1 C     6.0000    0    12.011    2.161003   -2.341418    0.002995
   2 C     6.0000    0    12.011   -0.427754   -2.343508   -0.032114
   3 C     6.0000    0    12.011   -1.804815   -0.000560   -0.053340
   4 C     6.0000    0    12.011   -4.582468   -0.000297   -0.029107
   5 H     1.0000    0     1.008   -5.391181    1.713769   -0.893993
   6 H     1.0000    0     1.008   -5.392468   -1.720353   -0.880171
   7 H     1.0000    0     1.008   -5.209661    0.009533    1.985099
   8 C     6.0000    0    12.011   -0.428013    2.342686   -0.027567
   9 C     6.0000    0    12.011    2.160709    2.340963    0.007528
  10 H     1.0000    0     1.008    3.221346    4.114020    0.021514
  11 H     1.0000    0     1.008   -1.483860    4.119738   -0.043981
  12 H     1.0000    0     1.008   -1.483367   -4.120646   -0.052004
  13 H     1.0000    0     1.008    3.221911   -4.114339    0.013540
  14 H     1.0000    0     1.008    5.551308    0.000001    0.056016

--------------------------------
INTERNAL COORDINATES (ANGSTROEM)
--------------------------------
 C      0   0   0     0.000000000000     0.00000000     0.00000000
 C      1   0   0     1.422711817119     0.00000000     0.00000000
 C      2   1   0     1.370037974981   119.48938289     0.00000000
 C      3   2   1     1.438170498052   120.40140836     0.14500440
 C      4   3   2     1.469926470217   120.44334118   181.48118186
 H      5   4   3     1.102425576252   112.62093391   206.14965660
 H      5   4   3     1.102290700907   112.65612557   332.67454637
 H      5   4   3     1.116362063789   107.79549188    89.46579704
 C      4   3   2     1.438257375695   119.11109408   359.76720359
 C      9   4   3     1.370019043444   120.40269378     0.23304682
 H     10   9   4     1.093346918862   120.85178639   179.81358971
 H      9   4   3     1.093874155134   118.83883285   179.99619756
 H      3   2   1     1.093866062995   120.76039707   179.90292782
 H      2   1   3     1.093347955410   119.65973399   179.95905748
 H      1   2   3     1.094942179045   119.44669179   179.88343874

---------------------------
INTERNAL COORDINATES (A.U.)
---------------------------
 C      0   0   0     0.000000000000     0.00000000     0.00000000
 C      1   0   0     2.688535701849     0.00000000     0.00000000
 C      2   1   0     2.588996565786   119.48938289     0.00000000
 C      3   2   1     2.717748375204   120.40140836     0.14500440
 C      4   3   2     2.777758465711   120.44334118   181.48118186
 H      5   4   3     2.083282422147   112.62093391   206.14965660
 H      5   4   3     2.083027544682   112.65612557   332.67454637
 H      5   4   3     2.109618566860   107.79549188    89.46579704
 C      4   3   2     2.717912550156   119.11109408   359.76720359
 C      9   4   3     2.588960790367   120.40269378     0.23304682
 H     10   9   4     2.066126246016   120.85178639   179.81358971
 H      9   4   3     2.067122578178   118.83883285   179.99619756
 H      3   2   1     2.067107286252   120.76039707   179.90292782
 H      2   1   3     2.066128204807   119.65973399   179.95905748
 H      1   2   3     2.069140850874   119.44669179   179.88343874

---------------------
BASIS SET INFORMATION
---------------------
There are 2 groups of distinct atoms

 Group   1 Type C   : 19s6p3d2f contracted to 5s4p3d2f pattern {88111/3111/111/11}
 Group   2 Type H   : 6s3p2d contracted to 4s3p2d pattern {3111/111/11}

Atom   0C    basis set group =>   1
Atom   1C    basis set group =>   1
Atom   2C    basis set group =>   1
Atom   3C    basis set group =>   1
Atom   4C    basis set group =>   1
Atom   5H    basis set group =>   2
Atom   6H    basis set group =>   2
Atom   7H    basis set group =>   2
Atom   8C    basis set group =>   1
Atom   9C    basis set group =>   1
Atom  10H    basis set group =>   2
Atom  11H    basis set group =>   2
Atom  12H    basis set group =>   2
Atom  13H    basis set group =>   2
Atom  14H    basis set group =>   2
---------------------------------
AUXILIARY/J BASIS SET INFORMATION
---------------------------------
There are 2 groups of distinct atoms

 Group   1 Type C   : 12s5p4d2f1g contracted to 6s4p3d1f1g pattern {711111/2111/211/2/1}
 Group   2 Type H   : 5s2p1d contracted to 3s1p1d pattern {311/2/1}

Atom   0C    basis set group =>   1
Atom   1C    basis set group =>   1
Atom   2C    basis set group =>   1
Atom   3C    basis set group =>   1
Atom   4C    basis set group =>   1
Atom   5H    basis set group =>   2
Atom   6H    basis set group =>   2
Atom   7H    basis set group =>   2
Atom   8C    basis set group =>   1
Atom   9C    basis set group =>   1
Atom  10H    basis set group =>   2
Atom  11H    basis set group =>   2
Atom  12H    basis set group =>   2
Atom  13H    basis set group =>   2
Atom  14H    basis set group =>   2


           ************************************************************
           *        Program running with 4 parallel MPI-processes     *
           *              working on a common directory               *
           ************************************************************
------------------------------------------------------------------------------
                             ORCA STARTUP CALCULATIONS
                           -- RI-GTO INTEGRALS CHOSEN --
------------------------------------------------------------------------------
------------------------------------------------------------------------------
                   ___                                                        
                  /   \      - P O W E R E D   B Y -                         
                 /     \                                                     
                 |  |  |   _    _      __       _____    __    __             
                 |  |  |  | |  | |    /  \     |  _  \  |  |  /  |          
                  \  \/   | |  | |   /    \    | | | |  |  | /  /          
                 / \  \   | |__| |  /  /\  \   | |_| |  |  |/  /          
                |  |  |   |  __  | /  /__\  \  |    /   |      \           
                |  |  |   | |  | | |   __   |  |    \   |  |\   \          
                \     /   | |  | | |  |  |  |  | |\  \  |  | \   \       
                 \___/    |_|  |_| |__|  |__|  |_| \__\ |__|  \__/        
                                                                              
                      - O R C A' S   B I G   F R I E N D -                    
                                      &                                       
                       - I N T E G R A L  F E E D E R -                       
                                                                              
 v1 FN, 2020, v2 2021, v3 2022-2024                                           
------------------------------------------------------------------------------


----------------------
SHARK INTEGRAL PACKAGE
----------------------

Number of atoms                             ...     15
Number of basis functions                   ...    548
Number of shells                            ...    212
Maximum angular momentum                    ...      3
Integral batch strategy                     ... SHARK/LIBINT Hybrid
RI-J (if used) integral strategy            ... SPLIT-RIJ (Revised 2003 algorithm where possible)
Printlevel                                  ...      1
Contraction scheme used                     ... PARTIAL GENERAL contraction
Prescreening option                         ... SCHWARTZ
   Thresh                                   ... 2.500e-11
   Tcut                                     ... 2.500e-12
   Tpresel                                  ... 2.500e-12 
Coulomb Range Separation                    ... NOT USED
Exchange Range Separation                   ... NOT USED
Multipole approximations                    ... NOT USED
Finite Nucleus Model                        ... NOT USED
CABS basis                                  ... NOT available
Auxiliary Coulomb fitting basis             ... AVAILABLE
   # of basis functions in Aux-J            ...    431
   # of shells in Aux-J                     ...    145
   Maximum angular momentum in Aux-J        ...      4
Auxiliary J/K fitting basis                 ... NOT available
Auxiliary Correlation fitting basis         ... NOT available
Auxiliary 'external' fitting basis          ... NOT available

Checking pre-screening integrals            ... done (  0.0 sec) Dimension = 212
Save PGC pre-screening integrals            ... done (  0.0 sec) Dimension = 212
Calculate PGC overlap integrals             ... done (  0.1 sec) Dimension = 170
Calculating pre-screening integrals (ORCA)  ... done (  0.2 sec) Dimension = 170
Check shell pair data                       ... done (  0.0 sec)
Shell pair information
Shell pair cut-off parameter TPreSel        ...   2.5e-12
Total number of shell pairs                 ...     22578
Shell pairs after pre-screening             ...     20202
Total number of primitive shell pairs       ...     29448
Primitive shell pairs kept                  ...     24635
          la=0 lb=0:   4656 shell pairs
          la=1 lb=0:   5184 shell pairs
          la=1 lb=1:   1330 shell pairs
          la=2 lb=0:   3679 shell pairs
          la=2 lb=1:   1857 shell pairs
          la=2 lb=2:    677 shell pairs
          la=3 lb=0:   1480 shell pairs
          la=3 lb=1:    720 shell pairs
          la=3 lb=2:    514 shell pairs
          la=3 lb=3:    105 shell pairs

Calculating one electron integrals          ... done (  0.1 sec)
Calculating RI/J V-Matrix + Cholesky decomp.... done (  0.0 sec)
Calculating Nuclear repulsion               ... done (  0.0 sec) ENN=    267.712162547234 Eh

Diagonalization of the overlap matrix:
Smallest eigenvalue                        ... 6.675e-07
Time for diagonalization                   ...    0.069 sec
Threshold for overlap eigenvalues          ... 1.000e-07
Number of eigenvalues below threshold      ... 0

IMPORTANT:
Smallest eigenvalue of S below the DiffSThresh (1.000e-06) while
Thresh>1e-12 and/or TCut>1e-13! In order to avoid SCF convergence issues,
Thresh will be set to at least 1e-12 and TCut to at least 1e-13.
This can be turned off by adding %SCF DiffSThresh -1 END to the input.

Time for construction of square roots      ...    0.052 sec
Total time needed                          ...    0.144 sec

-------------------
DFT GRID GENERATION
-------------------

General Integration Accuracy     IntAcc      ... 4.388
Radial Grid Type                 RadialGrid  ... OptM3 with GC (2021)
Angular Grid (max. ang.)         AngularGrid ... 4 (Lebedev-302)
Angular grid pruning method      GridPruning ... 4 (adaptive)
Weight generation scheme         WeightScheme... mBecke (2022)
Basis function cutoff            BFCut       ... 1.0000e-11
Integration weight cutoff        WCut        ... 1.0000e-14
Partially contracted basis set               ... off
Rotationally invariant grid construction     ... off
Angular grids for H and He will be reduced by one unit
Diffuse basis detected: some atoms will have their outermost
                        angular grid increased by 1.

Total number of grid points                  ...    71244
Total number of batches                      ...     1119
Average number of points per batch           ...       63
Average number of grid points per atom       ...     4750

---------------------
SHARK GRID GENERATION
---------------------

General Integration Accuracy     IntAcc      ... 4.388
Radial Grid Type                 RadialGrid  ... OptM3 with GC (2021)
Angular Grid (max. ang.)         AngularGrid ... 4 (Lebedev-302)
Angular grid pruning method      GridPruning ... 4 (adaptive)
Weight generation scheme         WeightScheme... mBecke (2022)
Basis function cutoff            BFCut       ... 1.0000e-11
Integration weight cutoff        WCut        ... 1.0000e-14
Partially contracted basis set               ... off
Rotationally invariant grid construction     ... off
Angular grids for H and He will be reduced by one unit
Diffuse basis detected: some atoms will have their outermost
                        angular grid increased by 1.
Steep s-basis detected: some atoms will have their radial
                        grid points doubled.

Total number of grid points                  ...   115427
Total number of batches                      ...     1809
Average number of points per batch           ...       63
Average number of grid points per atom       ...     7695

--------------------
COSX GRID GENERATION
--------------------

GRIDX 1
-------
General Integration Accuracy     IntAcc      ... 3.816
Radial Grid Type                 RadialGrid  ... OptM3 with GC (2021)
Angular Grid (max. ang.)         AngularGrid ... 1 (Lebedev-50)
Angular grid pruning method      GridPruning ... 4 (adaptive)
Weight generation scheme         WeightScheme... mBecke (2022)
Basis function cutoff            BFCut       ... 1.0000e-11
Integration weight cutoff        WCut        ... 1.0000e-14
Partially contracted basis set               ... on
Rotationally invariant grid construction     ... off
Angular grids for H and He will be reduced by one unit
Diffuse basis detected: some atoms will have their outermost
                        angular grid increased by 1.

Total number of grid points                  ...     8953
Total number of batches                      ...       76
Average number of points per batch           ...      117
Average number of grid points per atom       ...      597
UseSFitting                                  ... on

GRIDX 2
-------
General Integration Accuracy     IntAcc      ... 4.020
Radial Grid Type                 RadialGrid  ... OptM3 with GC (2021)
Angular Grid (max. ang.)         AngularGrid ... 2 (Lebedev-110)
Angular grid pruning method      GridPruning ... 4 (adaptive)
Weight generation scheme         WeightScheme... mBecke (2022)
Basis function cutoff            BFCut       ... 1.0000e-11
Integration weight cutoff        WCut        ... 1.0000e-14
Partially contracted basis set               ... on
Rotationally invariant grid construction     ... off
Angular grids for H and He will be reduced by one unit
Diffuse basis detected: some atoms will have their outermost
                        angular grid increased by 1.

Total number of grid points                  ...    21490
Total number of batches                      ...      174
Average number of points per batch           ...      123
Average number of grid points per atom       ...     1433
UseSFitting                                  ... on

GRIDX 3
-------
General Integration Accuracy     IntAcc      ... 4.338
Radial Grid Type                 RadialGrid  ... OptM3 with GC (2021)
Angular Grid (max. ang.)         AngularGrid ... 3 (Lebedev-194)
Angular grid pruning method      GridPruning ... 4 (adaptive)
Weight generation scheme         WeightScheme... mBecke (2022)
Basis function cutoff            BFCut       ... 1.0000e-11
Integration weight cutoff        WCut        ... 1.0000e-14
Partially contracted basis set               ... on
Rotationally invariant grid construction     ... off
Angular grids for H and He will be reduced by one unit
Diffuse basis detected: some atoms will have their outermost
                        angular grid increased by 1.

Total number of grid points                  ...    48167
Total number of batches                      ...      386
Average number of points per batch           ...      124
Average number of grid points per atom       ...     3211
UseSFitting                                  ... on
Initializing property integral containers    ... done (  0.1 sec)

SHARK setup successfully completed in   6.7 seconds

Maximum memory used throughout the entire STARTUP-calculation: 54.7 MB


           ************************************************************
           *        Program running with 4 parallel MPI-processes     *
           *              working on a common directory               *
           ************************************************************
-------------------------------------------------------------------------------
                                 ORCA GUESS
                   Start orbitals & Density for SCF / CASSCF
-------------------------------------------------------------------------------

------------
SCF SETTINGS
------------
Hamiltonian:
 Density Functional     Method          .... DFT(GTOs)
 Exchange Functional    Exchange        .... B88
   X-Alpha parameter    XAlpha          ....  0.666667
   Becke's b parameter  XBeta           ....  0.004200
 Correlation Functional Correlation     .... LYP
 LDA part of GGA corr.  LDAOpt          .... VWN-5
 Gradients option       PostSCFGGA      .... off
 Hybrid DFT is turned on
   Fraction HF Exchange ScalHFX         ....  0.200000
   Scaling of DF-GGA-X  ScalDFX         ....  0.720000
   Scaling of DF-GGA-C  ScalDFC         ....  0.810000
   Scaling of DF-LDA-C  ScalLDAC        ....  1.000000
   Perturbative correction              ....  0.000000
   NL short-range parameter             ....  4.800000
 RI-approximation to the Coulomb term is turned on
   Number of AuxJ basis functions       .... 431
   RIJ-COSX (HFX calculated with COS-X)).... on


General Settings:
 Integral files         IntName         .... cs_rporg_008_ox_solv_02
 Hartree-Fock type      HFTyp           .... UHF
 Total Charge           Charge          ....    1
 Multiplicity           Mult            ....    2
 Number of Electrons    NEL             ....   49
 Basis Dimension        Dim             ....  506
 Nuclear Repulsion      ENuc            ....    267.7121625472 Eh

Convergence Acceleration:
 AO-DIIS                CNVDIIS         .... on
   Start iteration      DIISMaxIt       ....     0
   Startup error        DIISStart       ....  0.200000
   # of expansion vecs  DIISMaxEq       ....     5
   Bias factor          DIISBfac        ....   1.050
   Max. coefficient     DIISMaxC        ....  10.000
 MO-DIIS                CNVKDIIS        .... off
 Trust-Rad. Augm. Hess. CNVTRAH         .... auto
   Auto Start mean grad. ratio tolernc. ....  1.125000
   Auto Start start iteration           ....    50
   Auto Start num. interpolation iter.  ....    10
   Max. Number of Micro iterations      ....    24
   Max. Number of Macro iterations      .... Maxiter - #DIIS iter
   Number of Davidson start vectors     ....     2
   Converg. threshold    (grad. norm)   ....   1.000e-05
   Grad. Scal. Fac. for Micro threshold ....   0.100
   Minimum threshold for Micro iter.    ....   1.000e-02
   NR start threshold (gradient norm)   ....   1.000e-04
   Initial trust radius                 ....   0.400
   Minimum AH scaling param. (alpha)    ....   1.000
   Maximum AH scaling param. (alpha)    .... 1000.000
   Quad. conv. algorithm                .... NR
   White noise on init. David. guess    .... on
   Maximum white noise                  ....   0.010
   Pseudo random numbers                .... off
   Inactive MOs                         .... canonical
   Orbital update algorithm             .... Taylor
   Preconditioner                       .... Diag
   Full preconditioner red. dimension   ....   250
 SOSCF                  CNVSOSCF        .... on
   Start iteration      SOSCFMaxIt      ....   150
   Startup grad/error   SOSCFStart      ....  0.001000
   Hessian update       SOSCFHessUp     .... L-BFGS
 Level Shifting         CNVShift        .... on
   Level shift para.    LevelShift      ....    0.2500
   Turn off err/grad.   ShiftErr        ....    0.0000
 Zerner damping         CNVZerner       .... off
 Static damping         CNVDamp         .... on
   Fraction old density DampFac         ....    0.8500
   Max. Damping (<1)    DampMax         ....    0.9800
   Min. Damping (>=0)   DampMin         ....    0.0000
   Turn off err/grad.   DampErr         ....    0.0300

SCF Procedure:
 Maximum # iterations   MaxIter         ....  1500
 SCF integral mode      SCFMode         .... Direct
   Integral package                     .... SHARK and LIBINT hybrid scheme
 Reset frequency        DirectResetFreq ....    20
 Integral Threshold     Thresh          ....  1.000e-12 Eh
 Primitive CutOff       TCut            ....  1.000e-13 Eh

Convergence Tolerance:
 Convergence Check Mode ConvCheckMode   .... Total+1el-Energy
 Convergence forced     ConvForced      .... 0
 Energy Change          TolE            ....  1.000e-08 Eh
 1-El. energy change                    ....  1.000e-05 Eh
 Orbital Gradient       TolG            ....  1.000e-05
 Orbital Rotation angle TolX            ....  1.000e-05
 DIIS Error             TolErr          ....  5.000e-07

------------------------------
INITIAL GUESS: MODEL POTENTIAL
------------------------------
Loading Hartree-Fock densities                     ... done
Calculating cut-offs                               ... done
Initializing the effective Hamiltonian             ... done
Setting up the integral package (SHARK)            ... done
Starting the Coulomb interaction                   ... done (   0.4 sec)
Making the grid                                    ... done (   0.3 sec)
Mapping shells                                     ... done
Starting the XC term evaluation                    ... done (   0.6 sec)
  promolecular density results
     # of electrons  =     49.997429297
     EX              =    -38.321899014
     EC              =     -1.632425919
     EX+EC           =    -39.954324933
Transforming the Hamiltonian                       ... done (   0.1 sec)
Diagonalizing the Hamiltonian                      ... done (   0.1 sec)
Back transforming the eigenvectors                 ... done (   0.1 sec)
Now organizing SCF variables                       ... done
                      ------------------
                      INITIAL GUESS DONE (   1.7 sec)
                      ------------------
             **** ENERGY FILE WAS UPDATED (cs_rporg_008_ox_solv_02.en.tmp) ****
Finished Guess after   2.7 sec
Maximum memory used throughout the entire GUESS-calculation: 38.4 MB


           ************************************************************
           *        Program running with 4 parallel MPI-processes     *
           *              working on a common directory               *
           ************************************************************

-------------------------------------------------------------------------------------------
                                      ORCA LEAN-SCF
                              memory conserving SCF solver
-------------------------------------------------------------------------------------------

--------------------
CPCM SOLVATION MODEL
--------------------
CPCM parameters:
  Epsilon                                         ...      35.6880
  Refrac                                          ...       1.3442
  Rsolv                                           ...       2.1900
  Surface type                                    ...    GEPOL SES
  Discretization scheme                           ... Constant num. charges
  Epsilon function type                           ...         CPCM
Solvent:                                          ... ACETONITRILE
SMD-CDS solvent descriptors:
  Soln                                            ...       1.3442
  Soln25                                          ...       1.3416
  Sola                                            ...       0.0700
  Solb                                            ...       0.3200
  Solg                                            ...      41.2500
  Solc                                            ...       0.0000
  Solh                                            ...       0.0000
Radii:
  Scheme                                          ... Element-dependent radii
  Radius for C  used is    3.4960 Bohr (=   1.8500 Ang.)
  Radius for H  used is    2.2677 Bohr (=   1.2000 Ang.)
Calculating surface                               ...        done! (  0.0s)
Cavity surface points                             ...          494
Cavity Volume                                     ...     769.3903
Cavity Surface-area                               ...     472.1191
Calculating surface distance matrix               ...        done! (  0.0s)
Performing Cholesky decomposition & store         ...        done! (  0.0s)
Overall time for CPCM initialization              ...                 0.1s

----------------------------------------D-I-I-S--------------------------------------------
Iteration    Energy (Eh)           Delta-E    RMSDP     MaxDP     DIISErr   Damp  Time(sec)
-------------------------------------------------------------------------------------------
               ***  Starting incremental Fock matrix formation  ***
    1    -271.1446430859938346     0.00e+00  4.11e-04  1.50e-02  9.01e-02  0.850  16.3
Warning: op=1 Small HOMO/LUMO gap (   0.061) - skipping pre-diagonalization
         Will do a full diagonalization
    2    -271.1716450041984672    -2.70e-02  3.86e-04  1.33e-02  6.89e-02  0.850  10.7
                               ***Turning on AO-DIIS***
    3    -271.1905940197480049    -1.89e-02  2.84e-04  1.12e-02  4.84e-02  0.850  10.0
    4    -271.2034716020511951    -1.29e-02  2.29e-04  9.40e-03  3.84e-02  0.850  10.0
    5    -271.2130022214333849    -9.53e-03  1.90e-04  7.97e-03  3.20e-02  0.850   9.9
    6    -271.2205432679739943    -7.54e-03  1.60e-04  6.78e-03  2.71e-02  0.850  10.0
    7    -271.2267198571298650    -6.18e-03  9.07e-04  3.85e-02  2.29e-02  0.000   9.7
    8    -271.2579175468423500    -3.12e-02  2.07e-05  1.00e-03  1.53e-03  0.000   9.9
                              *** Initializing SOSCF ***
---------------------------------------S-O-S-C-F--------------------------------------
Iteration    Energy (Eh)           Delta-E    RMSDP     MaxDP     MaxGrad    Time(sec)
--------------------------------------------------------------------------------------
    9    -271.2579623287849699    -4.48e-05  1.03e-05  6.36e-04  7.92e-04     9.7
               *** Restarting incremental Fock matrix formation ***
   10    -271.2579666033776675    -4.27e-06  3.36e-05  1.31e-03  5.85e-04    15.8
   11    -271.2579731172204447    -6.51e-06  2.63e-05  9.67e-04  3.76e-04    14.1
   12    -271.2579743326379003    -1.22e-06  2.25e-05  9.04e-04  3.05e-04    14.5
   13    -271.2579758139870592    -1.48e-06  4.68e-06  1.82e-04  7.88e-05    13.6
   14    -271.2579758576143831    -4.36e-08  2.87e-06  1.12e-04  4.88e-05    13.1
   15    -271.2579759526684029    -9.51e-08  5.30e-07  2.26e-05  1.58e-05    12.7
   16    -271.2579759629996943    -1.03e-08  4.02e-07  1.79e-05  8.46e-06    12.2
   17    -271.2579759615155126     1.48e-09  1.67e-07  1.38e-05  2.05e-06    11.9
                 **** Energy Check signals convergence ****

               *****************************************************
               *                     SUCCESS                       *
               *           SCF CONVERGED AFTER  17 CYCLES          *
               *****************************************************

Recomputing exchange energy using gridx3       ... done (   21.776 sec)
Old exchange energy                            :     -7.759998866 Eh
New exchange energy                            :     -7.759999531 Eh
Exchange energy change after final integration :     -0.000000665 Eh
Total energy after final integration           :   -271.257976627 Eh

SMD CDS free energy correction energy :                -1.89029     Kcal/mol
Total Energy after SMD CDS correction =              -271.260988993 Eh
             **** ENERGY FILE WAS UPDATED (cs_rporg_008_ox_solv_02.en.tmp) ****

----------------
TOTAL SCF ENERGY
----------------

Total Energy       :       -271.26098899346800 Eh           -7381.38677 eV

Components:
Nuclear Repulsion  :        267.71216254723356 Eh            7284.81830 eV
Electronic Energy  :       -538.88054607265212 Eh          -14663.68515 eV
One Electron Energy:       -883.93982466782222 Eh          -24053.22547 eV
Two Electron Energy:        345.05927859517010 Eh            9389.54033 eV
CPCM Dielectric    :         -0.08959243609692 Eh              -2.43793 eV
SMD CDS (Gcds)     :         -0.00301236658593 Eh              -0.08197 eV

Virial components:
Potential Energy   :       -540.64717596940488 Eh          -14711.75759 eV
Kinetic Energy     :        269.38618697593688 Eh            7330.37082 eV
Virial Ratio       :          2.00695953284976

DFT components:
N(Alpha)           :       24.999980715591 electrons
N(Beta)            :       23.999984514384 electrons
N(Total)           :       48.999965229974 electrons
E(X)               :      -30.805186664252 Eh       
E(C)               :       -1.900244554129 Eh       
E(XC)              :      -32.705431218381 Eh       

CPCM Solvation Model Properties:
Surface-charge          :         -1.03660600486411
Corrected charge        :         -1.00000000000000
Outlying charge corr.   :          0.00010845639775 Eh               0.00295 eV
Free-energy (cav+disp)  :         -0.00301236658593 Eh              -0.08197 eV

---------------
SCF CONVERGENCE
---------------

  Last Energy change         ...   -1.4842e-09  Tolerance :   1.0000e-08
  Last MAX-Density change    ...    1.3750e-05  Tolerance :   1.0000e-07
  Last RMS-Density change    ...    1.6718e-07  Tolerance :   5.0000e-09
  Last DIIS Error            ...    7.9241e-04  Tolerance :   5.0000e-07
  Last Orbital Gradient      ...    2.0543e-06  Tolerance :   1.0000e-05
  Last Orbital Rotation      ...    8.3262e-06  Tolerance :   1.0000e-05


----------------------
UHF SPIN CONTAMINATION
----------------------

Warning: in a DFT calculation there is little theoretical justification to 
         calculate <S**2> as in Hartree-Fock theory. We will do it anyways
         but you should keep in mind that the values have only limited relevance

Expectation value of <S**2>     :     0.761998
Ideal value S*(S+1) for S=0.5   :     0.750000
Deviation                       :     0.011998

----------------
ORBITAL ENERGIES
----------------
                 SPIN UP ORBITALS
  NO   OCC          E(Eh)            E(eV) 
   0   1.0000     -10.271743      -279.5083 
   1   1.0000     -10.254611      -279.0422 
   2   1.0000     -10.227558      -278.3060 
   3   1.0000     -10.227507      -278.3046 
   4   1.0000     -10.223557      -278.1971 
   5   1.0000     -10.223499      -278.1955 
   6   1.0000     -10.194196      -277.3982 
   7   1.0000      -0.909448       -24.7473 
   8   1.0000      -0.822035       -22.3687 
   9   1.0000      -0.794357       -21.6156 
  10   1.0000      -0.722155       -19.6508 
  11   1.0000      -0.645947       -17.5771 
  12   1.0000      -0.626122       -17.0376 
  13   1.0000      -0.545956       -14.8562 
  14   1.0000      -0.507715       -13.8156 
  15   1.0000      -0.487665       -13.2700 
  16   1.0000      -0.461835       -12.5672 
  17   1.0000      -0.456362       -12.4183 
  18   1.0000      -0.446581       -12.1521 
  19   1.0000      -0.410954       -11.1826 
  20   1.0000      -0.400904       -10.9091 
  21   1.0000      -0.388811       -10.5801 
  22   1.0000      -0.375710       -10.2236 
  23   1.0000      -0.304293        -8.2802 
  24   1.0000      -0.301126        -8.1941 
  25   0.0000      -0.078264        -2.1297 
  26   0.0000      -0.051397        -1.3986 
  27   0.0000      -0.006983        -0.1900 
  28   0.0000       0.006365         0.1732 
  29   0.0000       0.010553         0.2872 
  30   0.0000       0.024233         0.6594 
  31   0.0000       0.027924         0.7598 
  32   0.0000       0.031313         0.8521 
  33   0.0000       0.038943         1.0597 
  34   0.0000       0.050885         1.3847 
  35   0.0000       0.052538         1.4296 

                 SPIN DOWN ORBITALS
  NO   OCC          E(Eh)            E(eV) 
   0   1.0000     -10.266175      -279.3568 
   1   1.0000     -10.248356      -278.8719 
   2   1.0000     -10.226336      -278.2727 
   3   1.0000     -10.226295      -278.2716 
   4   1.0000     -10.223798      -278.2037 
   5   1.0000     -10.223750      -278.2024 
   6   1.0000     -10.194075      -277.3949 
   7   1.0000      -0.899386       -24.4735 
   8   1.0000      -0.809231       -22.0203 
   9   1.0000      -0.792222       -21.5575 
  10   1.0000      -0.713647       -19.4193 
  11   1.0000      -0.640633       -17.4325 
  12   1.0000      -0.619048       -16.8452 
  13   1.0000      -0.543047       -14.7771 
  14   1.0000      -0.504144       -13.7185 
  15   1.0000      -0.484023       -13.1709 
  16   1.0000      -0.461281       -12.5521 
  17   1.0000      -0.442094       -12.0300 
  18   1.0000      -0.436812       -11.8863 
  19   1.0000      -0.409064       -11.1312 
  20   1.0000      -0.387127       -10.5343 
  21   1.0000      -0.377783       -10.2800 
  22   1.0000      -0.372470       -10.1354 
  23   1.0000      -0.299152        -8.1403 
  24   0.0000      -0.215097        -5.8531 
  25   0.0000      -0.042952        -1.1688 
  26   0.0000      -0.038934        -1.0594 
  27   0.0000      -0.006673        -0.1816 
  28   0.0000       0.006691         0.1821 
  29   0.0000       0.010516         0.2861 
  30   0.0000       0.024747         0.6734 
  31   0.0000       0.028149         0.7660 
  32   0.0000       0.031268         0.8508 
  33   0.0000       0.039891         1.0855 
  34   0.0000       0.051560         1.4030 
*Only the first 10 virtual orbitals were printed.

                    ********************************
                    * MULLIKEN POPULATION ANALYSIS *
                    ********************************

--------------------------------------------
MULLIKEN ATOMIC CHARGES AND SPIN POPULATIONS
--------------------------------------------
   0 C :   -0.148130    0.427702
   1 C :   -0.474527   -0.021295
   2 C :   -0.730236    0.069347
   3 C :    1.301150    0.434608
   4 C :   -0.627520   -0.028751
   5 H :    0.243994    0.008175
   6 H :    0.243430    0.007692
   7 H :    0.290537    0.056826
   8 C :   -0.731097    0.070300
   9 C :   -0.474781   -0.022051
  10 H :    0.551515    0.003587
  11 H :    0.279247   -0.005626
  12 H :    0.276144   -0.005756
  13 H :    0.553947    0.003608
  14 H :    0.446327    0.001634
Sum of atomic charges         :    1.0000000
Sum of atomic spin populations:    1.0000000

-----------------------------------------------------
MULLIKEN REDUCED ORBITAL CHARGES AND SPIN POPULATIONS
-----------------------------------------------------
CHARGE
  0 C s       :     3.591520  s :     3.591520
      pz      :     0.728997  p :     2.582568
      px      :     0.989393
      py      :     0.864178
      dz2     :    -0.015602  d :    -0.020323
      dxz     :     0.002629
      dyz     :     0.019118
      dx2y2   :    -0.020576
      dxy     :    -0.005892
      f0      :     0.001093  f :    -0.005635
      f+1     :    -0.000117
      f-1     :     0.000016
      f+2     :     0.000337
      f-2     :     0.001168
      f+3     :     0.000991
      f-3     :    -0.009124

  1 C s       :     3.527812  s :     3.527812
      pz      :     0.884572  p :     2.816397
      px      :     1.025425
      py      :     0.906400
      dz2     :    -0.001683  d :     0.141357
      dxz     :     0.017010
      dyz     :     0.007932
      dx2y2   :     0.011516
      dxy     :     0.106581
      f0      :     0.001118  f :    -0.011038
      f+1     :     0.000438
      f-1     :     0.000047
      f+2     :     0.000543
      f-2     :     0.000326
      f+3     :    -0.001218
      f-3     :    -0.012292

  2 C s       :     3.881795  s :     3.881795
      pz      :     0.904664  p :     2.794769
      px      :     0.906837
      py      :     0.983269
      dz2     :    -0.012513  d :     0.063924
      dxz     :     0.002783
      dyz     :     0.019951
      dx2y2   :    -0.031135
      dxy     :     0.084838
      f0      :     0.001299  f :    -0.010252
      f+1     :    -0.000223
      f-1     :    -0.000005
      f+2     :     0.001051
      f-2     :    -0.000742
      f+3     :     0.000537
      f-3     :    -0.012169

  3 C s       :     2.983392  s :     2.983392
      pz      :     0.681302  p :     1.664958
      px      :     0.483771
      py      :     0.499885
      dz2     :    -0.012911  d :     0.109971
      dxz     :    -0.028446
      dyz     :    -0.020295
      dx2y2   :     0.089249
      dxy     :     0.082372
      f0      :    -0.000670  f :    -0.059471
      f+1     :    -0.004079
      f-1     :    -0.001219
      f+2     :     0.000329
      f-2     :     0.001065
      f+3     :    -0.013198
      f-3     :    -0.041699

  4 C s       :     3.480212  s :     3.480212
      pz      :     1.104742  p :     3.121870
      px      :     0.853050
      py      :     1.164078
      dz2     :     0.019474  d :     0.016156
      dxz     :    -0.025548
      dyz     :     0.011183
      dx2y2   :     0.001637
      dxy     :     0.009410
      f0      :     0.003227  f :     0.009282
      f+1     :    -0.000840
      f-1     :    -0.000604
      f+2     :     0.003447
      f-2     :     0.000243
      f+3     :     0.003018
      f-3     :     0.000790

  5 H s       :     0.709471  s :     0.709471
      pz      :     0.008757  p :     0.039772
      px      :     0.021093
      py      :     0.009922
      dz2     :     0.002102  d :     0.006763
      dxz     :     0.000308
      dyz     :     0.000005
      dx2y2   :     0.002490
      dxy     :     0.001858

  6 H s       :     0.709950  s :     0.709950
      pz      :     0.008757  p :     0.039838
      px      :     0.021095
      py      :     0.009986
      dz2     :     0.002056  d :     0.006782
      dxz     :     0.000319
      dyz     :     0.000054
      dx2y2   :     0.002489
      dxy     :     0.001864

  7 H s       :     0.659391  s :     0.659391
      pz      :     0.016170  p :     0.046170
      px      :     0.015990
      py      :     0.014010
      dz2     :    -0.001176  d :     0.003903
      dxz     :     0.001862
      dyz     :     0.002455
      dx2y2   :     0.000975
      dxy     :    -0.000212

  8 C s       :     3.881655  s :     3.881655
      pz      :     0.904327  p :     2.797279
      px      :     0.910567
      py      :     0.982385
      dz2     :    -0.012527  d :     0.062562
      dxz     :     0.002801
      dyz     :     0.019850
      dx2y2   :    -0.032877
      dxy     :     0.085315
      f0      :     0.001303  f :    -0.010399
      f+1     :    -0.000250
      f-1     :    -0.000002
      f+2     :     0.001055
      f-2     :    -0.000748
      f+3     :     0.000544
      f-3     :    -0.012302

  9 C s       :     3.528071  s :     3.528071
      pz      :     0.884869  p :     2.816043
      px      :     1.023782
      py      :     0.907392
      dz2     :    -0.001758  d :     0.141725
      dxz     :     0.016959
      dyz     :     0.007993
      dx2y2   :     0.012141
      dxy     :     0.106391
      f0      :     0.001116  f :    -0.011058
      f+1     :     0.000433
      f-1     :     0.000050
      f+2     :     0.000542
      f-2     :     0.000322
      f+3     :    -0.001219
      f-3     :    -0.012302

 10 H s       :     0.451175  s :     0.451175
      pz      :     0.015144  p :    -0.009427
      px      :    -0.009866
      py      :    -0.014706
      dz2     :    -0.000555  d :     0.006738
      dxz     :     0.000943
      dyz     :     0.003534
      dx2y2   :     0.001402
      dxy     :     0.001414

 11 H s       :     0.682330  s :     0.682330
      pz      :     0.020201  p :     0.033194
      px      :     0.001832
      py      :     0.011160
      dz2     :    -0.000428  d :     0.005230
      dxz     :     0.001568
      dyz     :     0.002387
      dx2y2   :     0.001772
      dxy     :    -0.000068

 12 H s       :     0.685483  s :     0.685483
      pz      :     0.020253  p :     0.033145
      px      :     0.001570
      py      :     0.011322
      dz2     :    -0.000433  d :     0.005228
      dxz     :     0.001571
      dyz     :     0.002386
      dx2y2   :     0.001786
      dxy     :    -0.000083

 13 H s       :     0.448739  s :     0.448739
      pz      :     0.015156  p :    -0.009427
      px      :    -0.009928
      py      :    -0.014655
      dz2     :    -0.000553  d :     0.006741
      dxz     :     0.000942
      dyz     :     0.003536
      dx2y2   :     0.001398
      dxy     :     0.001417

 14 H s       :     0.547376  s :     0.547376
      pz      :     0.009273  p :    -0.000227
      px      :    -0.003893
      py      :    -0.005606
      dz2     :    -0.000396  d :     0.006524
      dxz     :     0.003507
      dyz     :    -0.000005
      dx2y2   :     0.001691
      dxy     :     0.001727


SPIN
  0 C s       :    -0.006018  s :    -0.006018
      pz      :     0.388848  p :     0.429439
      px      :     0.016731
      py      :     0.023859
      dz2     :    -0.001591  d :     0.005220
      dxz     :     0.002287
      dyz     :     0.001183
      dx2y2   :     0.004037
      dxy     :    -0.000695
      f0      :    -0.000603  f :    -0.000939
      f+1     :    -0.000491
      f-1     :    -0.000369
      f+2     :     0.000304
      f-2     :     0.000299
      f+3     :    -0.000275
      f-3     :     0.000195

  1 C s       :     0.006132  s :     0.006132
      pz      :    -0.005538  p :    -0.025488
      px      :    -0.017316
      py      :    -0.002635
      dz2     :    -0.000041  d :    -0.001400
      dxz     :     0.002817
      dyz     :     0.000798
      dx2y2   :     0.000988
      dxy     :    -0.005961
      f0      :    -0.000181  f :    -0.000539
      f+1     :    -0.000055
      f-1     :     0.000045
      f+2     :    -0.000014
      f-2     :     0.000174
      f+3     :    -0.000338
      f-3     :    -0.000170

  2 C s       :    -0.009229  s :    -0.009229
      pz      :     0.084611  p :     0.074739
      px      :    -0.009326
      py      :    -0.000546
      dz2     :    -0.000175  d :     0.004798
      dxz     :    -0.001595
      dyz     :     0.003176
      dx2y2   :     0.001939
      dxy     :     0.001453
      f0      :    -0.000261  f :    -0.000961
      f+1     :    -0.000172
      f-1     :    -0.000003
      f+2     :     0.000346
      f-2     :    -0.000500
      f+3     :    -0.000229
      f-3     :    -0.000142

  3 C s       :     0.027311  s :     0.027311
      pz      :     0.336011  p :     0.382745
      px      :     0.020091
      py      :     0.026644
      dz2     :    -0.000365  d :     0.024512
      dxz     :     0.005688
      dyz     :     0.004379
      dx2y2   :     0.007148
      dxy     :     0.007661
      f0      :    -0.000554  f :     0.000040
      f+1     :    -0.000392
      f-1     :    -0.000342
      f+2     :     0.001747
      f-2     :     0.000510
      f+3     :    -0.000089
      f-3     :    -0.000839

  4 C s       :    -0.047818  s :    -0.047818
      pz      :     0.010670  p :     0.000782
      px      :    -0.006623
      py      :    -0.003265
      dz2     :     0.002614  d :     0.015636
      dxz     :     0.011024
      dyz     :    -0.000050
      dx2y2   :     0.001147
      dxy     :     0.000901
      f0      :     0.001047  f :     0.002649
      f+1     :     0.000300
      f-1     :     0.000068
      f+2     :     0.000835
      f-2     :     0.000137
      f+3     :     0.000041
      f-3     :     0.000222

  5 H s       :     0.007096  s :     0.007096
      pz      :    -0.000305  p :     0.000795
      px      :     0.000936
      py      :     0.000164
      dz2     :     0.000110  d :     0.000284
      dxz     :    -0.000049
      dyz     :     0.000074
      dx2y2   :     0.000084
      dxy     :     0.000065

  6 H s       :     0.006670  s :     0.006670
      pz      :    -0.000316  p :     0.000744
      px      :     0.000898
      py      :     0.000162
      dz2     :     0.000109  d :     0.000278
      dxz     :    -0.000050
      dyz     :     0.000076
      dx2y2   :     0.000081
      dxy     :     0.000062

  7 H s       :     0.053947  s :     0.053947
      pz      :     0.000321  p :     0.002223
      px      :     0.001183
      py      :     0.000719
      dz2     :     0.000150  d :     0.000655
      dxz     :     0.000223
      dyz     :     0.000196
      dx2y2   :     0.000091
      dxy     :    -0.000004

  8 C s       :    -0.009223  s :    -0.009223
      pz      :     0.085253  p :     0.075608
      px      :    -0.009182
      py      :    -0.000464
      dz2     :    -0.000179  d :     0.004870
      dxz     :    -0.001609
      dyz     :     0.003189
      dx2y2   :     0.001969
      dxy     :     0.001500
      f0      :    -0.000261  f :    -0.000955
      f+1     :    -0.000172
      f-1     :    -0.000004
      f+2     :     0.000353
      f-2     :    -0.000502
      f+3     :    -0.000228
      f-3     :    -0.000141

  9 C s       :     0.006095  s :     0.006095
      pz      :    -0.006158  p :    -0.026263
      px      :    -0.017410
      py      :    -0.002694
      dz2     :    -0.000039  d :    -0.001341
      dxz     :     0.002846
      dyz     :     0.000812
      dx2y2   :     0.000993
      dxy     :    -0.005952
      f0      :    -0.000180  f :    -0.000542
      f+1     :    -0.000054
      f-1     :     0.000045
      f+2     :    -0.000015
      f-2     :     0.000172
      f+3     :    -0.000339
      f-3     :    -0.000172

 10 H s       :     0.004072  s :     0.004072
      pz      :    -0.001481  p :    -0.000589
      px      :    -0.000174
      py      :     0.001066
      dz2     :     0.000058  d :     0.000104
      dxz     :    -0.000125
      dyz     :     0.000120
      dx2y2   :     0.000035
      dxy     :     0.000015

 11 H s       :    -0.006287  s :    -0.006287
      pz      :     0.000562  p :     0.000229
      px      :    -0.000309
      py      :    -0.000025
      dz2     :     0.000076  d :     0.000432
      dxz     :    -0.000040
      dyz     :     0.000252
      dx2y2   :     0.000082
      dxy     :     0.000063

 12 H s       :    -0.006397  s :    -0.006397
      pz      :     0.000560  p :     0.000213
      px      :    -0.000299
      py      :    -0.000048
      dz2     :     0.000076  d :     0.000428
      dxz     :    -0.000042
      dyz     :     0.000251
      dx2y2   :     0.000081
      dxy     :     0.000062

 13 H s       :     0.004070  s :     0.004070
      pz      :    -0.001463  p :    -0.000569
      px      :    -0.000170
      py      :     0.001064
      dz2     :     0.000059  d :     0.000108
      dxz     :    -0.000124
      dyz     :     0.000123
      dx2y2   :     0.000036
      dxy     :     0.000015

 14 H s       :    -0.009878  s :    -0.009878
      pz      :     0.007617  p :     0.009471
      px      :     0.000609
      py      :     0.001246
      dz2     :     0.000127  d :     0.002042
      dxz     :     0.001586
      dyz     :     0.000006
      dx2y2   :     0.000009
      dxy     :     0.000313



                     *******************************
                     * LOEWDIN POPULATION ANALYSIS *
                     *******************************

-------------------------------------------
LOEWDIN ATOMIC CHARGES AND SPIN POPULATIONS
-------------------------------------------
   0 C :    0.309996    0.228154
   1 C :    0.277785    0.075037
   2 C :    0.291645    0.097633
   3 C :   -0.033904    0.224308
   4 C :    0.629677    0.083658
   5 H :   -0.135361    0.008815
   6 H :   -0.135630    0.008604
   7 H :   -0.106342    0.029977
   8 C :    0.291608    0.097821
   9 C :    0.277724    0.074812
  10 H :   -0.139039    0.001524
  11 H :   -0.132923    0.009920
  12 H :   -0.133043    0.009865
  13 H :   -0.139000    0.001593
  14 H :   -0.123193    0.048278

----------------------------------------------------
LOEWDIN REDUCED ORBITAL CHARGES AND SPIN POPULATIONS
----------------------------------------------------
CHARGE
  0 C s       :     2.506022  s :     2.506022
      pz      :     0.470538  p :     2.190971
      px      :     0.857845
      py      :     0.862588
      dz2     :     0.067300  d :     0.671895
      dxz     :     0.037119
      dyz     :     0.116224
      dx2y2   :     0.281106
      dxy     :     0.170145
      f0      :     0.018456  f :     0.321116
      f+1     :     0.019402
      f-1     :     0.030327
      f+2     :     0.006622
      f-2     :     0.057950
      f+3     :     0.055107
      f-3     :     0.133253

  1 C s       :     2.496340  s :     2.496340
      pz      :     0.568051  p :     2.270549
      px      :     0.865134
      py      :     0.837363
      dz2     :     0.067463  d :     0.640936
      dxz     :     0.066985
      dyz     :     0.048800
      dx2y2   :     0.193880
      dxy     :     0.263808
      f0      :     0.020008  f :     0.314389
      f+1     :     0.028768
      f-1     :     0.022464
      f+2     :     0.035544
      f-2     :     0.014890
      f+3     :     0.055841
      f-3     :     0.136875

  2 C s       :     2.489175  s :     2.489175
      pz      :     0.559295  p :     2.252648
      px      :     0.866272
      py      :     0.827081
      dz2     :     0.067748  d :     0.650636
      dxz     :     0.079980
      dyz     :     0.046353
      dx2y2   :     0.203181
      dxy     :     0.253374
      f0      :     0.020097  f :     0.315896
      f+1     :     0.029152
      f-1     :     0.022155
      f+2     :     0.034821
      f-2     :     0.017716
      f+3     :     0.059506
      f-3     :     0.132448

  3 C s       :     2.477672  s :     2.477672
      pz      :     0.463787  p :     2.154567
      px      :     0.835830
      py      :     0.854950
      dz2     :     0.083259  d :     0.919855
      dxz     :     0.150308
      dyz     :     0.113419
      dx2y2   :     0.301019
      dxy     :     0.271848
      f0      :     0.032249  f :     0.481811
      f+1     :     0.029709
      f-1     :     0.032448
      f+2     :     0.047140
      f-2     :     0.062316
      f+3     :     0.069852
      f-3     :     0.208097

  4 C s       :     2.450339  s :     2.450339
      pz      :     0.751373  p :     2.280495
      px      :     0.744819
      py      :     0.784304
      dz2     :     0.086552  d :     0.462506
      dxz     :     0.072356
      dyz     :     0.045519
      dx2y2   :     0.111091
      dxy     :     0.146989
      f0      :     0.020707  f :     0.176983
      f+1     :     0.025141
      f-1     :     0.004150
      f+2     :     0.022666
      f-2     :     0.013457
      f+3     :     0.033157
      f-3     :     0.057704

  5 H s       :     0.612434  s :     0.612434
      pz      :     0.095089  p :     0.303266
      px      :     0.081547
      py      :     0.126630
      dz2     :     0.048436  d :     0.219661
      dxz     :     0.015164
      dyz     :     0.047447
      dx2y2   :     0.063744
      dxy     :     0.044869

  6 H s       :     0.612702  s :     0.612702
      pz      :     0.094663  p :     0.303282
      px      :     0.081614
      py      :     0.127005
      dz2     :     0.047638  d :     0.219646
      dxz     :     0.014918
      dyz     :     0.048001
      dx2y2   :     0.063956
      dxy     :     0.045134

  7 H s       :     0.588796  s :     0.588796
      pz      :     0.140040  p :     0.297186
      px      :     0.076234
      py      :     0.080912
      dz2     :     0.060526  d :     0.220360
      dxz     :     0.057259
      dyz     :     0.080674
      dx2y2   :     0.018356
      dxy     :     0.003546

  8 C s       :     2.489188  s :     2.489188
      pz      :     0.559119  p :     2.252511
      px      :     0.866297
      py      :     0.827095
      dz2     :     0.067726  d :     0.650782
      dxz     :     0.080140
      dyz     :     0.046384
      dx2y2   :     0.203117
      dxy     :     0.253414
      f0      :     0.020103  f :     0.315911
      f+1     :     0.029134
      f-1     :     0.022154
      f+2     :     0.034860
      f-2     :     0.017719
      f+3     :     0.059495
      f-3     :     0.132445

  9 C s       :     2.496323  s :     2.496323
      pz      :     0.568235  p :     2.270695
      px      :     0.865104
      py      :     0.837355
      dz2     :     0.067465  d :     0.640882
      dxz     :     0.066930
      dyz     :     0.048784
      dx2y2   :     0.193912
      dxy     :     0.263792
      f0      :     0.020010  f :     0.314376
      f+1     :     0.028773
      f-1     :     0.022462
      f+2     :     0.035510
      f-2     :     0.014895
      f+3     :     0.055840
      f-3     :     0.136886

 10 H s       :     0.651824  s :     0.651824
      pz      :     0.069513  p :     0.283205
      px      :     0.090092
      py      :     0.123600
      dz2     :     0.022587  d :     0.204010
      dxz     :     0.018292
      dyz     :     0.038484
      dx2y2   :     0.071126
      dxy     :     0.053521

 11 H s       :     0.641338  s :     0.641338
      pz      :     0.067540  p :     0.284740
      px      :     0.094984
      py      :     0.122216
      dz2     :     0.023376  d :     0.206844
      dxz     :     0.018827
      dyz     :     0.037583
      dx2y2   :     0.071868
      dxy     :     0.055191

 12 H s       :     0.641334  s :     0.641334
      pz      :     0.067568  p :     0.284806
      px      :     0.095016
      py      :     0.122221
      dz2     :     0.023394  d :     0.206903
      dxz     :     0.018811
      dyz     :     0.037608
      dx2y2   :     0.071880
      dxy     :     0.055211

 13 H s       :     0.651819  s :     0.651819
      pz      :     0.069484  p :     0.283186
      px      :     0.090105
      py      :     0.123597
      dz2     :     0.022585  d :     0.203995
      dxz     :     0.018295
      dyz     :     0.038462
      dx2y2   :     0.071136
      dxy     :     0.053516

 14 H s       :     0.651764  s :     0.651764
      pz      :     0.055294  p :     0.275211
      px      :     0.145745
      py      :     0.074172
      dz2     :     0.022793  d :     0.196217
      dxz     :     0.043713
      dyz     :     0.003059
      dx2y2   :     0.045772
      dxy     :     0.080879


SPIN
  0 C s       :     0.005976  s :     0.005976
      pz      :     0.221234  p :     0.229468
      px      :     0.004368
      py      :     0.003866
      dz2     :    -0.001562  d :    -0.005834
      dxz     :    -0.000720
      dyz     :    -0.002360
      dx2y2   :    -0.000840
      dxy     :    -0.000351
      f0      :    -0.002007  f :    -0.001456
      f+1     :    -0.000475
      f-1     :    -0.000346
      f+2     :     0.003070
      f-2     :    -0.001196
      f+3     :    -0.000454
      f-3     :    -0.000047

  1 C s       :    -0.000757  s :    -0.000757
      pz      :     0.003218  p :    -0.001439
      px      :    -0.001710
      py      :    -0.002947
      dz2     :    -0.000022  d :     0.048629
      dxz     :     0.033821
      dyz     :     0.013519
      dx2y2   :     0.000606
      dxy     :     0.000705
      f0      :     0.002010  f :     0.028604
      f+1     :    -0.000109
      f-1     :    -0.000057
      f+2     :     0.013525
      f-2     :     0.012419
      f+3     :     0.000561
      f-3     :     0.000254

  2 C s       :     0.000779  s :     0.000779
      pz      :     0.050254  p :     0.048546
      px      :     0.000068
      py      :    -0.001776
      dz2     :    -0.000293  d :     0.026438
      dxz     :     0.015382
      dyz     :     0.010877
      dx2y2   :     0.000124
      dxy     :     0.000348
      f0      :     0.000866  f :     0.021870
      f+1     :    -0.000137
      f-1     :    -0.000145
      f+2     :     0.011299
      f-2     :     0.009691
      f+3     :     0.000331
      f-3     :    -0.000037

  3 C s       :     0.005346  s :     0.005346
      pz      :     0.189649  p :     0.195137
      px      :     0.003484
      py      :     0.002004
      dz2     :    -0.000868  d :     0.010881
      dxz     :     0.007075
      dyz     :     0.004428
      dx2y2   :     0.000053
      dxy     :     0.000193
      f0      :    -0.001734  f :     0.012944
      f+1     :    -0.000052
      f-1     :    -0.000351
      f+2     :     0.013227
      f-2     :     0.001602
      f+3     :     0.000134
      f-3     :     0.000118

  4 C s       :    -0.000873  s :    -0.000873
      pz      :     0.015129  p :     0.009833
      px      :    -0.004262
      py      :    -0.001034
      dz2     :     0.006206  d :     0.052594
      dxz     :     0.043848
      dyz     :     0.000460
      dx2y2   :     0.001906
      dxy     :     0.000175
      f0      :     0.008338  f :     0.022103
      f+1     :     0.000688
      f-1     :    -0.000002
      f+2     :     0.011666
      f-2     :     0.000286
      f+3     :     0.000984
      f-3     :     0.000143

  5 H s       :     0.005616  s :     0.005616
      pz      :     0.000532  p :     0.000804
      px      :    -0.000049
      py      :     0.000320
      dz2     :     0.000918  d :     0.002395
      dxz     :     0.000199
      dyz     :     0.000887
      dx2y2   :     0.000540
      dxy     :    -0.000150

  6 H s       :     0.005393  s :     0.005393
      pz      :     0.000542  p :     0.000789
      px      :    -0.000065
      py      :     0.000312
      dz2     :     0.000911  d :     0.002423
      dxz     :     0.000206
      dyz     :     0.000932
      dx2y2   :     0.000527
      dxy     :    -0.000153

  7 H s       :     0.027420  s :     0.027420
      pz      :     0.000598  p :     0.002193
      px      :     0.001658
      py      :    -0.000063
      dz2     :     0.000037  d :     0.000365
      dxz     :    -0.000238
      dyz     :    -0.000092
      dx2y2   :     0.000664
      dxy     :    -0.000007

  8 C s       :     0.000790  s :     0.000790
      pz      :     0.050580  p :     0.048892
      px      :     0.000079
      py      :    -0.001766
      dz2     :    -0.000292  d :     0.026309
      dxz     :     0.015276
      dyz     :     0.010859
      dx2y2   :     0.000120
      dxy     :     0.000346
      f0      :     0.000859  f :     0.021830
      f+1     :    -0.000137
      f-1     :    -0.000142
      f+2     :     0.011278
      f-2     :     0.009680
      f+3     :     0.000330
      f-3     :    -0.000038

  9 C s       :    -0.000766  s :    -0.000766
      pz      :     0.002904  p :    -0.001769
      px      :    -0.001722
      py      :    -0.002951
      dz2     :    -0.000023  d :     0.048704
      dxz     :     0.033878
      dyz     :     0.013533
      dx2y2   :     0.000610
      dxy     :     0.000705
      f0      :     0.002017  f :     0.028644
      f+1     :    -0.000108
      f-1     :    -0.000059
      f+2     :     0.013553
      f-2     :     0.012422
      f+3     :     0.000562
      f-3     :     0.000256

 10 H s       :    -0.000135  s :    -0.000135
      pz      :     0.000436  p :    -0.000063
      px      :    -0.000327
      py      :    -0.000172
      dz2     :    -0.000022  d :     0.001722
      dxz     :    -0.001056
      dyz     :     0.003160
      dx2y2   :    -0.000269
      dxy     :    -0.000091

 11 H s       :    -0.001492  s :    -0.001492
      pz      :     0.005297  p :     0.005503
      px      :    -0.000061
      py      :     0.000267
      dz2     :    -0.000025  d :     0.005909
      dxz     :    -0.000427
      dyz     :     0.006392
      dx2y2   :    -0.000140
      dxy     :     0.000110

 12 H s       :    -0.001484  s :    -0.001484
      pz      :     0.005266  p :     0.005469
      px      :    -0.000062
      py      :     0.000265
      dz2     :    -0.000026  d :     0.005880
      dxz     :    -0.000435
      dyz     :     0.006373
      dx2y2   :    -0.000141
      dxy     :     0.000109

 13 H s       :    -0.000143  s :    -0.000143
      pz      :     0.000477  p :    -0.000018
      px      :    -0.000326
      py      :    -0.000170
      dz2     :    -0.000022  d :     0.001754
      dxz     :    -0.001056
      dyz     :     0.003190
      dx2y2   :    -0.000268
      dxy     :    -0.000090

 14 H s       :    -0.005791  s :    -0.005791
      pz      :     0.027878  p :     0.030299
      px      :     0.002327
      py      :     0.000095
      dz2     :    -0.000036  d :     0.023769
      dxz     :     0.022710
      dyz     :    -0.000067
      dx2y2   :     0.000827
      dxy     :     0.000336



                      *****************************
                      * MAYER POPULATION ANALYSIS *
                      *****************************

  NA   - Mulliken gross atomic population
  ZA   - Total nuclear charge
  QA   - Mulliken gross atomic charge
  VA   - Mayer's total valence
  BVA  - Mayer's bonded valence
  FA   - Mayer's free valence

  ATOM       NA         ZA         QA         VA         BVA        FA
  0 C      6.1481     6.0000    -0.1481     2.9300     2.7786     0.1513
  1 C      6.4745     6.0000    -0.4745     3.0598     3.0570     0.0028
  2 C      6.7302     6.0000    -0.7302     2.9716     2.9622     0.0094
  3 C      4.6988     6.0000     1.3012     1.7752     1.6554     0.1198
  4 C      6.6275     6.0000    -0.6275     3.5443     3.5390     0.0053
  5 H      0.7560     1.0000     0.2440     0.9647     0.9647     0.0001
  6 H      0.7566     1.0000     0.2434     0.9656     0.9655     0.0001
  7 H      0.7095     1.0000     0.2905     0.9209     0.9182     0.0027
  8 C      6.7311     6.0000    -0.7311     2.9706     2.9610     0.0096
  9 C      6.4748     6.0000    -0.4748     3.0653     3.0625     0.0028
 10 H      0.4485     1.0000     0.5515     0.5224     0.5224     0.0000
 11 H      0.7208     1.0000     0.2792     1.0005     1.0005     0.0000
 12 H      0.7239     1.0000     0.2761     1.0054     1.0054     0.0000
 13 H      0.4461     1.0000     0.5539     0.5188     0.5187     0.0000
 14 H      0.5537     1.0000     0.4463     0.7436     0.7434     0.0002

  Mayer bond orders larger than 0.100000
B(  0-C ,  1-C ) :   1.0303 B(  0-C ,  9-C ) :   1.0278 B(  0-C , 14-H ) :   0.7020 
B(  1-C ,  2-C ) :   1.4523 B(  1-C ,  9-C ) :   0.1073 B(  1-C , 13-H ) :   0.4841 
B(  2-C ,  3-C ) :   0.5435 B(  2-C , 12-H ) :   0.9646 B(  3-C ,  4-C ) :   0.5235 
B(  3-C ,  8-C ) :   0.5437 B(  4-C ,  5-H ) :   0.9492 B(  4-C ,  6-H ) :   0.9501 
B(  4-C ,  7-H ) :   0.8809 B(  8-C ,  9-C ) :   1.4535 B(  8-C , 11-H ) :   0.9595 
B(  9-C , 10-H ) :   0.4873 

-------
TIMINGS
-------

Total SCF time: 0 days 0 hours 3 min 48 sec 

Total time                  ....     228.028 sec
Sum of individual times     ....     227.349 sec  ( 99.7%)

SCF preparation             ....       1.153 sec  (  0.5%)
Fock matrix formation       ....     214.009 sec  ( 93.9%)
  Startup                   ....       1.386 sec  (  0.6% of F)
  Split-RI-J                ....      10.608 sec  (  5.0% of F)
  Chain of spheres X        ....     138.477 sec  ( 64.7% of F)
  XC integration            ....      54.982 sec  ( 25.7% of F)
    XC Preparation          ....       0.000 sec  (  0.0% of XC)
    Basis function eval.    ....       6.134 sec  ( 11.2% of XC)
    Density eval.           ....      15.804 sec  ( 28.7% of XC)
    XC-Functional eval.     ....       0.516 sec  (  0.9% of XC)
    XC-Potential eval.      ....      30.636 sec  ( 55.7% of XC)
  CPCM terms                ....       5.160 sec  (  2.4% of F)
Diagonalization             ....       0.000 sec  (  0.0%)
Density matrix formation    ....       2.659 sec  (  1.2%)
Total Energy calculation    ....       1.271 sec  (  0.6%)
Population analysis         ....       0.320 sec  (  0.1%)
Orbital Transformation      ....       0.898 sec  (  0.4%)
Orbital Orthonormalization  ....       0.000 sec  (  0.0%)
DIIS solution               ....       4.567 sec  (  2.0%)
SOSCF solution              ....       2.473 sec  (  1.1%)
Finished LeanSCF after 228.3 sec

Maximum memory used throughout the entire LEANSCF-calculation: 71.0 MB


-------------------------------------------------------------------------------
                          DFT DISPERSION CORRECTION                            
                                                                               
                              DFTD3 V3.1  Rev 1                                
                          USING Becke-Johnson damping                          
-------------------------------------------------------------------------------
The B3LYP functional is recognized
Active option DFTDOPT                   ...         4   

molecular C6(AA) [au] = 2353.701663 


            DFT-D V3
 parameters
 s6 scaling factor         :     1.0000 
 a1 scaling factor         :     0.3981 
 s8 scaling factor         :     1.9889 
 a2 scaling factor         :     4.4211 
 ad hoc parameters k1-k3   :    16.0000     1.3333    -4.0000 

 Edisp/kcal,au: -15.161983548348  -0.024162156203 
 E6   /kcal   :  -7.069411987 
 E8   /kcal   :  -8.092571561 
 % E8         :  53.374095386 

-------------------------   ----------------
Dispersion correction           -0.024162156
-------------------------   ----------------


-------------------------   --------------------
FINAL SINGLE POINT ENERGY      -271.285151149671
-------------------------   --------------------



           ************************************************************
           *        Program running with 4 parallel MPI-processes     *
           *              working on a common directory               *
           ************************************************************

------------------------------------------------------------------------------
                              ORCA PROPERTY CALCULATIONS
------------------------------------------------------------------------------

GBWName                                 ... cs_rporg_008_ox_solv_02.gbw
Number of atoms                         ...     15
Number of basis functions               ...    548
Max core memory                         ...   3000 MB

Electric properties:
Dipole moment                           ... YES
Quadrupole moment                       ...  NO
Static polarizability (Dipole/Dipole)   ...  NO
Static polarizability (Dipole/Quad.)    ...  NO
Static polarizability (Quad./Quad.)     ...  NO
Static polarizability (Velocity)        ...  NO

Atomic electric properties:
Dipole moment                           ...  NO
Quadrupole moment                       ...  NO
Static polarizability                   ...  NO

Choice of electric origin               ... Center of mass
Position of electric origin             ...    -0.003068    -0.000275    -0.011735

General magnetic properties:
Magnetizability                         ...  NO

EPR properties:
g-Tensor (aka g-matrix)                 ...  NO
Zero-Field splitting spin-orbit         ...  NO
Zero-field splitting spin-spin          ...  NO
Hyperfine couplings                     ...  NO (   0 nuclei)
Quadrupole couplings                    ...  NO (   0 nuclei)
Contact density                         ...  NO (   0 nuclei)

NMR properties:
Chemical shifts                         ...  NO (   0 nuclei)
Spin-rotation constants                 ...  NO (   0 nuclei)
Spin-spin couplings                     ...  NO (   0 nuclei,    0 pairs)

Choice of magnetic origin               ... GIAO
Position of magnetic origin             ...     0.000000     0.000000     0.000000

Properties with geometric perturbations:
SCF Hessian                             ...  NO
IR spectrum                             ...  NO
VCD spectrum                            ...  NO
X-ray spectroscopy properties:
SCF XES/XAS/RIXS spectra                ...  NO


-------------
DIPOLE MOMENT
-------------

Method             : SCF
Type of density    : Electron Density
Multiplicity       :   2
Irrep              :   0
Energy             :  -271.2609889934680041 Eh
Relativity type    : 
Basis              : AO
                                X                 Y                 Z
Electronic contribution:      3.476230442      -0.000880925      -0.055616621
Nuclear contribution   :     -3.446153110       0.001949667       0.148888103
                        -----------------------------------------
Total Dipole Moment    :      0.030077332       0.001068742       0.093271482
                        -----------------------------------------
Magnitude (a.u.)       :      0.098006926
Magnitude (Debye)      :      0.249113808



--------------------
Rotational spectrum 
--------------------
 
Rotational constants in cm-1:             0.175281             0.085805             0.058230 
Rotational constants in MHz :          5254.798892          2572.379074          1745.693725 

Dipole components along the rotational axes: 
x,y,z [a.u.] :     0.030636    -0.001161     0.093088 
x,y,z [Debye]:     0.077871    -0.002950     0.236612 

 

Dipole moment calculation done in   0.0 sec 

Maximum memory used throughout the entire PROP-calculation: 39.7 MB

--------------------------------
SUGGESTED CITATIONS FOR THIS RUN
--------------------------------

Below you find a list of papers that are relevant to this ORCA run
We neither can nor want to force you to cite these papers, but we appreciate if you do
You receive ORCA, which is the product of decades of hard work by many enthusiastic individuals, for free
The only thing we kindly ask in return is that you cite our papers,
We deeply appreciate it, if you show your appreciation for ORCA by not just citing the generic ORCA reference.

Please note that relegating all ORCA citations to the supporting information does *not* help us.
SI sections are not indexed - citations you put there will not count into any citation statistics
But we need these citations in order to attract the funding resources that allow us to do what we are doing

Therefore, if you are a happy ORCA user, please consider citing a few of the papers listed below in the main body of your paper

In addition to the list printed below, the program has created the file cs_rporg_008_ox_solv_02.bibtex that contains the list in bibtex format
You can import this file easily into all common literature databanks and citation aid programs


List of essential papers. We consider these as the minimum necessary citations

  1. Neese,F.
     Software update: the ORCA program system, version 5.0
     WIRES Comput. Molec. Sci., 2022 12(1)e1606
     doi.org/10.1002/wcms.1606

List of papers to cite with high priority. The work reported in these papers was absolutely
necessary for this run to complete.
Our perspective: the developers of density functionals and basis sets usually get cited in chemistry papers
Good! But without the algorithms to do something with them, the functionals or basis sets would not do anything.
Hence, in our opinion, the algorithm design and method developments papers are equally worthy of getting cited

  1. Neese,F.
     An improvement of the resolution of the identity approximation for the formation of the Coulomb matrix
     J. Comp. Chem., 2003 24(14)1740-1747
     doi.org/10.1002/jcc.10318
  2. Neese,F.; Wennmohs,F.; Hansen,A.; Becker,U.
     Efficient, approximate and parallel Hartree-Fock and hybrid DFT calculations. A 'chain-of-spheres' algorithm for the Hartree-Fock exchange
     Chem. Phys., 2009 356(1-3)98-109
     doi.org/10.1016/j.chemphys.2008.10.036
  3. Garcia-Rates,M.; Neese,F.
     Effect of the Solute Cavity on the Solvation Energy and its Derivatives within the Framework of the Gaussian Charge Scheme
     J. Comput. Chem., 2020 41 922-939
     doi.org/10.1002/jcc.26139
  4. Helmich-Paris,B.; de Souza,B.; Neese,F.; Izsák,R.
     An improved chain of spheres for exchange algorithm
     J. Chem. Phys., 2021 155 104109
     doi.org/doi: 10.1063/5.0058766.
  5. Neese,F.
     The SHARK Integral Generation and Digestion System
     J. Comp. Chem., 2022  1-16
     doi.org/10.1002/jcc.26942
  6. Grimme,S.; Antony,J.; Ehrlich,S.; Krieg,H.
     A consistent and accurate ab initio parametrization of density functional dispersion correction (DFT-D) for the 94 elements H-Pu
     J. Chem. Phys., 2010 132 154104-XXXX
     doi.org/10.1063/1.3382344
  7. Grimme,S.; Ehrlich,S.; Goerigk,L.
     Effect of the damping function in dispersion corrected density functional theory
     J. Comput. Chem., 2011 32(7)1456-1465
     doi.org/10.1002/jcc.21759

List of suggested additional citations. These are papers that are important in the 'surrounding' of 
of this run, or papers that preceded the highly important papers. If you like your results we are grateful for a citation.

  1. Izsak,R.; Neese,F.
     An overlap fitted chain of spheres exchange method
     J. Chem. Phys., 2011 135 144105
     doi.org/10.1063/1.3646921
  2. Izsak,R.; Hansen,A.; Neese,F.
     The resolution of identity and chain of spheres approximations for the LPNO-CCSD singles Fock term
     Molec. Phys., 2012 110 2413-2417
     doi.org/10.1080/00268976.2012.687466
  3. Neese,F.
     The ORCA program system
     WIRES Comput. Molec. Sci., 2012 2(1)73-78
     doi.org/10.1002/wcms.81
  4. Izsak,R.; Neese,F.; Klopper,W.
     Robust fitting techniques in the chain of spheres approximation to the Fock exchange: The role of the complementary space
     J. Chem. Phys., 2013 139 
     doi.org/10.1063/1.4819264
  5. Neese,F.
     Software update: the ORCA program system, version 4.0
     WIRES Comput. Molec. Sci., 2018 8(1)1-6
     doi.org/10.1002/wcms.1327
  6. Neese,F.; Wennmohs,F.; Becker,U.; Riplinger,C.
     The ORCA quantum chemistry program package
     J. Chem. Phys., 2020 152 Art. No. L224108
     doi.org/10.1063/5.0004608

List of optional additional citations

  1. Neese,F.
     Approximate second-order SCF convergence for spin unrestricted wavefunctions
     Chem. Phys. Lett., 2000 325(1-3)93-98
     doi.org/10.1016/s0009-2614(00)00662-x

Timings for individual modules:

Sum of individual times          ...      244.604 sec (=   4.077 min)
Startup calculation              ...        9.247 sec (=   0.154 min)   3.8 %
SCF iterations                   ...      233.517 sec (=   3.892 min)  95.5 %
Property calculations            ...        1.839 sec (=   0.031 min)   0.8 %
                             ****ORCA TERMINATED NORMALLY****
TOTAL RUN TIME: 0 days 0 hours 4 minutes 7 seconds 258 msec
