 vasp.6.4.2 20Jul23 (build Oct 03 2024 14:39:03) complex                        
  
 executed on             LinuxIFC date 2024.10.23  00:25:31
 running   60 mpi-ranks, on    1 nodes
 distrk:  each k-point on   60 cores,    1 groups
 distr:  one band on NCORE=  10 cores,    6 groups


--------------------------------------------------------------------------------------------------------


 INCAR:
   SYSTEM = 078_ox
   ISTART = 1
   ICHARG = 2
   INIWAV = 1
   METAGGA = R2SCAN
   LASPH = .TRUE.
   NELM = 100
   ALGO = fast   	
   ISPIN = 2
   EDIFF = 1E-05
   ISMEAR = 0
   SIGMA = 0.05
   PREC = accurate
   ENCUT = 500
   LREAL = auto  	
   LWAVE = .TRUE.
   LCHARG = .FALSE.
   LAECHG = .FALSE.
   LVHAR = .FALSE.
   LVTOT = .FALSE.
   EDIFFG = -0.02
   IBRION = 2
   NSW = 500
   ISIF = 2
   POTIM = 0.5
   IVDW = 12
   VDW_A1 = 0.49484001
   VDW_S8 = 0.78981345
   VDW_A2 = 5.73083694
   LPLANE = .TRUE.
   NCORE = 10
   LSCALU = .FALSE.
   NSIM = 4
   LSOL = .TRUE.
   EB_K = 35.6880
   LAMBDA_D_K = 3.04
   NELECT = 47
   TAU = 0

 POTCAR:    PAW_PBE C 08Apr2002                   
 POTCAR:    PAW_PBE O 08Apr2002                   
 POTCAR:    PAW_PBE S 06Sep2000                   
 POTCAR:    PAW_PBE H 15Jun2001                   
 -----------------------------------------------------------------------------
|                                                                             |
|           W    W    AA    RRRRR   N    N  II  N    N   GGGG   !!!           |
|           W    W   A  A   R    R  NN   N  II  NN   N  G    G  !!!           |
|           W    W  A    A  R    R  N N  N  II  N N  N  G       !!!           |
|           W WW W  AAAAAA  RRRRR   N  N N  II  N  N N  G  GGG   !            |
|           WW  WW  A    A  R   R   N   NN  II  N   NN  G    G                |
|           W    W  A    A  R    R  N    N  II  N    N   GGGG   !!!           |
|                                                                             |
|     You use a magnetic or noncollinear calculation, but did not specify     |
|     the initial magnetic moment with the MAGMOM tag. Note that a            |
|     default of 1 will be used for all atoms. This ferromagnetic setup       |
|     may break the symmetry of the crystal, in particular it may rule        |
|     out finding an antiferromagnetic solution. Thence, we recommend         |
|     setting the initial magnetic moment manually or verifying carefully     |
|     that this magnetic setup is desired.                                    |
|                                                                             |
 -----------------------------------------------------------------------------

 POTCAR:    PAW_PBE C 08Apr2002                   
   VRHFIN =C: s2p2                                                                                  
   LEXCH  = PE                                                                                      
   EATOM  =   147.1560 eV,   10.8157 Ry                                                             
                                                                                                    
   TITEL  = PAW_PBE C 08Apr2002                                                                     
   LULTRA =        F    use ultrasoft PP ?                                                          
   IUNSCR =        1    unscreen: 0-lin 1-nonlin 2-no                                               
   RPACOR =    1.200    partial core radius                                                         
   POMASS =   12.011; ZVAL   =    4.000    mass and valenz                                          
   RCORE  =    1.500    outmost cutoff radius                                                       
   RWIGS  =    1.630; RWIGS  =    0.863    wigner-seitz radius (au A)                               
   ENMAX  =  400.000; ENMIN  =  300.000 eV                                                          
   ICORE  =        2    local potential                                                             
   LCOR   =        T    correct aug charges                                                         
   LPAW   =        T    paw PP                                                                      
   EAUG   =  644.873                                                                                
   DEXC   =    0.000                                                                                
   RMAX   =    1.529    core radius for proj-oper                                                   
   RAUG   =    1.300    factor for augmentation sphere                                              
   RDEP   =    1.501    radius for radial grids                                                     
   RDEPT  =    1.300    core radius for aug-charge                                                  
                                                                                                    
   Atomic configuration                                                                             
    4 entries                                                                                       
     n  l   j            E        occ.                                                              
     1  0  0.50      -273.3789   2.0000                                                             
     2  0  0.50       -13.7508   2.0000                                                             
     2  1  0.50        -5.2854   2.0000                                                             
     3  2  1.50        -5.4423   0.0000                                                             
   Description                                                                                      
     l       E           TYP  RCUT    TYP  RCUT                                                     
     0    -13.7508458     23  1.200                                                                 
     0     -8.2022199     23  1.200                                                                 
     1     -5.2854383     23  1.500                                                                 
     1     34.0145650     23  1.500                                                                 
     2     -5.4423304      7  1.500                                                                 
  local pseudopotential read in
  partial core-charges read in
  partial kinetic energy density read in
  atomic valenz-charges read in
  non local Contribution for L=           0  read in
    real space projection operators read in
  non local Contribution for L=           0  read in
    real space projection operators read in
  non local Contribution for L=           1  read in
    real space projection operators read in
  non local Contribution for L=           1  read in
    real space projection operators read in
    PAW grid and wavefunctions read in
 
   number of l-projection  operators is LMAX  =           4
   number of lm-projection operators is LMMAX =           8
 
 POTCAR:    PAW_PBE O 08Apr2002                   
   VRHFIN =O: s2p4                                                                                  
   LEXCH  = PE                                                                                      
   EATOM  =   432.3788 eV,   31.7789 Ry                                                             
                                                                                                    
   TITEL  = PAW_PBE O 08Apr2002                                                                     
   LULTRA =        F    use ultrasoft PP ?                                                          
   IUNSCR =        1    unscreen: 0-lin 1-nonlin 2-no                                               
   RPACOR =    1.200    partial core radius                                                         
   POMASS =   16.000; ZVAL   =    6.000    mass and valenz                                          
   RCORE  =    1.520    outmost cutoff radius                                                       
   RWIGS  =    1.550; RWIGS  =    0.820    wigner-seitz radius (au A)                               
   ENMAX  =  400.000; ENMIN  =  300.000 eV                                                          
   ICORE  =        2    local potential                                                             
   LCOR   =        T    correct aug charges                                                         
   LPAW   =        T    paw PP                                                                      
   EAUG   =  605.392                                                                                
   DEXC   =    0.000                                                                                
   RMAX   =    1.553    core radius for proj-oper                                                   
   RAUG   =    1.300    factor for augmentation sphere                                              
   RDEP   =    1.550    radius for radial grids                                                     
   RDEPT  =    1.329    core radius for aug-charge                                                  
                                                                                                    
   Atomic configuration                                                                             
    4 entries                                                                                       
     n  l   j            E        occ.                                                              
     1  0  0.50      -514.6923   2.0000                                                             
     2  0  0.50       -23.9615   2.0000                                                             
     2  1  0.50        -9.0305   4.0000                                                             
     3  2  1.50        -9.5241   0.0000                                                             
   Description                                                                                      
     l       E           TYP  RCUT    TYP  RCUT                                                     
     0    -23.9615318     23  1.200                                                                 
     0     -9.5240782     23  1.200                                                                 
     1     -9.0304911     23  1.520                                                                 
     1      8.1634956     23  1.520                                                                 
     2     -9.5240782      7  1.500                                                                 
  local pseudopotential read in
  partial core-charges read in
  partial kinetic energy density read in
  kinetic energy density of atom read in
  atomic valenz-charges read in
  non local Contribution for L=           0  read in
    real space projection operators read in
  non local Contribution for L=           0  read in
    real space projection operators read in
  non local Contribution for L=           1  read in
    real space projection operators read in
  non local Contribution for L=           1  read in
    real space projection operators read in
    PAW grid and wavefunctions read in
 
   number of l-projection  operators is LMAX  =           4
   number of lm-projection operators is LMMAX =           8
 
 POTCAR:    PAW_PBE S 06Sep2000                   
   VRHFIN =S : s2p4                                                                                 
   LEXCH  = PE                                                                                      
   EATOM  =   276.8230 eV,   20.3459 Ry                                                             
                                                                                                    
   TITEL  = PAW_PBE S 06Sep2000                                                                     
   LULTRA =        F    use ultrasoft PP ?                                                          
   IUNSCR =        1    unscreen: 0-lin 1-nonlin 2-no                                               
   RPACOR =    1.500    partial core radius                                                         
   POMASS =   32.066; ZVAL   =    6.000    mass and valenz                                          
   RCORE  =    1.900    outmost cutoff radius                                                       
   RWIGS  =    2.200; RWIGS  =    1.164    wigner-seitz radius (au A)                               
   ENMAX  =  258.689; ENMIN  =  194.016 eV                                                          
   ICORE  =        2    local potential                                                             
   LCOR   =        T    correct aug charges                                                         
   LPAW   =        T    paw PP                                                                      
   EAUG   =  335.092                                                                                
   DEXC   =    0.000                                                                                
   RMAX   =    1.942    core radius for proj-oper                                                   
   RAUG   =    1.300    factor for augmentation sphere                                              
   RDEP   =    1.954    radius for radial grids                                                     
   RDEPT  =    1.744    core radius for aug-charge                                                  
                                                                                                    
   Atomic configuration                                                                             
    6 entries                                                                                       
     n  l   j            E        occ.                                                              
     1  0  0.50     -2405.8406   2.0000                                                             
     2  0  0.50      -211.7007   2.0000                                                             
     2  1  1.50      -156.4958   6.0000                                                             
     3  0  0.50       -17.2562   2.0000                                                             
     3  1  0.50        -7.0085   4.0000                                                             
     3  2  1.50        -6.8029   0.0000                                                             
   Description                                                                                      
     l       E           TYP  RCUT    TYP  RCUT                                                     
     0    -17.2561641     23  1.900                                                                 
     0    -15.8743224     23  1.900                                                                 
     1     -7.0085400     23  1.900                                                                 
     1     -2.7779785     23  1.900                                                                 
     2     -6.8029130     23  1.900                                                                 
  local pseudopotential read in
  partial core-charges read in
  partial kinetic energy density read in
  atomic valenz-charges read in
  non local Contribution for L=           0  read in
    real space projection operators read in
  non local Contribution for L=           0  read in
    real space projection operators read in
  non local Contribution for L=           1  read in
    real space projection operators read in
  non local Contribution for L=           1  read in
    real space projection operators read in
    PAW grid and wavefunctions read in
 
   number of l-projection  operators is LMAX  =           4
   number of lm-projection operators is LMMAX =           8
 
 POTCAR:    PAW_PBE H 15Jun2001                   
   VRHFIN =H: ultrasoft test                                                                        
   LEXCH  = PE                                                                                      
   EATOM  =    12.4884 eV,    0.9179 Ry                                                             
                                                                                                    
   TITEL  = PAW_PBE H 15Jun2001                                                                     
   LULTRA =        F    use ultrasoft PP ?                                                          
   IUNSCR =        0    unscreen: 0-lin 1-nonlin 2-no                                               
   RPACOR =    0.000    partial core radius                                                         
   POMASS =    1.000; ZVAL   =    1.000    mass and valenz                                          
   RCORE  =    1.100    outmost cutoff radius                                                       
   RWIGS  =    0.700; RWIGS  =    0.370    wigner-seitz radius (au A)                               
   ENMAX  =  250.000; ENMIN  =  200.000 eV                                                          
   RCLOC  =    0.701    cutoff for local pot                                                        
   LCOR   =        T    correct aug charges                                                         
   LPAW   =        T    paw PP                                                                      
   EAUG   =  400.000                                                                                
   RMAX   =    1.123    core radius for proj-oper                                                   
   RAUG   =    1.200    factor for augmentation sphere                                              
   RDEP   =    1.112    radius for radial grids                                                     
   RDEPT  =    0.926    core radius for aug-charge                                                  
                                                                                                    
   Atomic configuration                                                                             
    2 entries                                                                                       
     n  l   j            E        occ.                                                              
     1  0  0.50        -6.4927   1.0000                                                             
     2  1  0.50        -3.4015   0.0000                                                             
   Description                                                                                      
     l       E           TYP  RCUT    TYP  RCUT                                                     
     0     -6.4927494     23  1.100                                                                 
     0      6.8029130     23  1.100                                                                 
     1     -4.0817478     23  1.100                                                                 
  local pseudopotential read in
  atomic valenz-charges read in
  non local Contribution for L=           0  read in
    real space projection operators read in
  non local Contribution for L=           0  read in
    real space projection operators read in
  non local Contribution for L=           1  read in
    real space projection operators read in
    PAW grid and wavefunctions read in
 
   number of l-projection  operators is LMAX  =           3
   number of lm-projection operators is LMMAX =           5
 
 Optimization of the real space projectors (new method)

 maximal supplied QI-value         = 25.13
 optimisation between [QCUT,QGAM] = [ 11.31, 22.87] = [ 35.82,146.48] Ry 
 Optimized for a Real-space Cutoff    1.03 Angstroem

   l    n(q)    QCUT    max X(q) W(low)/X(q) W(high)/X(q)  e(spline) 
   0      7    11.310   115.676    0.20E-03    0.90E-03    0.20E-06
   0      7    11.310    87.132    0.20E-03    0.89E-03    0.19E-06
   1      6    11.310     4.429    0.16E-03    0.28E-03    0.12E-06
   1      6    11.310     2.733    0.12E-03    0.21E-03    0.99E-07
 Optimization of the real space projectors (new method)

 maximal supplied QI-value         = 24.76
 optimisation between [QCUT,QGAM] = [ 11.39, 22.77] = [ 36.31,145.25] Ry 
 Optimized for a Real-space Cutoff    1.10 Angstroem

   l    n(q)    QCUT    max X(q) W(low)/X(q) W(high)/X(q)  e(spline) 
   0      7    11.387    20.381    0.22E-03    0.48E-03    0.18E-06
   0      7    11.387    15.268    0.22E-03    0.52E-03    0.19E-06
   1      7    11.387     5.964    0.22E-03    0.73E-03    0.24E-06
   1      7    11.387     5.382    0.19E-03    0.60E-03    0.21E-06
 Optimization of the real space projectors (new method)

 maximal supplied QI-value         = 19.84
 optimisation between [QCUT,QGAM] = [ 11.31, 22.82] = [ 35.82,145.81] Ry 
 Optimized for a Real-space Cutoff    1.20 Angstroem

   l    n(q)    QCUT    max X(q) W(low)/X(q) W(high)/X(q)  e(spline) 
   0      8    11.310   187.594    0.16E-03    0.19E-03    0.53E-07
   0      8    11.310   164.243    0.16E-03    0.19E-03    0.53E-07
   1      8    11.310    67.533    0.18E-03    0.19E-03    0.92E-07
   1      8    11.310    50.729    0.18E-03    0.19E-03    0.90E-07
 Optimization of the real space projectors (new method)

 maximal supplied QI-value         = 34.20
 optimisation between [QCUT,QGAM] = [ 11.29, 22.57] = [ 35.68,142.71] Ry 
 Optimized for a Real-space Cutoff    1.20 Angstroem

   l    n(q)    QCUT    max X(q) W(low)/X(q) W(high)/X(q)  e(spline) 
   0      8    11.287    19.460    0.22E-03    0.50E-03    0.19E-06
   0      8    11.287    12.209    0.21E-03    0.48E-03    0.18E-06
   1      8    11.287     4.655    0.21E-03    0.11E-04    0.26E-06
  PAW_PBE C 08Apr2002                   :
 energy of atom  1       EATOM= -147.1560
 kinetic energy error for atom=    0.0076 (will be added to EATOM!!)
  PAW_PBE O 08Apr2002                   :
 energy of atom  2       EATOM= -432.3788
 kinetic energy error for atom=    0.0224 (will be added to EATOM!!)
  PAW_PBE S 06Sep2000                   :
 energy of atom  3       EATOM= -276.8230
 kinetic energy error for atom=    0.0020 (will be added to EATOM!!)
  PAW_PBE H 15Jun2001                   :
 energy of atom  4       EATOM=  -12.4884
 kinetic energy error for atom=    0.0020 (will be added to EATOM!!)
 
 
 POSCAR: C O S H
  positions in direct lattice
  velocities in cartesian coordinates

 METAGGA = R2SCAN                                      LMAXTAU =  6    LMIXTAU =  F

 exchange correlation table for  LEXCH =        8
   RHO(1)=    0.500       N(1)  =     2000
   RHO(2)=  100.500       N(2)  =     4000
 


--------------------------------------------------------------------------------------------------------


 ion  position               nearest neighbor table
   1  0.551  0.502  0.497-   2 1.43   6 1.43   9 1.71
   2  0.536  0.534  0.498-  16 1.09   3 1.37   1 1.43
   3  0.502  0.537  0.501-  15 1.09   2 1.37   4 1.43
   4  0.482  0.507  0.502-   8 1.33   5 1.42   3 1.43
   5  0.497  0.475  0.501-  11 1.09   6 1.38   4 1.42
   6  0.531  0.472  0.499-  10 1.09   5 1.38   1 1.43
   7  0.426  0.485  0.504-  12 1.09  14 1.10  13 1.10   8 1.45
   8  0.449  0.513  0.503-   4 1.33   7 1.45
   9  0.594  0.496  0.493-  17 1.35   1 1.71
  10  0.543  0.448  0.498-   6 1.09
  11  0.482  0.452  0.502-   5 1.09
  12  0.401  0.496  0.505-   7 1.09
  13  0.429  0.470  0.481-   7 1.10
  14  0.430  0.469  0.526-   7 1.10
  15  0.490  0.561  0.502-   3 1.09
  16  0.552  0.556  0.498-   2 1.09
  17  0.603  0.528  0.492-   9 1.35
 
  LATTYP: Found a simple cubic cell.
 ALAT       =    40.0000000000
  
  Lattice vectors:
  
 A1 = (  40.0000000000,   0.0000000000,   0.0000000000)
 A2 = (   0.0000000000,  40.0000000000,   0.0000000000)
 A3 = (   0.0000000000,   0.0000000000,  40.0000000000)


Analysis of symmetry for initial positions (statically):
=====================================================================
 Subroutine PRICEL returns:
 Original cell was already a primitive cell.
 

 Routine SETGRP: Setting up the symmetry group for a 
 simple cubic supercell.


 Subroutine GETGRP returns: Found  1 space group operations
 (whereof  1 operations were pure point group operations)
 out of a pool of 48 trial point group operations.


The static configuration has the point symmetry C_1 .


Analysis of symmetry for dynamics (positions and initial velocities):
=====================================================================
 Subroutine PRICEL returns:
 Original cell was already a primitive cell.
 

 Routine SETGRP: Setting up the symmetry group for a 
 simple cubic supercell.


 Subroutine GETGRP returns: Found  1 space group operations
 (whereof  1 operations were pure point group operations)
 out of a pool of 48 trial point group operations.


The dynamic configuration has the point symmetry C_1 .


Analysis of constrained symmetry for selective dynamics:
=====================================================================
 Subroutine PRICEL returns:
 Original cell was already a primitive cell.
 

 Routine SETGRP: Setting up the symmetry group for a 
 simple cubic supercell.


 Subroutine GETGRP returns: Found  1 space group operations
 (whereof  1 operations were pure point group operations)
 out of a pool of 48 trial point group operations.


The constrained configuration has the point symmetry C_1 .


Analysis of structural, dynamic, and magnetic symmetry:
=====================================================================
 Subroutine PRICEL returns:
 Original cell was already a primitive cell.
 

 Routine SETGRP: Setting up the symmetry group for a 
 simple cubic supercell.


 Subroutine GETGRP returns: Found  1 space group operations
 (whereof  1 operations were pure point group operations)
 out of a pool of 48 trial point group operations.


The overall configuration has the point symmetry C_1 .


 Subroutine INISYM returns: Found  1 space group operations
 (whereof  1 operations are pure point group operations),
 and found     1 'primitive' translations


----------------------------------------------------------------------------------------

                                     Primitive cell                                     

  volume of cell :   64000.0000

  direct lattice vectors                    reciprocal lattice vectors
    40.000000000  0.000000000  0.000000000     0.025000000  0.000000000  0.000000000
     0.000000000 40.000000000  0.000000000     0.000000000  0.025000000  0.000000000
     0.000000000  0.000000000 40.000000000     0.000000000  0.000000000  0.025000000

  length of vectors
    40.000000000 40.000000000 40.000000000     0.025000000  0.025000000  0.025000000

  position of ions in fractional coordinates (direct lattice)
     0.551483358  0.501579515  0.496928725
     0.536414420  0.533828905  0.498377989
     0.502318572  0.536541867  0.500868083
     0.482099686  0.507206259  0.501821352
     0.496958688  0.474962611  0.500969334
     0.531171181  0.472323596  0.498609882
     0.426197276  0.484630446  0.503668700
     0.449325818  0.512665054  0.503434959
     0.593731610  0.495737710  0.493004618
     0.542828018  0.447708650  0.497887246
     0.481700325  0.452496572  0.502169675
     0.401366906  0.495965204  0.504582412
     0.429195324  0.469869092  0.480747113
     0.430495747  0.469117587  0.525874400
     0.490112100  0.560857003  0.502015969
     0.551920718  0.556186236  0.497527125
     0.602678254  0.528324694  0.491510420

  ion indices of the primitive-cell ions
   primitive index   ion index
                 1           1
                 2           2
                 3           3
                 4           4
                 5           5
                 6           6
                 7           7
                 8           8
                 9           9
                10          10
                11          11
                12          12
                13          13
                14          14
                15          15
                16          16
                17          17

----------------------------------------------------------------------------------------

 
 
 KPOINTS: K-Point Grid                            

Automatic generation of k-mesh.
 Grid dimensions read from file:
 generate k-points for:    1    1    1

 Generating k-lattice:

  Cartesian coordinates                     Fractional coordinates (reciprocal lattice)
     0.025000000  0.000000000  0.000000000     1.000000000  0.000000000  0.000000000
     0.000000000  0.025000000  0.000000000     0.000000000  1.000000000  0.000000000
     0.000000000  0.000000000  0.025000000     0.000000000  0.000000000  1.000000000

  Length of vectors
     0.025000000  0.025000000  0.025000000

  Shift w.r.t. Gamma in fractional coordinates (k-lattice)
     0.000000000  0.000000000  0.000000000

 
 Subroutine IBZKPT returns following result:
 ===========================================
 
 Found      1 irreducible k-points:
 
 Following reciprocal coordinates:
            Coordinates               Weight
  0.000000  0.000000  0.000000      1.000000
 
 Following cartesian coordinates:
            Coordinates               Weight
  0.000000  0.000000  0.000000      1.000000
 


--------------------------------------------------------------------------------------------------------




 Dimension of arrays:
   k-points           NKPTS =      1   k-points in BZ     NKDIM =      1   number of bands    NBANDS=     42
   number of dos      NEDOS =    301   number of ions     NIONS =     17
   non local maximal  LDIM  =      4   non local SUM 2l+1 LMDIM =      8
   total plane-waves  NPLWV = ******
   max r-space proj   IRMAX =   2915   max aug-charges    IRDMAX=  12708
   dimension x,y,z NGX =   294 NGY =  294 NGZ =  294
   dimension x,y,z NGXF=   588 NGYF=  588 NGZF=  588
   support grid    NGXF=   588 NGYF=  588 NGZF=  588
   ions per type =               7   1   1   8
   NGX,Y,Z   is equivalent  to a cutoff of  12.22, 12.22, 12.22 a.u.
   NGXF,Y,Z  is equivalent  to a cutoff of  24.44, 24.44, 24.44 a.u.

 SYSTEM =  078_ox                                  
 POSCAR =  C O S H                                 

 Startparameter for this run:
   NWRITE =      2    write-flag & timer
   PREC   = accura    normal or accurate (medium, high low for compatibility)
   ISTART =      1    job   : 0-new  1-cont  2-samecut
   ICHARG =      2    charge: 1-file 2-atom 10-const
   ISPIN  =      2    spin polarized calculation?
   LNONCOLLINEAR =      F non collinear calculations
   LSORBIT =      F    spin-orbit coupling
   INIWAV =      1    electr: 0-lowe 1-rand  2-diag
   LASPH  =      T    aspherical Exc in radial PAW
 Electronic Relaxation 1
   ENCUT  =  500.0 eV  36.75 Ry    6.06 a.u.  72.93 72.93 72.93*2*pi/ulx,y,z
   ENINI  =  500.0     initial cutoff
   ENAUG  =  644.9 eV  augmentation charge cutoff
   NELM   =    100;   NELMIN=  2; NELMDL=  0     # of ELM steps 
   EDIFF  = 0.1E-04   stopping-criterion for ELM
   LREAL  =      T    real-space projection
   NLSPLINE    = F    spline interpolate recip. space projectors
   LCOMPAT=      F    compatible to vasp.4.4
   GGA_COMPAT  = T    GGA compatible to vasp.4.4-vasp.4.6
   LMAXPAW     = -100 max onsite density
   LMAXMIX     =    2 max onsite mixed and CHGCAR
   VOSKOWN=      0    Vosko Wilk Nusair interpolation
   ROPT   =   -0.00025  -0.00025  -0.00025  -0.00025
 Ionic relaxation
   EDIFFG = -.2E-01   stopping-criterion for IOM
   NSW    =    500    number of steps for IOM
   NBLOCK =      1;   KBLOCK =    500    inner block; outer block 
   IBRION =      2    ionic relax: 0-MD 1-quasi-New 2-CG
   NFREE  =      1    steps in history (QN), initial steepest desc. (CG)
   ISIF   =      2    stress and relaxation
   IWAVPR =     11    prediction:  0-non 1-charg 2-wave 3-comb
   ISYM   =      2    0-nonsym 1-usesym 2-fastsym
   LCORR  =      T    Harris-Foulkes like correction to forces

   POTIM  = 0.5000    time-step for ionic-motion
   TEIN   =    0.0    initial temperature
   TEBEG  =    0.0;   TEEND  =   0.0 temperature during run
   SMASS  =  -3.00    Nose mass-parameter (am)
   estimated Nose-frequenzy (Omega)   =  0.10E-29 period in steps = 0.13E+47 mass=  -0.366E-25a.u.
   SCALEE = 1.0000    scale energy and forces
   NPACO  =    256;   APACO  = 10.0  distance and # of slots for P.C.
   PSTRESS=    0.0 pullay stress

  Mass of Ions in am
   POMASS =  12.01 16.00 32.07  1.00
  Ionic Valenz
   ZVAL   =   4.00  6.00  6.00  1.00
  Atomic Wigner-Seitz radii
   RWIGS  =  -1.00 -1.00 -1.00 -1.00
  virtual crystal weights 
   VCA    =   1.00  1.00  1.00  1.00
   NELECT =      47.0000    total number of electrons
   NUPDOWN=      -1.0000    fix difference up-down

 DOS related values:
   EMIN   =  10.00;   EMAX   =-10.00  energy-range for DOS
   EFERMI =   0.00;   METHOD = LEGACY      
   ISMEAR =     0;   SIGMA  =   0.05  broadening in eV -4-tet -1-fermi 0-gaus

 Electronic relaxation 2 (details)
   IALGO  =     68    algorithm
   LDIAG  =      T    sub-space diagonalisation (order eigenvalues)
   LSUBROT=      F    optimize rotation matrix (better conditioning)
   TURBO    =      0    0=normal 1=particle mesh
   IRESTART =      0    0=no restart 2=restart with 2 vectors
   NREBOOT  =      0    no. of reboots
   NMIN     =      0    reboot dimension
   EREF     =   0.00    reference energy to select bands
   IMIX   =      4    mixing-type and parameters
     AMIX     =   0.40;   BMIX     =  1.00
     AMIX_MAG =   1.60;   BMIX_MAG =  1.00
     AMIN     =   0.10
     WC   =   100.;   INIMIX=   1;  MIXPRE=   1;  MAXMIX= -45

 Intra band minimization:
   WEIMIN = 0.0010     energy-eigenvalue tresh-hold
   EBREAK =  0.60E-07  absolut break condition
   DEPER  =   0.30     relativ break condition  

   TIME   =   0.40     timestep for ELM

  volume/ion in A,a.u.               =    3764.71     25405.49
  Fermi-wavevector in a.u.,A,eV,Ry     =   0.147700  0.279113  0.296815  0.021815
  Thomas-Fermi vector in A             =   0.819491
 
 Write flags
   LWAVE        =      T    write WAVECAR
   LDOWNSAMPLE  =      F    k-point downsampling of WAVECAR
   LCHARG       =      F    write CHGCAR
   LVTOT        =      F    write LOCPOT, total local potential
   LVHAR        =      F    write LOCPOT, Hartree potential only
   LELF         =      F    write electronic localiz. function (ELF)
   LORBIT       =      0    0 simple, 1 ext, 2 COOP (PROOUT), +10 PAW based schemes


 Dipole corrections
   LMONO  =      F    monopole corrections only (constant potential shift)
   LDIPOL =      F    correct potential (dipole corrections)
   IDIPOL =      0    1-x, 2-y, 3-z, 4-all directions 
   EPSILON=  1.0000000 bulk dielectric constant

 Exchange correlation treatment:
   GGA     =    --    GGA type
   LEXCH   =     8    internal setting for exchange type
   LIBXC   =     F    Libxc                    
   VOSKOWN =     0    Vosko Wilk Nusair interpolation
   LHFCALC =     F    Hartree Fock is set to
   LHFONE  =     F    Hartree Fock one center treatment
   AEXX    =    0.0000 exact exchange contribution

 Linear response parameters
   LEPSILON=     F    determine dielectric tensor
   LRPA    =     F    only Hartree local field effects (RPA)
   LNABLA  =     F    use nabla operator in PAW spheres
   LVEL    =     F    velocity operator in full k-point grid
   CSHIFT  =0.1000    complex shift for real part using Kramers Kronig
   OMEGAMAX=  -1.0    maximum frequency
   DEG_THRESHOLD= 0.2000000E-02 threshold for treating states as degnerate
   RTIME   =   -0.100 relaxation time in fs
  (WPLASMAI=    0.000 imaginary part of plasma frequency in eV, 0.658/RTIME)
   DFIELD  = 0.0000000 0.0000000 0.0000000 field for delta impulse in time
 
  Optional k-point grid parameters
   LKPOINTS_OPT  =     F    use optional k-point grid
   KPOINTS_OPT_MODE=     1    mode for optional k-point grid
 
 Orbital magnetization related:
   ORBITALMAG=     F  switch on orbital magnetization
   LCHIMAG   =     F  perturbation theory with respect to B field
   DQ        =  0.001000  dq finite difference perturbation B field
   LLRAUG    =     F  two centre corrections for induced B field
   LBONE     =     F  B-component reconstruction in AE one-centre
   LVGVCALC  =     T  calculate vGv susceptibility
   LVGVAPPL  =     F  apply vGv susceptibility instead of pGv for G=0

 Random number generation:
   RANDOM_GENERATOR = DEFAULT
   PCG_SEED         = not used
 Solvation model:
   LSOL    =     T         switch on solvation model
   EB_K    = 35.688000     relative permittivity of the bulk solvent
   SIGMA_K =  0.600000     width of the dielectric cavity
   NC_K    =  0.002500     cutoff charge density
   TAU     =  0.000000     cavity surface tension
   LAMBDA_D_K    =  3.040000     Debye length in Angstroms
   LRHOB     =     F     write boundcharge  density
   LRHOION     =     F     write ioniccharge density



--------------------------------------------------------------------------------------------------------


 conjugate gradient relaxation of ions
   using selective dynamics as specified on POSCAR
 charge density and potential will be updated during run
 spin polarized calculation
 RMM-DIIS sequential band-by-band and
  variant of blocked Davidson during initial phase
 perform sub-space diagonalisation
    before iterative eigenvector-optimisation
 modified Broyden-mixing scheme, WC =      100.0
 initial mixing is a Kerker type mixing with AMIX =  0.4000 and BMIX =      1.0000
 Hartree-type preconditioning will be used
 using additional bands           18
 real space projection scheme for non local part
 use partial core corrections
 calculate Harris-corrections to forces 
   (improved forces if not selfconsistent)
 use gradient corrections 
 use of overlap-Matrix (Vanderbilt PP)
 Gauss-broadening in eV      SIGMA  =   0.05


--------------------------------------------------------------------------------------------------------


  energy-cutoff  :      500.00
  volume of cell :    64000.00
      direct lattice vectors                 reciprocal lattice vectors
    40.000000000  0.000000000  0.000000000     0.025000000  0.000000000  0.000000000
     0.000000000 40.000000000  0.000000000     0.000000000  0.025000000  0.000000000
     0.000000000  0.000000000 40.000000000     0.000000000  0.000000000  0.025000000

  length of vectors
    40.000000000 40.000000000 40.000000000     0.025000000  0.025000000  0.025000000


 
 old parameters found on file WAVECAR:
  energy-cutoff  :      500.00
  volume of cell :    64000.00
      direct lattice vectors                 reciprocal lattice vectors
    40.000000000  0.000000000  0.000000000     0.025000000  0.000000000  0.000000000
     0.000000000 40.000000000  0.000000000     0.000000000  0.025000000  0.000000000
     0.000000000  0.000000000 40.000000000     0.000000000  0.000000000  0.025000000

  length of vectors

 
 k-points in units of 2pi/SCALE and weight: K-Point Grid                            
   0.00000000  0.00000000  0.00000000       1.000
 
 k-points in reciprocal lattice and weights: K-Point Grid                            
   0.00000000  0.00000000  0.00000000       1.000
 
 position of ions in fractional coordinates (direct lattice) 
   0.55148336  0.50157952  0.49692873
   0.53641442  0.53382891  0.49837799
   0.50231857  0.53654187  0.50086808
   0.48209969  0.50720626  0.50182135
   0.49695869  0.47496261  0.50096933
   0.53117118  0.47232360  0.49860988
   0.42619728  0.48463045  0.50366870
   0.44932582  0.51266505  0.50343496
   0.59373161  0.49573771  0.49300462
   0.54282802  0.44770865  0.49788725
   0.48170033  0.45249657  0.50216967
   0.40136691  0.49596520  0.50458241
   0.42919532  0.46986909  0.48074711
   0.43049575  0.46911759  0.52587440
   0.49011210  0.56085700  0.50201597
   0.55192072  0.55618624  0.49752712
   0.60267825  0.52832469  0.49151042
 
 position of ions in cartesian coordinates  (Angst):
  22.05933430 20.06318061 19.87714901
  21.45657679 21.35315622 19.93511954
  20.09274286 21.46167467 20.03472333
  19.28398744 20.28825036 20.07285410
  19.87834753 18.99850444 20.03877335
  21.24684726 18.89294385 19.94439529
  17.04789104 19.38521785 20.14674799
  17.97303272 20.50660214 20.13739834
  23.74926439 19.82950840 19.72018471
  21.71312072 17.90834600 19.91548986
  19.26801302 18.09986286 20.08678698
  16.05467624 19.83860815 20.18329648
  17.16781295 18.79476367 19.22988453
  17.21982988 18.76470348 21.03497599
  19.60448399 22.43428011 20.08063874
  22.07682871 22.24744943 19.90108499
  24.10713016 21.13298776 19.66041678
 


--------------------------------------------------------------------------------------------------------


 k-point   1 :   0.0000 0.0000 0.0000  plane waves: 1624525

 maximum and minimum number of plane-waves per node :    162473   162437

 maximum number of plane-waves:   1624525
 maximum index in each direction: 
   IXMAX=   72   IYMAX=   72   IZMAX=   72
   IXMIN=  -72   IYMIN=  -72   IZMIN=  -72


 real space projection operators:
  total allocation   :       1955.02 KBytes
  max/ min on nodes  :        201.61        189.14


 parallel 3D FFT for wavefunctions:
    minimum data exchange during FFTs selected (reduces bandwidth)
 parallel 3D FFT for charge:
    minimum data exchange during FFTs selected (reduces bandwidth)


 total amount of memory used by VASP MPI-rank0  1021828. kBytes
=======================================================================

   base      :      30000. kBytes
   nonlr-proj:       1076. kBytes
   fftplans  :     192295. kBytes
   grid      :     762047. kBytes
   one-center:         12. kBytes
   wavefun   :      36398. kBytes
 
     INWAV:  cpu time      4.8406: real time      5.9263
 Broyden mixing: mesh for mixing (old mesh)
   NGX =145   NGY =145   NGZ =145
  (NGX  =588   NGY  =588   NGZ  =588)
  gives a total of ****** points

 initial charge density was supplied:
 charge density of overlapping atoms calculated
 number of electron      48.0000000 magnetization      17.0000000
 keeping initial charge density in first step


--------------------------------------------------------------------------------------------------------


 Maximum index for non-local projection operator          320
 Maximum index for augmentation-charges          266 (set IRDMAX)


--------------------------------------------------------------------------------------------------------


 First call to EWALD:  gamma=   0.044
 Maximum number of real-space cells 3x 3x 3
 Maximum number of reciprocal cells 3x 3x 3

    FEWALD:  cpu time      0.0007: real time      0.0007


--------------------------------------- Ionic step        1  -------------------------------------------




--------------------------------------- Iteration      1(   1)  ---------------------------------------


    POTLOK:  cpu time    135.6517: real time    136.7885
    SETDIJ:  cpu time      0.3008: real time      0.3035
     EDDAV:  cpu time     64.2290: real time     64.7678
       DOS:  cpu time      0.0006: real time      0.0006
    CHARGE:  cpu time      6.8311: real time      6.8896
    MIXING:  cpu time      0.1070: real time      0.1082
    --------------------------------------------
      LOOP:  cpu time    207.1202: real time    208.8582

 eigenvalue-minimisations  :   240
 total energy-change (2. order) :-0.1037973E+03  (-0.4987786E+01)
 number of electron      46.9999998 magnetization      16.3835555
 augmentation part        0.6741021 magnetization      15.4374145

 Broyden mixing:
  rms(total) = 0.27651E+01    rms(broyden)= 0.27648E+01
  rms(prec ) = 0.27842E+01
  weight for this iteration     100.00

 Free energy of the ion-electron system (eV)
  ---------------------------------------------------
  alpha Z        PSCENC =         0.15867211
  Ewald energy   TEWEN  =      4672.28158603
  -Hartree energ DENC   =     -5963.08802482
  -exchange      EXHF   =         0.00000000
  -V(xc)+E(xc)   XCENC  =       183.87743178
  PAW double counting   =      1307.44613065    -1327.48881895
  entropy T*S    EENTRO =        -0.00000000
  eigenvalues    EBANDS =      -808.19474135
  atomic energy  EATOM  =      1839.10786169
  Solvation  Ediel_sol  =        -7.89738283
  ---------------------------------------------------
  free energy    TOTEN  =      -103.79728571 eV

  energy without entropy =     -103.79728571  energy(sigma->0) =     -103.79728571


--------------------------------------------------------------------------------------------------------




--------------------------------------- Iteration      1(   2)  ---------------------------------------


    POTLOK:  cpu time    132.3146: real time    133.4267
    SETDIJ:  cpu time      0.2990: real time      0.3012
    EDDIAG:  cpu time     12.4440: real time     12.5448
  RMM-DIIS:  cpu time     69.9746: real time     70.5554
    ORTHCH:  cpu time      0.0965: real time      0.0973
       DOS:  cpu time      0.0004: real time      0.0004
    CHARGE:  cpu time      7.1217: real time      7.1814
    MIXING:  cpu time      0.1133: real time      0.1143
    --------------------------------------------
      LOOP:  cpu time    222.3641: real time    224.2214

 eigenvalue-minimisations  :   168
 total energy-change (2. order) : 0.1166889E+02  (-0.5890441E+01)
 number of electron      46.9999998 magnetization      15.7349570
 augmentation part        0.6502021 magnetization      14.7488897

 Broyden mixing:
  rms(total) = 0.13958E+01    rms(broyden)= 0.13957E+01
  rms(prec ) = 0.14078E+01
  weight for this iteration     100.00

 eigenvalues of (default mixing * dielectric matrix)
  average eigenvalue GAMMA=   0.8991
  0.8991

 Free energy of the ion-electron system (eV)
  ---------------------------------------------------
  alpha Z        PSCENC =         0.15867211
  Ewald energy   TEWEN  =      4672.28158603
  -Hartree energ DENC   =     -6014.05589970
  -exchange      EXHF   =         0.00000000
  -V(xc)+E(xc)   XCENC  =       196.46278099
  PAW double counting   =      2181.24350721    -2202.04457208
  entropy T*S    EENTRO =        -0.00000000
  eigenvalues    EBANDS =      -739.54310702
  atomic energy  EATOM  =      1839.10786169
  Solvation  Ediel_sol  =       -25.73922399
  ---------------------------------------------------
  free energy    TOTEN  =       -92.12839477 eV

  energy without entropy =      -92.12839477  energy(sigma->0) =      -92.12839477


--------------------------------------------------------------------------------------------------------




--------------------------------------- Iteration      1(   3)  ---------------------------------------


    POTLOK:  cpu time    127.3370: real time    128.4052
    SETDIJ:  cpu time      0.3000: real time      0.3025
    EDDIAG:  cpu time     12.4932: real time     12.5969
  RMM-DIIS:  cpu time     77.3005: real time     77.8931
    ORTHCH:  cpu time      0.0981: real time      0.0989
       DOS:  cpu time      0.0004: real time      0.0004
    CHARGE:  cpu time      6.8394: real time      6.8955
    MIXING:  cpu time      0.1151: real time      0.1162
    --------------------------------------------
      LOOP:  cpu time    224.4838: real time    226.3088

 eigenvalue-minimisations  :   191
 total energy-change (2. order) :-0.1620320E+02  (-0.2130467E+01)
 number of electron      46.9999998 magnetization      14.8929197
 augmentation part        0.6203254 magnetization      13.9110972

 Broyden mixing:
  rms(total) = 0.84586E+00    rms(broyden)= 0.84583E+00
  rms(prec ) = 0.85177E+00
  weight for this iteration     100.00

 eigenvalues of (default mixing * dielectric matrix)
  average eigenvalue GAMMA=   1.0986
  1.4575  0.7397

 Free energy of the ion-electron system (eV)
  ---------------------------------------------------
  alpha Z        PSCENC =         0.15867211
  Ewald energy   TEWEN  =      4672.28158603
  -Hartree energ DENC   =     -6043.60654267
  -exchange      EXHF   =         0.00000000
  -V(xc)+E(xc)   XCENC  =       186.19054905
  PAW double counting   =      2969.67152820    -2990.94930337
  entropy T*S    EENTRO =        -0.00000000
  eigenvalues    EBANDS =      -697.53138102
  atomic energy  EATOM  =      1839.10786169
  Solvation  Ediel_sol  =       -43.65456204
  ---------------------------------------------------
  free energy    TOTEN  =      -108.33159203 eV

  energy without entropy =     -108.33159203  energy(sigma->0) =     -108.33159203


--------------------------------------------------------------------------------------------------------




--------------------------------------- Iteration      1(   4)  ---------------------------------------


    POTLOK:  cpu time    129.8306: real time    130.9025
    SETDIJ:  cpu time      0.3003: real time      0.3021
    EDDIAG:  cpu time     12.3748: real time     12.4797
  RMM-DIIS:  cpu time     90.4926: real time     91.2168
    ORTHCH:  cpu time      0.0974: real time      0.0984
       DOS:  cpu time      0.0005: real time      0.0006
    CHARGE:  cpu time      7.0255: real time      7.0744
    MIXING:  cpu time      0.1179: real time      0.1189
    --------------------------------------------
      LOOP:  cpu time    240.2396: real time    242.1934

 eigenvalue-minimisations  :   237
 total energy-change (2. order) :-0.6140502E+01  (-0.8392111E+00)
 number of electron      46.9999998 magnetization      14.0592059
 augmentation part        0.6007422 magnetization      13.0924901

 Broyden mixing:
  rms(total) = 0.48306E+00    rms(broyden)= 0.48301E+00
  rms(prec ) = 0.48758E+00
  weight for this iteration     100.00

 eigenvalues of (default mixing * dielectric matrix)
  average eigenvalue GAMMA=   1.2924
  2.1799  1.0249  0.6724

 Free energy of the ion-electron system (eV)
  ---------------------------------------------------
  alpha Z        PSCENC =         0.15867211
  Ewald energy   TEWEN  =      4672.28158603
  -Hartree energ DENC   =     -6057.66207190
  -exchange      EXHF   =         0.00000000
  -V(xc)+E(xc)   XCENC  =       183.20623900
  PAW double counting   =      3779.21232833    -3800.68991621
  entropy T*S    EENTRO =        -0.00000000
  eigenvalues    EBANDS =      -665.08093337
  atomic energy  EATOM  =      1839.10786169
  Solvation  Ediel_sol  =       -65.00586013
  ---------------------------------------------------
  free energy    TOTEN  =      -114.47209445 eV

  energy without entropy =     -114.47209445  energy(sigma->0) =     -114.47209445


--------------------------------------------------------------------------------------------------------




--------------------------------------- Iteration      1(   5)  ---------------------------------------


    POTLOK:  cpu time    129.3648: real time    130.4372
    SETDIJ:  cpu time      0.3047: real time      0.3064
    EDDIAG:  cpu time     12.4478: real time     12.5462
  RMM-DIIS:  cpu time     96.8928: real time     97.6635
    ORTHCH:  cpu time      0.0994: real time      0.1002
       DOS:  cpu time      0.0003: real time      0.0003
    CHARGE:  cpu time      6.9959: real time      7.0523
    MIXING:  cpu time      0.1220: real time      0.1229
    --------------------------------------------
      LOOP:  cpu time    246.2276: real time    248.2290

 eigenvalue-minimisations  :   260
 total energy-change (2. order) :-0.1735463E+01  (-0.1949815E+00)
 number of electron      46.9999998 magnetization      13.0794616
 augmentation part        0.6110700 magnetization      12.1101891

 Broyden mixing:
  rms(total) = 0.28638E+00    rms(broyden)= 0.28637E+00
  rms(prec ) = 0.29022E+00
  weight for this iteration     100.00

 eigenvalues of (default mixing * dielectric matrix)
  average eigenvalue GAMMA=   1.3596
  2.5851  1.2578  0.9122  0.6833

 Free energy of the ion-electron system (eV)
  ---------------------------------------------------
  alpha Z        PSCENC =         0.15867211
  Ewald energy   TEWEN  =      4672.28158603
  -Hartree energ DENC   =     -6049.45531236
  -exchange      EXHF   =         0.00000000
  -V(xc)+E(xc)   XCENC  =       182.23579743
  PAW double counting   =      4231.04754985    -4252.50154451
  entropy T*S    EENTRO =        -0.00000000
  eigenvalues    EBANDS =      -657.49031661
  atomic energy  EATOM  =      1839.10786169
  Solvation  Ediel_sol  =       -81.59185101
  ---------------------------------------------------
  free energy    TOTEN  =      -116.20755739 eV

  energy without entropy =     -116.20755739  energy(sigma->0) =     -116.20755739


--------------------------------------------------------------------------------------------------------




--------------------------------------- Iteration      1(   6)  ---------------------------------------


    POTLOK:  cpu time    128.1930: real time    129.2444
    SETDIJ:  cpu time      0.3366: real time      0.3388
    EDDIAG:  cpu time     12.3765: real time     12.4723
  RMM-DIIS:  cpu time     97.2739: real time     97.9940
    ORTHCH:  cpu time      0.0977: real time      0.0985
       DOS:  cpu time      0.0004: real time      0.0004
    CHARGE:  cpu time      7.0420: real time      7.0932
    MIXING:  cpu time      0.1277: real time      0.1291
    --------------------------------------------
      LOOP:  cpu time    245.4477: real time    247.3707

 eigenvalue-minimisations  :   259
 total energy-change (2. order) :-0.5526760E+00  (-0.9215980E-01)
 number of electron      46.9999998 magnetization      12.4568715
 augmentation part        0.6180100 magnetization      11.4826873

 Broyden mixing:
  rms(total) = 0.18143E+00    rms(broyden)= 0.18141E+00
  rms(prec ) = 0.18474E+00
  weight for this iteration     100.00

 eigenvalues of (default mixing * dielectric matrix)
  average eigenvalue GAMMA=   1.3738
  2.8956  1.5711  1.0168  0.6929  0.6929

 Free energy of the ion-electron system (eV)
  ---------------------------------------------------
  alpha Z        PSCENC =         0.15867211
  Ewald energy   TEWEN  =      4672.28158603
  -Hartree energ DENC   =     -6035.66079484
  -exchange      EXHF   =         0.00000000
  -V(xc)+E(xc)   XCENC  =       182.02427815
  PAW double counting   =      4479.48660001    -4500.81614039
  entropy T*S    EENTRO =        -0.00000000
  eigenvalues    EBANDS =      -657.47403015
  atomic energy  EATOM  =      1839.10786169
  Solvation  Ediel_sol  =       -95.86826601
  ---------------------------------------------------
  free energy    TOTEN  =      -116.76023341 eV

  energy without entropy =     -116.76023341  energy(sigma->0) =     -116.76023341


--------------------------------------------------------------------------------------------------------




--------------------------------------- Iteration      1(   7)  ---------------------------------------


    POTLOK:  cpu time    123.0361: real time    124.0928
    SETDIJ:  cpu time      0.3304: real time      0.3332
    EDDIAG:  cpu time     12.3932: real time     12.5040
  RMM-DIIS:  cpu time     97.8957: real time     98.7858
    ORTHCH:  cpu time      0.0995: real time      0.1006
       DOS:  cpu time      0.0004: real time      0.0005
    CHARGE:  cpu time      7.1212: real time      7.1873
    MIXING:  cpu time      0.1308: real time      0.1321
    --------------------------------------------
      LOOP:  cpu time    241.0073: real time    243.1362

 eigenvalue-minimisations  :   262
 total energy-change (2. order) : 0.6180786E+00  (-0.4004072E-01)
 number of electron      46.9999998 magnetization      11.6369106
 augmentation part        0.6133623 magnetization      10.6653810

 Broyden mixing:
  rms(total) = 0.14567E+00    rms(broyden)= 0.14567E+00
  rms(prec ) = 0.14852E+00
  weight for this iteration     100.00

 eigenvalues of (default mixing * dielectric matrix)
  average eigenvalue GAMMA=   1.3403
  2.9794  1.8213  0.9477  0.9477  0.6728  0.6728

 Free energy of the ion-electron system (eV)
  ---------------------------------------------------
  alpha Z        PSCENC =         0.15867211
  Ewald energy   TEWEN  =      4672.28158603
  -Hartree energ DENC   =     -6027.47589649
  -exchange      EXHF   =         0.00000000
  -V(xc)+E(xc)   XCENC  =       182.63187845
  PAW double counting   =      4498.41068391    -4519.68429480
  entropy T*S    EENTRO =        -0.00000000
  eigenvalues    EBANDS =      -659.43746510
  atomic energy  EATOM  =      1839.10786169
  Solvation  Ediel_sol  =      -102.13518058
  ---------------------------------------------------
  free energy    TOTEN  =      -116.14215478 eV

  energy without entropy =     -116.14215478  energy(sigma->0) =     -116.14215478


--------------------------------------------------------------------------------------------------------




--------------------------------------- Iteration      1(   8)  ---------------------------------------


    POTLOK:  cpu time    119.2793: real time    120.4230
    SETDIJ:  cpu time      0.2993: real time      0.3018
    EDDIAG:  cpu time     12.4466: real time     12.5615
  RMM-DIIS:  cpu time     97.8319: real time     98.6945
    ORTHCH:  cpu time      0.0966: real time      0.0974
       DOS:  cpu time      0.0003: real time      0.0003
    CHARGE:  cpu time      7.1531: real time      7.2170
    MIXING:  cpu time      0.1397: real time      0.1413
    --------------------------------------------
      LOOP:  cpu time    237.2469: real time    239.4368

 eigenvalue-minimisations  :   261
 total energy-change (2. order) : 0.1116171E+01  (-0.3045945E-01)
 number of electron      46.9999998 magnetization      10.3398887
 augmentation part        0.6069301 magnetization       9.3735192

 Broyden mixing:
  rms(total) = 0.11304E+00    rms(broyden)= 0.11303E+00
  rms(prec ) = 0.11533E+00
  weight for this iteration     100.00

 eigenvalues of (default mixing * dielectric matrix)
  average eigenvalue GAMMA=   1.4795
  3.2822  2.4871  1.2301  1.2301  0.8074  0.6866  0.6326

 Free energy of the ion-electron system (eV)
  ---------------------------------------------------
  alpha Z        PSCENC =         0.15867211
  Ewald energy   TEWEN  =      4672.28158603
  -Hartree energ DENC   =     -6017.27011279
  -exchange      EXHF   =         0.00000000
  -V(xc)+E(xc)   XCENC  =       183.60376646
  PAW double counting   =      4478.54300039    -4499.76583551
  entropy T*S    EENTRO =        -0.00000000
  eigenvalues    EBANDS =      -662.55776267
  atomic energy  EATOM  =      1839.10786169
  Solvation  Ediel_sol  =      -109.12715969
  ---------------------------------------------------
  free energy    TOTEN  =      -115.02598399 eV

  energy without entropy =     -115.02598399  energy(sigma->0) =     -115.02598399


--------------------------------------------------------------------------------------------------------




--------------------------------------- Iteration      1(   9)  ---------------------------------------


    POTLOK:  cpu time    122.2153: real time    123.4032
    SETDIJ:  cpu time      0.3367: real time      0.3400
    EDDIAG:  cpu time     12.2785: real time     12.3926
  RMM-DIIS:  cpu time     96.9876: real time     97.8714
    ORTHCH:  cpu time      0.0991: real time      0.1001
       DOS:  cpu time      0.0004: real time      0.0004
    CHARGE:  cpu time      7.0876: real time      7.1526
    MIXING:  cpu time      0.1463: real time      0.1481
    --------------------------------------------
      LOOP:  cpu time    239.1515: real time    241.4082

 eigenvalue-minimisations  :   259
 total energy-change (2. order) : 0.1122454E+01  (-0.3076937E-01)
 number of electron      46.9999998 magnetization       8.9821544
 augmentation part        0.6055760 magnetization       8.0191712

 Broyden mixing:
  rms(total) = 0.77006E-01    rms(broyden)= 0.77001E-01
  rms(prec ) = 0.78526E-01
  weight for this iteration     100.00

 eigenvalues of (default mixing * dielectric matrix)
  average eigenvalue GAMMA=   1.6343
  4.4875  2.6602  1.6471  1.0847  1.0847  0.7846  0.7016  0.6236

 Free energy of the ion-electron system (eV)
  ---------------------------------------------------
  alpha Z        PSCENC =         0.15867211
  Ewald energy   TEWEN  =      4672.28158603
  -Hartree energ DENC   =     -6002.49455709
  -exchange      EXHF   =         0.00000000
  -V(xc)+E(xc)   XCENC  =       184.56934898
  PAW double counting   =      4473.66292385    -4494.84562029
  entropy T*S    EENTRO =        -0.00000000
  eigenvalues    EBANDS =      -666.56373622
  atomic energy  EATOM  =      1839.10786169
  Solvation  Ediel_sol  =      -119.78000938
  ---------------------------------------------------
  free energy    TOTEN  =      -113.90353032 eV

  energy without entropy =     -113.90353032  energy(sigma->0) =     -113.90353032


--------------------------------------------------------------------------------------------------------




--------------------------------------- Iteration      1(  10)  ---------------------------------------


    POTLOK:  cpu time    118.2516: real time    119.3965
    SETDIJ:  cpu time      0.2987: real time      0.3012
    EDDIAG:  cpu time     12.4117: real time     12.5146
  RMM-DIIS:  cpu time     98.2119: real time     99.1196
    ORTHCH:  cpu time      0.0983: real time      0.0994
       DOS:  cpu time      0.0003: real time      0.0004
    CHARGE:  cpu time      7.1386: real time      7.2065
    MIXING:  cpu time      0.1547: real time      0.1561
    --------------------------------------------
      LOOP:  cpu time    236.5658: real time    238.7942

 eigenvalue-minimisations  :   262
 total energy-change (2. order) : 0.1131911E+01  (-0.1987960E-01)
 number of electron      46.9999998 magnetization       8.1091735
 augmentation part        0.6077731 magnetization       7.1464481

 Broyden mixing:
  rms(total) = 0.49718E-01    rms(broyden)= 0.49715E-01
  rms(prec ) = 0.50407E-01
  weight for this iteration     100.00

 eigenvalues of (default mixing * dielectric matrix)
  average eigenvalue GAMMA=   1.7676
  6.1194  2.7027  1.8537  1.0696  1.0696  1.0311  0.7180  0.7180  0.6266

 Free energy of the ion-electron system (eV)
  ---------------------------------------------------
  alpha Z        PSCENC =         0.15867211
  Ewald energy   TEWEN  =      4672.28158603
  -Hartree energ DENC   =     -5991.15901818
  -exchange      EXHF   =         0.00000000
  -V(xc)+E(xc)   XCENC  =       185.64701872
  PAW double counting   =      4469.94315314    -4491.14391665
  entropy T*S    EENTRO =        -0.00000000
  eigenvalues    EBANDS =      -667.97372084
  atomic energy  EATOM  =      1839.10786169
  Solvation  Ediel_sol  =      -129.63325518
  ---------------------------------------------------
  free energy    TOTEN  =      -112.77161916 eV

  energy without entropy =     -112.77161916  energy(sigma->0) =     -112.77161916


--------------------------------------------------------------------------------------------------------




--------------------------------------- Iteration      1(  11)  ---------------------------------------


    POTLOK:  cpu time    116.9093: real time    118.0212
    SETDIJ:  cpu time      0.2998: real time      0.3021
    EDDIAG:  cpu time     12.4712: real time     12.5837
  RMM-DIIS:  cpu time     97.8119: real time     98.6967
    ORTHCH:  cpu time      0.0968: real time      0.0979
       DOS:  cpu time      0.0003: real time      0.0003
    CHARGE:  cpu time      6.8246: real time      6.8879
    MIXING:  cpu time      0.1648: real time      0.1662
    --------------------------------------------
      LOOP:  cpu time    234.5786: real time    236.7559

 eigenvalue-minimisations  :   262
 total energy-change (2. order) : 0.7630924E+00  (-0.1450788E-01)
 number of electron      46.9999998 magnetization       7.3453454
 augmentation part        0.6075209 magnetization       6.3836278

 Broyden mixing:
  rms(total) = 0.37989E-01    rms(broyden)= 0.37987E-01
  rms(prec ) = 0.38282E-01
  weight for this iteration     100.00

 eigenvalues of (default mixing * dielectric matrix)
  average eigenvalue GAMMA=   1.8761
  7.4147  2.7347  2.0999  1.2233  1.2233  1.2348  0.7932  0.7065  0.7065  0.6239

 Free energy of the ion-electron system (eV)
  ---------------------------------------------------
  alpha Z        PSCENC =         0.15867211
  Ewald energy   TEWEN  =      4672.28158603
  -Hartree energ DENC   =     -5985.66091078
  -exchange      EXHF   =         0.00000000
  -V(xc)+E(xc)   XCENC  =       186.39566217
  PAW double counting   =      4461.17378250    -4482.38403890
  entropy T*S    EENTRO =        -0.00000000
  eigenvalues    EBANDS =      -668.27069269
  atomic energy  EATOM  =      1839.10786169
  Solvation  Ediel_sol  =      -134.81044889
  ---------------------------------------------------
  free energy    TOTEN  =      -112.00852675 eV

  energy without entropy =     -112.00852675  energy(sigma->0) =     -112.00852675


--------------------------------------------------------------------------------------------------------




--------------------------------------- Iteration      1(  12)  ---------------------------------------


    POTLOK:  cpu time    114.2502: real time    115.3253
    SETDIJ:  cpu time      0.2969: real time      0.2992
    EDDIAG:  cpu time     12.4839: real time     12.5977
  RMM-DIIS:  cpu time     97.9271: real time     98.8152
    ORTHCH:  cpu time      0.0988: real time      0.0999
       DOS:  cpu time      0.0002: real time      0.0002
    CHARGE:  cpu time      6.8614: real time      6.9249
    MIXING:  cpu time      0.1727: real time      0.1744
    --------------------------------------------
      LOOP:  cpu time    232.0912: real time    234.2369

 eigenvalue-minimisations  :   262
 total energy-change (2. order) : 0.7290039E+00  (-0.5976047E-02)
 number of electron      46.9999998 magnetization       6.4976721
 augmentation part        0.6066761 magnetization       5.5373653

 Broyden mixing:
  rms(total) = 0.30128E-01    rms(broyden)= 0.30126E-01
  rms(prec ) = 0.30223E-01
  weight for this iteration     100.00

 eigenvalues of (default mixing * dielectric matrix)
  average eigenvalue GAMMA=   1.9199
  8.1330  2.7483  2.5457  1.5854  1.1648  1.1648  1.0151  0.7334  0.7334  0.6235
  0.6713

 Free energy of the ion-electron system (eV)
  ---------------------------------------------------
  alpha Z        PSCENC =         0.15867211
  Ewald energy   TEWEN  =      4672.28158603
  -Hartree energ DENC   =     -5983.03179435
  -exchange      EXHF   =         0.00000000
  -V(xc)+E(xc)   XCENC  =       187.14097560
  PAW double counting   =      4457.15579286    -4478.37981759
  entropy T*S    EENTRO =        -0.00000000
  eigenvalues    EBANDS =      -667.69909497
  atomic energy  EATOM  =      1839.10786169
  Solvation  Ediel_sol  =      -138.01370424
  ---------------------------------------------------
  free energy    TOTEN  =      -111.27952286 eV

  energy without entropy =     -111.27952286  energy(sigma->0) =     -111.27952286


--------------------------------------------------------------------------------------------------------




--------------------------------------- Iteration      1(  13)  ---------------------------------------


    POTLOK:  cpu time    114.2242: real time    115.3140
    SETDIJ:  cpu time      0.3343: real time      0.3369
    EDDIAG:  cpu time     12.4179: real time     12.5314
  RMM-DIIS:  cpu time     97.7744: real time     98.6459
    ORTHCH:  cpu time      0.1001: real time      0.1011
       DOS:  cpu time      0.0003: real time      0.0003
    CHARGE:  cpu time      7.0146: real time      7.0779
    MIXING:  cpu time      0.1827: real time      0.1844
    --------------------------------------------
      LOOP:  cpu time    232.0485: real time    234.1919

 eigenvalue-minimisations  :   262
 total energy-change (2. order) : 0.7215106E+00  ( 0.3883277E-02)
 number of electron      46.9999998 magnetization       5.8405656
 augmentation part        0.6063072 magnetization       4.8811648

 Broyden mixing:
  rms(total) = 0.24494E-01    rms(broyden)= 0.24493E-01
  rms(prec ) = 0.24539E-01
  weight for this iteration     100.00

 eigenvalues of (default mixing * dielectric matrix)
  average eigenvalue GAMMA=   1.9689
  8.7437  3.2032  2.6336  1.9630  1.2246  1.2246  1.0430  0.8269  0.7422  0.7422
  0.6325  0.6475

 Free energy of the ion-electron system (eV)
  ---------------------------------------------------
  alpha Z        PSCENC =         0.15867211
  Ewald energy   TEWEN  =      4672.28158603
  -Hartree energ DENC   =     -5981.01159418
  -exchange      EXHF   =         0.00000000
  -V(xc)+E(xc)   XCENC  =       187.87039438
  PAW double counting   =      4457.52423127    -4478.75726852
  entropy T*S    EENTRO =        -0.00000000
  eigenvalues    EBANDS =      -667.21766746
  atomic energy  EATOM  =      1839.10786169
  Solvation  Ediel_sol  =      -140.51422753
  ---------------------------------------------------
  free energy    TOTEN  =      -110.55801222 eV

  energy without entropy =     -110.55801222  energy(sigma->0) =     -110.55801222


--------------------------------------------------------------------------------------------------------




--------------------------------------- Iteration      1(  14)  ---------------------------------------


    POTLOK:  cpu time    112.5865: real time    113.6904
    SETDIJ:  cpu time      0.3006: real time      0.3034
    EDDIAG:  cpu time     12.4714: real time     12.5872
  RMM-DIIS:  cpu time     97.8440: real time     98.7269
    ORTHCH:  cpu time      0.1000: real time      0.1010
       DOS:  cpu time      0.0004: real time      0.0004
    CHARGE:  cpu time      7.0076: real time      7.0724
    MIXING:  cpu time      0.2002: real time      0.2023
    --------------------------------------------
      LOOP:  cpu time    230.5108: real time    232.6840

 eigenvalue-minimisations  :   262
 total energy-change (2. order) : 0.4326425E+00  (-0.2390179E-02)
 number of electron      46.9999998 magnetization       5.0928664
 augmentation part        0.6074989 magnetization       4.1335008

 Broyden mixing:
  rms(total) = 0.20853E-01    rms(broyden)= 0.20852E-01
  rms(prec ) = 0.20875E-01
  weight for this iteration     100.00

 eigenvalues of (default mixing * dielectric matrix)
  average eigenvalue GAMMA=   1.9881
  9.1588  3.6492  2.8053  2.1426  1.2118  1.2118  1.0424  1.0424  0.8742  0.7599
  0.6978  0.6243  0.6243

 Free energy of the ion-electron system (eV)
  ---------------------------------------------------
  alpha Z        PSCENC =         0.15867211
  Ewald energy   TEWEN  =      4672.28158603
  -Hartree energ DENC   =     -5979.51699672
  -exchange      EXHF   =         0.00000000
  -V(xc)+E(xc)   XCENC  =       188.28570901
  PAW double counting   =      4459.09494855    -4480.32298416
  entropy T*S    EENTRO =        -0.00000000
  eigenvalues    EBANDS =      -667.45899765
  atomic energy  EATOM  =      1839.10786169
  Solvation  Ediel_sol  =      -141.75516863
  ---------------------------------------------------
  free energy    TOTEN  =      -110.12536976 eV

  energy without entropy =     -110.12536976  energy(sigma->0) =     -110.12536976


--------------------------------------------------------------------------------------------------------




--------------------------------------- Iteration      1(  15)  ---------------------------------------


    POTLOK:  cpu time    115.1813: real time    116.2811
    SETDIJ:  cpu time      0.2957: real time      0.2978
    EDDIAG:  cpu time     12.3473: real time     12.4471
  RMM-DIIS:  cpu time     97.9192: real time     98.8334
    ORTHCH:  cpu time      0.0995: real time      0.1007
       DOS:  cpu time      0.0003: real time      0.0003
    CHARGE:  cpu time      7.0637: real time      7.1288
    MIXING:  cpu time      0.2049: real time      0.2070
    --------------------------------------------
      LOOP:  cpu time    233.1120: real time    235.2962

 eigenvalue-minimisations  :   262
 total energy-change (2. order) : 0.5024862E+00  ( 0.3374680E-02)
 number of electron      46.9999998 magnetization       4.4825458
 augmentation part        0.6071541 magnetization       3.5235904

 Broyden mixing:
  rms(total) = 0.17603E-01    rms(broyden)= 0.17603E-01
  rms(prec ) = 0.17630E-01
  weight for this iteration     100.00

 eigenvalues of (default mixing * dielectric matrix)
  average eigenvalue GAMMA=   2.0434
  9.7108  4.6515  2.7159  2.4187  1.4498  1.2062  1.2062  0.9939  0.8142  0.8142
  0.7436  0.6403  0.6403  0.6024

 Free energy of the ion-electron system (eV)
  ---------------------------------------------------
  alpha Z        PSCENC =         0.15867211
  Ewald energy   TEWEN  =      4672.28158603
  -Hartree energ DENC   =     -5978.66950918
  -exchange      EXHF   =         0.00000000
  -V(xc)+E(xc)   XCENC  =       188.77988105
  PAW double counting   =      4467.52389208    -4488.74606148
  entropy T*S    EENTRO =        -0.00000000
  eigenvalues    EBANDS =      -667.49076824
  atomic energy  EATOM  =      1839.10786169
  Solvation  Ediel_sol  =      -142.56843761
  ---------------------------------------------------
  free energy    TOTEN  =      -109.62288355 eV

  energy without entropy =     -109.62288355  energy(sigma->0) =     -109.62288355


--------------------------------------------------------------------------------------------------------




--------------------------------------- Iteration      1(  16)  ---------------------------------------


    POTLOK:  cpu time    107.9027: real time    108.9391
    SETDIJ:  cpu time      0.3001: real time      0.3028
    EDDIAG:  cpu time     12.3452: real time     12.4571
  RMM-DIIS:  cpu time     97.4488: real time     98.3269
    ORTHCH:  cpu time      0.0989: real time      0.1000
       DOS:  cpu time      0.0004: real time      0.0004
    CHARGE:  cpu time      7.2672: real time      7.3341
    MIXING:  cpu time      0.2162: real time      0.2188
    --------------------------------------------
      LOOP:  cpu time    225.5794: real time    227.6792

 eigenvalue-minimisations  :   262
 total energy-change (2. order) : 0.3206296E+00  (-0.2055264E-02)
 number of electron      46.9999998 magnetization       3.8666625
 augmentation part        0.6069844 magnetization       2.9081228

 Broyden mixing:
  rms(total) = 0.14981E-01    rms(broyden)= 0.14980E-01
  rms(prec ) = 0.15013E-01
  weight for this iteration     100.00

 eigenvalues of (default mixing * dielectric matrix)
  average eigenvalue GAMMA=   2.1108
 10.4418  5.6213  2.6791  2.6791  1.7074  1.2065  1.2065  1.1180  0.9495  0.7559
  0.7559  0.6937  0.6344  0.6344  0.5781

 Free energy of the ion-electron system (eV)
  ---------------------------------------------------
  alpha Z        PSCENC =         0.15867211
  Ewald energy   TEWEN  =      4672.28158603
  -Hartree energ DENC   =     -5978.10813931
  -exchange      EXHF   =         0.00000000
  -V(xc)+E(xc)   XCENC  =       189.09065908
  PAW double counting   =      4468.94583195    -4490.16402418
  entropy T*S    EENTRO =        -0.00000000
  eigenvalues    EBANDS =      -667.69812969
  atomic energy  EATOM  =      1839.10786169
  Solvation  Ediel_sol  =      -142.91657160
  ---------------------------------------------------
  free energy    TOTEN  =      -109.30225393 eV

  energy without entropy =     -109.30225393  energy(sigma->0) =     -109.30225393


--------------------------------------------------------------------------------------------------------




--------------------------------------- Iteration      1(  17)  ---------------------------------------


    POTLOK:  cpu time    110.5349: real time    111.5613
    SETDIJ:  cpu time      0.3245: real time      0.3268
    EDDIAG:  cpu time     12.3760: real time     12.4874
  RMM-DIIS:  cpu time     98.0488: real time     98.9314
    ORTHCH:  cpu time      0.0974: real time      0.0985
       DOS:  cpu time      0.0007: real time      0.0007
    CHARGE:  cpu time      7.1574: real time      7.2224
    MIXING:  cpu time      0.2328: real time      0.2351
    --------------------------------------------
      LOOP:  cpu time    228.7723: real time    230.8635

 eigenvalue-minimisations  :   262
 total energy-change (2. order) : 0.3251109E+00  (-0.1184497E-02)
 number of electron      46.9999998 magnetization       3.0226730
 augmentation part        0.6067858 magnetization       2.0645620

 Broyden mixing:
  rms(total) = 0.12877E-01    rms(broyden)= 0.12876E-01
  rms(prec ) = 0.12918E-01
  weight for this iteration     100.00

 eigenvalues of (default mixing * dielectric matrix)
  average eigenvalue GAMMA=   2.1416
 11.0208  6.1589  2.7323  2.7323  1.9327  1.3622  1.2082  1.2082  0.9035  0.8504
  0.8504  0.7152  0.7152  0.6494  0.6056  0.6203

 Free energy of the ion-electron system (eV)
  ---------------------------------------------------
  alpha Z        PSCENC =         0.15867211
  Ewald energy   TEWEN  =      4672.28158603
  -Hartree energ DENC   =     -5977.87045988
  -exchange      EXHF   =         0.00000000
  -V(xc)+E(xc)   XCENC  =       189.41058424
  PAW double counting   =      4470.97584864    -4492.19288461
  entropy T*S    EENTRO =        -0.00000000
  eigenvalues    EBANDS =      -667.86306931
  atomic energy  EATOM  =      1839.10786169
  Solvation  Ediel_sol  =      -142.98528197
  ---------------------------------------------------
  free energy    TOTEN  =      -108.97714306 eV

  energy without entropy =     -108.97714306  energy(sigma->0) =     -108.97714306


--------------------------------------------------------------------------------------------------------




--------------------------------------- Iteration      1(  18)  ---------------------------------------


    POTLOK:  cpu time    112.3981: real time    113.4735
    SETDIJ:  cpu time      0.3345: real time      0.3375
    EDDIAG:  cpu time     12.3648: real time     12.4820
  RMM-DIIS:  cpu time     98.0017: real time     98.8758
    ORTHCH:  cpu time      0.1006: real time      0.1016
       DOS:  cpu time      0.0005: real time      0.0005
    CHARGE:  cpu time      7.1497: real time      7.2159
    MIXING:  cpu time      0.2439: real time      0.2461
    --------------------------------------------
      LOOP:  cpu time    230.5938: real time    232.7330

 eigenvalue-minimisations  :   262
 total energy-change (2. order) : 0.4328845E+00  (-0.2609483E-03)
 number of electron      46.9999998 magnetization       2.0835363
 augmentation part        0.6065511 magnetization       1.1257479

 Broyden mixing:
  rms(total) = 0.98818E-02    rms(broyden)= 0.98811E-02
  rms(prec ) = 0.99252E-02
  weight for this iteration     100.00

 eigenvalues of (default mixing * dielectric matrix)
  average eigenvalue GAMMA=   2.2573
 11.8656  7.0429  3.1167  3.1167  2.3292  1.5983  1.2122  1.2122  1.0822  0.9663
  0.7673  0.7673  0.7221  0.6804  0.6804  0.5951  0.6192

 Free energy of the ion-electron system (eV)
  ---------------------------------------------------
  alpha Z        PSCENC =         0.15867211
  Ewald energy   TEWEN  =      4672.28158603
  -Hartree energ DENC   =     -5977.99703689
  -exchange      EXHF   =         0.00000000
  -V(xc)+E(xc)   XCENC  =       189.84372413
  PAW double counting   =      4471.10927116    -4492.32851291
  entropy T*S    EENTRO =        -0.00000000
  eigenvalues    EBANDS =      -668.04677137
  atomic energy  EATOM  =      1839.10786169
  Solvation  Ediel_sol  =      -142.67305251
  ---------------------------------------------------
  free energy    TOTEN  =      -108.54425856 eV

  energy without entropy =     -108.54425856  energy(sigma->0) =     -108.54425856


[...]
  max/ min on nodes  :        201.46        189.76

    ORTHCH:  cpu time      1.4894: real time      1.5037
     LOOP+:  cpu time    541.7313: real time    547.0218


--------------------------------------- Ionic step       24  -------------------------------------------




--------------------------------------- Iteration     24(   1)  ---------------------------------------


    POTLOK:  cpu time    105.9788: real time    106.9898
    SETDIJ:  cpu time      0.2991: real time      0.3015
     EDDAV:  cpu time     52.1493: real time     52.6489
       DOS:  cpu time      0.0004: real time      0.0004
    CHARGE:  cpu time      6.9629: real time      7.0290
    MIXING:  cpu time      0.1070: real time      0.1080
    --------------------------------------------
      LOOP:  cpu time    165.4976: real time    167.0777

 eigenvalue-minimisations  :   168
 total energy-change (2. order) :-0.2860975E-04  (-0.3045440E-03)
 number of electron      47.0000005 magnetization       1.0000070
 augmentation part        0.6180263 magnetization       0.0455163

 Broyden mixing:
  rms(total) = 0.22130E-02    rms(broyden)= 0.22113E-02
  rms(prec ) = 0.22230E-02
  weight for this iteration     100.00

 Free energy of the ion-electron system (eV)
  ---------------------------------------------------
  alpha Z        PSCENC =         0.15867211
  Ewald energy   TEWEN  =      4701.38577061
  -Hartree energ DENC   =     -6006.10362160
  -exchange      EXHF   =         0.00000000
  -V(xc)+E(xc)   XCENC  =       191.22404645
  PAW double counting   =      4563.58602866    -4584.85016301
  entropy T*S    EENTRO =        -0.00000000
  eigenvalues    EBANDS =      -669.97689221
  atomic energy  EATOM  =      1839.10786169
  Solvation  Ediel_sol  =      -142.23111986
  ---------------------------------------------------
  free energy    TOTEN  =      -107.69941716 eV

  energy without entropy =     -107.69941716  energy(sigma->0) =     -107.69941716


--------------------------------------------------------------------------------------------------------




--------------------------------------- Iteration     24(   2)  ---------------------------------------


    POTLOK:  cpu time     99.1540: real time    100.1389
    SETDIJ:  cpu time      0.2979: real time      0.3003
    EDDIAG:  cpu time     12.3964: real time     12.5085
  RMM-DIIS:  cpu time     69.5783: real time     70.2027
    ORTHCH:  cpu time      0.1001: real time      0.1012
       DOS:  cpu time      0.0004: real time      0.0004
    --------------------------------------------
      LOOP:  cpu time    181.5272: real time    183.2520

 eigenvalue-minimisations  :   165
 total energy-change (2. order) :-0.8827562E-05  (-0.7977632E-05)
 number of electron      47.0000005 magnetization       1.0000070
 augmentation part        0.6180263 magnetization       0.0455163

 Free energy of the ion-electron system (eV)
  ---------------------------------------------------
  alpha Z        PSCENC =         0.15867211
  Ewald energy   TEWEN  =      4701.38577061
  -Hartree energ DENC   =     -6006.10180633
  -exchange      EXHF   =         0.00000000
  -V(xc)+E(xc)   XCENC  =       191.22329952
  PAW double counting   =      4563.60259365    -4584.86667313
  entropy T*S    EENTRO =        -0.00000000
  eigenvalues    EBANDS =      -669.97724630
  atomic energy  EATOM  =      1839.10786169
  Solvation  Ediel_sol  =      -142.23189780
  ---------------------------------------------------
  free energy    TOTEN  =      -107.69942598 eV

  energy without entropy =     -107.69942598  energy(sigma->0) =     -107.69942598


--------------------------------------------------------------------------------------------------------




 average (electrostatic) potential at core
  the test charge radii are     0.6991  0.7215  0.9698  0.5201
  (the norm of the test charge is              1.0000)
       1 -63.0947       2 -62.0994       3 -61.9847       4 -63.8090       5 -61.9993
       6 -62.1936       7 -62.2095       8 -86.4599       9-100.9118      10 -45.1880
      11 -45.2453      12 -44.7209      13 -44.7861      14 -44.7834      15 -45.1033
      16 -45.1680      17 -46.2264
 
 
 
 E-fermi :  -6.0779     XC(G=0):  -0.0329     alpha+bet : -0.0187

 Fermi energy:        -6.0778916030

 spin component 1

 k-point     1 :       0.0000    0.0000    0.0000
  band No.  band energies     occupation 
      1     -29.6394      1.00000
      2     -23.9196      1.00000
      3     -21.9644      1.00000
      4     -20.8650      1.00000
      5     -19.9285      1.00000
      6     -18.4914      1.00000
      7     -16.9533      1.00000
      8     -16.0971      1.00000
      9     -14.5761      1.00000
     10     -13.7341      1.00000
     11     -13.0778      1.00000
     12     -12.8684      1.00000
     13     -12.1268      1.00000
     14     -11.7697      1.00000
     15     -11.4310      1.00000
     16     -11.0427      1.00000
     17     -10.8086      1.00000
     18      -9.9730      1.00000
     19      -9.8793      1.00000
     20      -9.6836      1.00000
     21      -8.9561      1.00000
     22      -8.2464      1.00000
     23      -7.7650      1.00000
     24      -6.3167      1.00000
     25      -2.1751      0.00000
     26      -2.0003      0.00000
     27      -0.6863      0.00000
     28      -0.0224      0.00000
     29       0.0398      0.00000
     30       0.0784      0.00000
     31       0.0820      0.00000
     32       0.0834      0.00000
     33       0.0862      0.00000
     34       0.0866      0.00000
     35       0.1395      0.00000
     36       0.1601      0.00000
     37       0.1692      0.00000
     38       0.1735      0.00000
     39       0.1765      0.00000
     40       0.1776      0.00000
     41       0.1785      0.00000
     42       0.1806      0.00000
 Fermi energy:        -6.0778916030

 spin component 2

 k-point     1 :       0.0000    0.0000    0.0000
  band No.  band energies     occupation 
      1     -29.4221      1.00000
      2     -23.7234      1.00000
      3     -21.7499      1.00000
      4     -20.7997      1.00000
      5     -19.8033      1.00000
      6     -18.2789      1.00000
      7     -16.8504      1.00000
      8     -15.9555      1.00000
      9     -14.5232      1.00000
     10     -13.6983      1.00000
     11     -12.9934      1.00000
     12     -12.5024      1.00000
     13     -12.0596      1.00000
     14     -11.7542      1.00000
     15     -11.3711      1.00000
     16     -10.7680      1.00000
     17     -10.6061      1.00000
     18      -9.9273      1.00000
     19      -9.5586      1.00000
     20      -9.3910      1.00000
     21      -8.8794      1.00000
     22      -7.6858      1.00000
     23      -7.5615      1.00000
     24      -5.4121      0.00000
     25      -1.7500      0.00000
     26      -1.3825      0.00000
     27      -0.6176      0.00000
     28      -0.0179      0.00000
     29       0.0490      0.00000
     30       0.0803      0.00000
     31       0.0829      0.00000
     32       0.0838      0.00000
     33       0.0865      0.00000
     34       0.0868      0.00000
     35       0.1447      0.00000
     36       0.1656      0.00000
     37       0.1698      0.00000
     38       0.1739      0.00000
     39       0.1768      0.00000
     40       0.1780      0.00000
     41       0.1791      0.00000
     42       0.1806      0.00000


--------------------------------------------------------------------------------------------------------


 soft charge-density along one line, spin component           1
         0         1         2         3         4         5         6         7         8         9
 total charge-density along one line
 
 soft charge-density along one line, spin component           2
         0         1         2         3         4         5         6         7         8         9
 total charge-density along one line
 
 pseudopotential strength for first ion, spin component:           1
 10.609  14.111  -0.002  -0.001   0.011   0.004   0.002  -0.020
 14.111  18.767  -0.002  -0.001   0.014   0.005   0.002  -0.026
 -0.002  -0.002  -4.504   0.000  -0.002   8.740  -0.000   0.003
 -0.001  -0.001   0.000  -4.452   0.002  -0.000   8.641  -0.005
  0.011   0.014  -0.002   0.002  -4.480   0.003  -0.005   8.701
  0.004   0.005   8.740  -0.000   0.003 -19.234  -0.000  -0.004
  0.002   0.002  -0.000   8.641  -0.005  -0.000 -19.065   0.010
 -0.020  -0.026   0.003  -0.005   8.701  -0.004   0.010 -19.178
 pseudopotential strength for first ion, spin component:           2
 10.538  14.014  -0.002  -0.001   0.009   0.004   0.001  -0.016
 14.014  18.636  -0.002  -0.001   0.012   0.005   0.002  -0.020
 -0.002  -0.002  -4.493  -0.000  -0.002   8.715   0.000   0.003
 -0.001  -0.001  -0.000  -4.419   0.004   0.000   8.629  -0.004
  0.009   0.012  -0.002   0.004  -4.468   0.003  -0.004   8.679
  0.004   0.005   8.715   0.000   0.003 -19.176   0.000  -0.003
  0.001   0.002   0.000   8.629  -0.004   0.000 -19.104   0.002
 -0.016  -0.020   0.003  -0.004   8.679  -0.003   0.002 -19.132
 total augmentation occupancy for first ion, spin component:           1
  8.137  -3.611  -0.007   0.015  -0.200  -0.004   0.002  -0.024
 -3.611   1.670   0.014  -0.005   0.078   0.003  -0.001   0.009
 -0.007   0.014   1.866   0.001   0.018   0.173   0.000   0.000
  0.015  -0.005   0.001   1.129  -0.044   0.000   0.073  -0.007
 -0.200   0.078   0.018  -0.044   1.623  -0.000  -0.007   0.153
 -0.004   0.003   0.173   0.000  -0.000   0.018   0.000  -0.000
  0.002  -0.001   0.000   0.073  -0.007   0.000   0.005  -0.001
 -0.024   0.009   0.000  -0.007   0.153  -0.000  -0.001   0.016
 total augmentation occupancy for first ion, spin component:           2
  0.132  -0.066   0.000   0.002  -0.022  -0.000   0.000  -0.004
 -0.066   0.034   0.000  -0.002   0.017   0.000  -0.000   0.002
  0.000   0.000   0.002  -0.001  -0.001   0.001  -0.000   0.000
  0.002  -0.002  -0.001   0.236   0.022  -0.000   0.004   0.000
 -0.022   0.017  -0.001   0.022   0.003   0.000   0.000   0.000
 -0.000   0.000   0.001  -0.000   0.000   0.000  -0.000   0.000
  0.000  -0.000  -0.000   0.004   0.000  -0.000  -0.000  -0.000
 -0.004   0.002   0.000   0.000   0.000   0.000  -0.000   0.000


------------------------ aborting loop because EDIFF is reached ----------------------------------------


    CHARGE:  cpu time      1.5832: real time      1.5990
    FORLOC:  cpu time      0.2146: real time      0.2171
    FORNL :  cpu time      4.6957: real time      4.7422
    STRESS:  cpu time    121.2522: real time    122.4250
    FORCOR:  cpu time      7.8750: real time      7.9485
    FORHAR:  cpu time      0.8616: real time      0.8703
    MIXING:  cpu time      0.1176: real time      0.1186
    OFIELD:  cpu time      0.0000: real time      0.0000

 ---------------------------------------------------------------------------------------------

         DFTD3 V3.0 Rev 1        
 Edisp (eV)   -0.14872

 E6    (eV) :    -0.1151
 E8    (eV) :    -0.0336
 % E8        : 22.60
    FORVDW:  cpu time      0.0041: real time      0.0041

  FORCE on cell =-STRESS in cart. coord.  units (eV):
  Direction    XX          YY          ZZ          XY          YZ          ZX
  --------------------------------------------------------------------------------------
  Alpha Z     0.15867     0.15867     0.15867
  Ewald    3300.37239  1665.09829  -264.08560   161.16057     2.90658  -227.52638
  Hartree  3244.11583  1957.19366   804.81438   109.02724     2.18942  -153.14805
  E(xc)    -179.25359  -179.05548  -180.56837    -0.35052     0.02670    -0.09531
  Local   -7041.05118 -4142.33833 -1134.33256  -260.82107    -5.45499   374.25170
  n-local     7.13470     5.21333     7.02528     1.48146    -0.04875     0.01004
  augment   -11.96373   -11.02990   -10.73537    -0.13404    -0.03555     0.01028
  Kinetic   681.10391   705.70255   776.25501    -9.38985     0.31405     6.31366
  Fock        0.00000     0.00000     0.00000     0.00000     0.00000     0.00000
  vdW        -0.06693    -0.01678    -0.00110    -0.00720     0.00026     0.00399
  -------------------------------------------------------------------------------------
  Total       0.55006     0.92600    -1.46967     0.96659    -0.10229    -0.18007
  in kB       0.01377     0.02318    -0.03679     0.02420    -0.00256    -0.00451
  external pressure =        0.00 kB  Pullay stress =        0.00 kB


 VOLUME and BASIS-vectors are now :
 -----------------------------------------------------------------------------
  energy-cutoff  :      500.00
  volume of cell :    64000.00
      direct lattice vectors                 reciprocal lattice vectors
    40.000000000  0.000000000  0.000000000     0.025000000  0.000000000  0.000000000
     0.000000000 40.000000000  0.000000000     0.000000000  0.025000000  0.000000000
     0.000000000  0.000000000 40.000000000     0.000000000  0.000000000  0.025000000

  length of vectors
    40.000000000 40.000000000 40.000000000     0.025000000  0.025000000  0.025000000


 FORCES acting on ions
    electron-ion (+dipol)            ewald-force                    non-local-force                 convergence-correction
 -----------------------------------------------------------------------------------------------
   -.131E+03 0.782E+01 0.858E+01   0.128E+03 -.724E+01 -.829E+01   0.278E+01 -.807E+00 -.238E+00   -.310E-03 -.620E-02 0.423E-03
   -.109E+03 -.171E+03 0.505E+01   0.109E+03 0.174E+03 -.496E+01   -.804E+00 -.300E+01 -.937E-03   0.153E-03 0.390E-02 0.319E-02
   0.309E+02 -.199E+03 -.610E+01   -.319E+02 0.202E+03 0.624E+01   0.514E+00 -.311E+01 -.911E-01   0.496E-02 0.610E-02 0.404E-02
   -.324E+01 -.123E+02 -.300E+01   0.101E+02 0.119E+02 0.263E+01   -.717E+01 0.107E+01 0.410E+00   0.977E-04 -.282E-02 0.190E-02
   0.451E+02 0.179E+03 -.578E+01   -.458E+02 -.181E+03 0.588E+01   0.793E+00 0.310E+01 -.855E-01   0.359E-02 -.486E-02 0.314E-02
   -.858E+02 0.180E+03 0.385E+01   0.859E+02 -.183E+03 -.380E+01   -.222E+00 0.291E+01 -.262E-01   0.469E-02 -.127E-02 0.244E-02
   0.199E+03 0.112E+03 -.614E+01   -.206E+03 -.118E+03 0.626E+01   0.580E+01 0.619E+01 -.711E-01   -.392E-02 0.231E-02 -.123E-03
   0.244E+03 -.178E+03 -.182E+02   -.269E+03 0.218E+03 0.204E+02   0.240E+02 -.388E+02 -.202E+01   -.764E-02 -.525E-02 -.283E-02
   -.291E+03 0.711E+02 0.246E+02   0.294E+03 -.782E+02 -.248E+02   -.261E+01 0.515E+01 0.258E+00   0.484E-02 -.164E-03 -.823E-03
   -.346E+02 0.823E+02 0.192E+01   0.372E+02 -.878E+02 -.208E+01   -.264E+01 0.569E+01 0.168E+00   0.373E-03 0.116E-02 0.552E-03
   0.315E+02 0.826E+02 -.305E+01   -.348E+02 -.876E+02 0.329E+01   0.343E+01 0.525E+01 -.257E+00   0.107E-02 -.344E-03 0.586E-03
   0.855E+02 -.151E+02 -.305E+01   -.913E+02 0.178E+02 0.326E+01   0.572E+01 -.255E+01 -.210E+00   -.623E-03 0.104E-02 -.234E-03
   0.287E+02 0.509E+02 0.587E+02   -.283E+02 -.540E+02 -.638E+02   -.563E+00 0.332E+01 0.511E+01   -.108E-02 -.695E-03 -.114E-02
   0.247E+02 0.525E+02 -.594E+02   -.241E+02 -.558E+02 0.643E+02   -.856E+00 0.348E+01 -.496E+01   -.105E-02 -.828E-03 0.614E-03
   0.276E+02 -.871E+02 -.305E+01   -.305E+02 0.925E+02 0.330E+01   0.281E+01 -.559E+01 -.247E+00   0.849E-03 0.849E-03 0.868E-03
   -.452E+02 -.766E+02 0.239E+01   0.484E+02 0.817E+02 -.257E+01   -.350E+01 -.521E+01 0.209E+00   0.609E-04 0.431E-03 0.727E-03
   -.485E+02 -.504E+02 0.507E+01   0.498E+02 0.545E+02 -.523E+01   -.142E+01 -.474E+01 0.197E+00   0.390E-03 -.115E-02 -.752E-03
 -----------------------------------------------------------------------------------------------
   -.261E+02 0.276E+02 0.182E+01   0.924E-13 -.568E-13 0.622E-14   0.261E+02 -.276E+02 -.185E+01   0.646E-02 -.779E-02 0.126E-01
 
 
 POSITION                                       TOTAL-FORCE (eV/Angst)
 -----------------------------------------------------------------------------------
     22.04798     20.06466     19.87780        -0.005356     -0.006411      0.001025
     21.44799     21.35034     19.93418        -0.005116     -0.011075     -0.001863
     20.09133     21.45524     20.03204         0.005340      0.000314     -0.002162
     19.28806     20.28458     20.07140        -0.005367     -0.002987     -0.001435
     19.87790     18.99875     20.03697        -0.004999      0.004262      0.000438
     21.23982     18.89677     19.94297        -0.006188      0.003185     -0.000474
     17.06118     19.38610     20.14819         0.000339     -0.010583      0.004991
     17.98576     20.50315     20.13807        -0.011389     -0.007853     -0.000341
     23.72878     19.83295     19.72473         0.014922      0.000679     -0.001406
     21.70922     17.92111     19.91261        -0.003299      0.006135     -0.002986
     19.27113     18.10548     20.08163         0.004556      0.011695     -0.004038
     16.07802     19.84206     20.18457         0.001553     -0.007301      0.002388
     17.18360     18.80237     19.23694         0.001722      0.001829     -0.001688
     17.23573     18.77354     21.03174         0.002040      0.005003      0.003297
     19.60013     22.41881     20.07468         0.001239      0.002370     -0.004985
     22.06448     22.23854     19.89666         0.006521      0.001875     -0.003141
     24.08880     21.12558     19.67472         0.003484      0.008864      0.012379
 -----------------------------------------------------------------------------------
    total drift:                               -0.013447     -0.002259     -0.018978


--------------------------------------------------------------------------------------------------------



  FREE ENERGIE OF THE ION-ELECTRON SYSTEM (eV)
  ---------------------------------------------------
  free  energy   TOTEN  =      -107.84814145 eV

  energy  without entropy=     -107.84814145  energy(sigma->0) =     -107.84814145
 
 d Force = 0.3993656E-04[ 0.192E-04, 0.607E-04]  d Energy = 0.3957477E-04 0.362E-06
 d Force =-0.1536746E+00[-0.154E+00,-0.154E+00]  d Ewald  =-0.1536746E+00 0.474E-08


--------------------------------------------------------------------------------------------------------


    POTLOK:  cpu time    100.3569: real time    101.3131


--------------------------------------------------------------------------------------------------------


 Conjugate gradient step on ions:
 trial-energy change:   -0.000040  1 .order   -0.000040   -0.000061   -0.000019
  (g-gl).g = 0.126E-03      g.g   = 0.136E-03  gl.gl    = 0.264E-03
 g(Force)  = 0.136E-03   g(Stress)= 0.000E+00 ortho     = 0.120E-04
 gamma     =   0.47763
 trial     =   0.42787
 opt step  =   0.62587  (harmonic =   0.62587) maximal distance =0.00124522
 next E    =  -107.848146   (d E  =  -0.00004)


--------------------------------------------------------------------------------------------------------


  
 reached required accuracy - stopping structural energy minimisation
 writing wavefunctions
     LOOP+:  cpu time    589.7626: real time    596.8082
    4ORBIT:  cpu time      0.0000: real time      0.0000

 total amount of memory used by VASP MPI-rank0  1021828. kBytes
=======================================================================

   base      :      30000. kBytes
   nonlr-proj:       1076. kBytes
   fftplans  :     192295. kBytes
   grid      :     762047. kBytes
   one-center:         12. kBytes
   wavefun   :      36398. kBytes
 
  
  
 General timing and accounting informations for this job:
 ========================================================
  
                  Total CPU time used (sec):    43631.348
                            User time (sec):    40957.109
                          System time (sec):     2674.239
                         Elapsed time (sec):    44046.001
  
                   Maximum memory used (kb):     2562148.
                   Average memory used (kb):          N/A
  
                          Minor page faults:     18666475
                          Major page faults:           42
                 Voluntary context switches:        15944
