 vasp.6.4.2 20Jul23 (build Sep 06 2024 14:39:43) complex                        
  
 executed on             LinuxIFC date 2025.08.28  19:59:51
 running   90 mpi-ranks, on    6 nodes
 distrk:  each k-point on   90 cores,    1 groups
 distr:  one band on NCORE=  30 cores,    3 groups


--------------------------------------------------------------------------------------------------------


 INCAR:
   SYSTEM = 060_red
   ISTART = 1
   ICHARG = 2
   INIWAV = 1
   LHFCALC = .TRUE.
   HFSCREEN = 0.2
   NELM = 500
   ALGO = Damped
   ISPIN = 2
   EDIFF = 1E-05
   ISMEAR = 0
   SIGMA = 0.05
   PREC = accurate
   ENCUT = 500
   LREAL = auto  	
   LDIAG = .FALSE.
   LWAVE = .TRUE.
   LCHARG = .FALSE.
   LAECHG = .FALSE.
   LVHAR = .FALSE.
   LVTOT = .FALSE.
   EDIFFG = -0.02
   IBRION = 2
   NSW = 0
   ISIF = 2
   POTIM = 0.5
   IVDW = 12
   VDW_A1 = 0.383
   VDW_S8 = 2.310
   VDW_A2 = 5.685
   LPLANE = .TRUE.
   NCORE = 30
   LSCALU = .FALSE.
   NSIM = 4
   LSOL = .TRUE.
   EB_K = 35.6880
   LAMBDA_D_K = 3.04
   TAU = 0

 POTCAR:    PAW_PBE C 08Apr2002                   
 POTCAR:    PAW_PBE O 08Apr2002                   
 POTCAR:    PAW_PBE H 15Jun2001                   
 -----------------------------------------------------------------------------
|                                                                             |
|           W    W    AA    RRRRR   N    N  II  N    N   GGGG   !!!           |
|           W    W   A  A   R    R  NN   N  II  NN   N  G    G  !!!           |
|           W    W  A    A  R    R  N N  N  II  N N  N  G       !!!           |
|           W WW W  AAAAAA  RRRRR   N  N N  II  N  N N  G  GGG   !            |
|           WW  WW  A    A  R   R   N   NN  II  N   NN  G    G                |
|           W    W  A    A  R    R  N    N  II  N    N   GGGG   !!!           |
|                                                                             |
|     You use a magnetic or noncollinear calculation, but did not specify     |
|     the initial magnetic moment with the MAGMOM tag. Note that a            |
|     default of 1 will be used for all atoms. This ferromagnetic setup       |
|     may break the symmetry of the crystal, in particular it may rule        |
|     out finding an antiferromagnetic solution. Thence, we recommend         |
|     setting the initial magnetic moment manually or verifying carefully     |
|     that this magnetic setup is desired.                                    |
|                                                                             |
 -----------------------------------------------------------------------------

 -----------------------------------------------------------------------------
|                                                                             |
|           W    W    AA    RRRRR   N    N  II  N    N   GGGG   !!!           |
|           W    W   A  A   R    R  NN   N  II  NN   N  G    G  !!!           |
|           W    W  A    A  R    R  N N  N  II  N N  N  G       !!!           |
|           W WW W  AAAAAA  RRRRR   N  N N  II  N  N N  G  GGG   !            |
|           WW  WW  A    A  R   R   N   NN  II  N   NN  G    G                |
|           W    W  A    A  R    R  N    N  II  N    N   GGGG   !!!           |
|                                                                             |
|     For optimal performance we recommend to set                             |
|       NCORE = 2 up to number-of-cores-per-socket                            |
|     NCORE specifies how many cores store one orbital (NPAR=cpu/NCORE).      |
|     This setting can greatly improve the performance of VASP for DFT.       |
|     The default, NCORE=1 might be grossly inefficient on modern             |
|     multi-core architectures or massively parallel machines. Do your        |
|     own testing! More info at https://www.vasp.at/wiki/index.php/NCORE      |
|     Unfortunately you need to use the default for GW and RPA                |
|     calculations (for HF NCORE is supported but not extensively tested      |
|     yet).                                                                   |
|                                                                             |
 -----------------------------------------------------------------------------

 POTCAR:    PAW_PBE C 08Apr2002                   
   SHA256 =  253f7b50bb8d59471dbedb8285d89021f4a42ed1a2c5d38a03a736e69125dd95 C/POTCAR              
   COPYR  = (c) Copyright 08Apr2002 Georg Kresse                                                    
   COPYR  = This file is part of the software VASP. Any use, copying, and all other rights are regul
   COPYR  = If you do not have a valid VASP license, you may not use, copy or distribute this file. 
   VRHFIN =C: s2p2                                                                                  
   LEXCH  = PE                                                                                      
   EATOM  =   147.1560 eV,   10.8157 Ry                                                             
                                                                                                    
   TITEL  = PAW_PBE C 08Apr2002                                                                     
   LULTRA =        F    use ultrasoft PP ?                                                          
   IUNSCR =        1    unscreen: 0-lin 1-nonlin 2-no                                               
   RPACOR =    1.200    partial core radius                                                         
   POMASS =   12.011; ZVAL   =    4.000    mass and valenz                                          
   RCORE  =    1.500    outmost cutoff radius                                                       
   RWIGS  =    1.630; RWIGS  =    0.863    wigner-seitz radius (au A)                               
   ENMAX  =  400.000; ENMIN  =  300.000 eV                                                          
   ICORE  =        2    local potential                                                             
   LCOR   =        T    correct aug charges                                                         
   LPAW   =        T    paw PP                                                                      
   EAUG   =  644.873                                                                                
   DEXC   =    0.000                                                                                
   RMAX   =    1.529    core radius for proj-oper                                                   
   RAUG   =    1.300    factor for augmentation sphere                                              
   RDEP   =    1.501    radius for radial grids                                                     
   RDEPT  =    1.300    core radius for aug-charge                                                  
                                                                                                    
   Atomic configuration                                                                             
    4 entries                                                                                       
     n  l   j            E        occ.                                                              
     1  0  0.50      -273.3789   2.0000                                                             
     2  0  0.50       -13.7508   2.0000                                                             
     2  1  0.50        -5.2854   2.0000                                                             
     3  2  1.50        -5.4423   0.0000                                                             
   Description                                                                                      
     l       E           TYP  RCUT    TYP  RCUT                                                     
     0    -13.7508458     23  1.200                                                                 
     0     -8.2022199     23  1.200                                                                 
     1     -5.2854383     23  1.500                                                                 
     1     34.0145650     23  1.500                                                                 
     2     -5.4423304      7  1.500                                                                 
  local pseudopotential read in
  partial core-charges read in
  partial kinetic energy density read in
  atomic valenz-charges read in
  non local Contribution for L=           0  read in
    real space projection operators read in
  non local Contribution for L=           0  read in
    real space projection operators read in
  non local Contribution for L=           1  read in
    real space projection operators read in
  non local Contribution for L=           1  read in
    real space projection operators read in
    PAW grid and wavefunctions read in
 
   number of l-projection  operators is LMAX  =           4
   number of lm-projection operators is LMMAX =           8
 
 POTCAR:    PAW_PBE O 08Apr2002                   
   SHA256 =  818f92134a0a090dccd8ba1447fa70422a3b330e708bb4f08108d8ae51209ddf O/POTCAR              
   COPYR  = (c) Copyright 08Apr2002 Georg Kresse                                                    
   COPYR  = This file is part of the software VASP. Any use, copying, and all other rights are regul
   COPYR  = If you do not have a valid VASP license, you may not use, copy or distribute this file. 
   VRHFIN =O: s2p4                                                                                  
   LEXCH  = PE                                                                                      
   EATOM  =   432.3788 eV,   31.7789 Ry                                                             
                                                                                                    
   TITEL  = PAW_PBE O 08Apr2002                                                                     
   LULTRA =        F    use ultrasoft PP ?                                                          
   IUNSCR =        1    unscreen: 0-lin 1-nonlin 2-no                                               
   RPACOR =    1.200    partial core radius                                                         
   POMASS =   16.000; ZVAL   =    6.000    mass and valenz                                          
   RCORE  =    1.520    outmost cutoff radius                                                       
   RWIGS  =    1.550; RWIGS  =    0.820    wigner-seitz radius (au A)                               
   ENMAX  =  400.000; ENMIN  =  300.000 eV                                                          
   ICORE  =        2    local potential                                                             
   LCOR   =        T    correct aug charges                                                         
   LPAW   =        T    paw PP                                                                      
   EAUG   =  605.392                                                                                
   DEXC   =    0.000                                                                                
   RMAX   =    1.553    core radius for proj-oper                                                   
   RAUG   =    1.300    factor for augmentation sphere                                              
   RDEP   =    1.550    radius for radial grids                                                     
   RDEPT  =    1.329    core radius for aug-charge                                                  
                                                                                                    
   Atomic configuration                                                                             
    4 entries                                                                                       
     n  l   j            E        occ.                                                              
     1  0  0.50      -514.6923   2.0000                                                             
     2  0  0.50       -23.9615   2.0000                                                             
     2  1  0.50        -9.0305   4.0000                                                             
     3  2  1.50        -9.5241   0.0000                                                             
   Description                                                                                      
     l       E           TYP  RCUT    TYP  RCUT                                                     
     0    -23.9615318     23  1.200                                                                 
     0     -9.5240782     23  1.200                                                                 
     1     -9.0304911     23  1.520                                                                 
     1      8.1634956     23  1.520                                                                 
     2     -9.5240782      7  1.500                                                                 
  local pseudopotential read in
  partial core-charges read in
  partial kinetic energy density read in
  kinetic energy density of atom read in
  atomic valenz-charges read in
  non local Contribution for L=           0  read in
    real space projection operators read in
  non local Contribution for L=           0  read in
    real space projection operators read in
  non local Contribution for L=           1  read in
    real space projection operators read in
  non local Contribution for L=           1  read in
    real space projection operators read in
    PAW grid and wavefunctions read in
 
   number of l-projection  operators is LMAX  =           4
   number of lm-projection operators is LMMAX =           8
 
 POTCAR:    PAW_PBE H 15Jun2001                   
   SHA256 =  030f79b5d3ab3cf0e668861823c8fb652ff669f3e15e46930bd03bfd63a607b6 H/POTCAR              
   COPYR  = (c) Copyright 15Jun2001 Georg Kresse                                                    
   COPYR  = This file is part of the software VASP. Any use, copying, and all other rights are regul
   COPYR  = If you do not have a valid VASP license, you may not use, copy or distribute this file. 
   VRHFIN =H: ultrasoft test                                                                        
   LEXCH  = PE                                                                                      
   EATOM  =    12.4884 eV,    0.9179 Ry                                                             
                                                                                                    
   TITEL  = PAW_PBE H 15Jun2001                                                                     
   LULTRA =        F    use ultrasoft PP ?                                                          
   IUNSCR =        0    unscreen: 0-lin 1-nonlin 2-no                                               
   RPACOR =    0.000    partial core radius                                                         
   POMASS =    1.000; ZVAL   =    1.000    mass and valenz                                          
   RCORE  =    1.100    outmost cutoff radius                                                       
   RWIGS  =    0.700; RWIGS  =    0.370    wigner-seitz radius (au A)                               
   ENMAX  =  250.000; ENMIN  =  200.000 eV                                                          
   RCLOC  =    0.701    cutoff for local pot                                                        
   LCOR   =        T    correct aug charges                                                         
   LPAW   =        T    paw PP                                                                      
   EAUG   =  400.000                                                                                
   RMAX   =    1.123    core radius for proj-oper                                                   
   RAUG   =    1.200    factor for augmentation sphere                                              
   RDEP   =    1.112    radius for radial grids                                                     
   RDEPT  =    0.926    core radius for aug-charge                                                  
                                                                                                    
   Atomic configuration                                                                             
    2 entries                                                                                       
     n  l   j            E        occ.                                                              
     1  0  0.50        -6.4927   1.0000                                                             
     2  1  0.50        -3.4015   0.0000                                                             
   Description                                                                                      
     l       E           TYP  RCUT    TYP  RCUT                                                     
     0     -6.4927494     23  1.100                                                                 
     0      6.8029130     23  1.100                                                                 
     1     -4.0817478     23  1.100                                                                 
  local pseudopotential read in
  atomic valenz-charges read in
  non local Contribution for L=           0  read in
    real space projection operators read in
  non local Contribution for L=           0  read in
    real space projection operators read in
  non local Contribution for L=           1  read in
    real space projection operators read in
    PAW grid and wavefunctions read in
 
   number of l-projection  operators is LMAX  =           3
   number of lm-projection operators is LMMAX =           5
 
 Optimization of the real space projectors (new method)

 maximal supplied QI-value         = 25.13
 optimisation between [QCUT,QGAM] = [ 11.31, 22.87] = [ 35.82,146.48] Ry 
 Optimized for a Real-space Cutoff    1.03 Angstroem

   l    n(q)    QCUT    max X(q) W(low)/X(q) W(high)/X(q)  e(spline) 
   0      7    11.310   115.676    0.20E-03    0.90E-03    0.20E-06
   0      7    11.310    87.132    0.20E-03    0.89E-03    0.19E-06
   1      6    11.310     4.429    0.16E-03    0.28E-03    0.12E-06
   1      6    11.310     2.733    0.12E-03    0.21E-03    0.99E-07
 Optimization of the real space projectors (new method)

 maximal supplied QI-value         = 24.76
 optimisation between [QCUT,QGAM] = [ 11.39, 22.77] = [ 36.31,145.25] Ry 
 Optimized for a Real-space Cutoff    1.10 Angstroem

   l    n(q)    QCUT    max X(q) W(low)/X(q) W(high)/X(q)  e(spline) 
   0      7    11.387    20.381    0.22E-03    0.48E-03    0.18E-06
   0      7    11.387    15.268    0.22E-03    0.52E-03    0.19E-06
   1      7    11.387     5.964    0.22E-03    0.73E-03    0.24E-06
   1      7    11.387     5.382    0.19E-03    0.60E-03    0.21E-06
 Optimization of the real space projectors (new method)

 maximal supplied QI-value         = 34.20
 optimisation between [QCUT,QGAM] = [ 11.29, 22.57] = [ 35.68,142.71] Ry 
 Optimized for a Real-space Cutoff    1.20 Angstroem

   l    n(q)    QCUT    max X(q) W(low)/X(q) W(high)/X(q)  e(spline) 
   0      8    11.287    19.460    0.22E-03    0.50E-03    0.19E-06
   0      8    11.287    12.209    0.21E-03    0.48E-03    0.18E-06
   1      8    11.287     4.655    0.21E-03    0.11E-04    0.26E-06
  PAW_PBE C 08Apr2002                   :
 energy of atom  1       EATOM= -147.1560
 kinetic energy error for atom=    0.0076 (will be added to EATOM!!)
  PAW_PBE O 08Apr2002                   :
 energy of atom  2       EATOM= -432.3788
 kinetic energy error for atom=    0.0224 (will be added to EATOM!!)
  PAW_PBE H 15Jun2001                   :
 energy of atom  3       EATOM=  -12.4884
 kinetic energy error for atom=    0.0020 (will be added to EATOM!!)
 
 
 POSCAR: C O H
  positions in direct lattice
  velocities in cartesian coordinates
 exchange correlation table for  LEXCH =        8
   RHO(1)=    0.500       N(1)  =     2000
   RHO(2)=  100.500       N(2)  =     4000
 


--------------------------------------------------------------------------------------------------------


 ion  position               nearest neighbor table
   1  0.498  0.523  0.500-  16 1.09   2 1.40   6 1.40
   2  0.464  0.530  0.500-  15 1.09   3 1.40   1 1.40
   3  0.441  0.504  0.500-  14 1.09   2 1.40   4 1.40
   4  0.452  0.470  0.500-  13 1.09   5 1.39   3 1.40
   5  0.486  0.463  0.500-  12 1.09   4 1.39   6 1.41
   6  0.510  0.490  0.500-   8 1.37   1 1.40   5 1.41
   7  0.567  0.506  0.500-  11 1.09   9 1.10  10 1.10   8 1.44
   8  0.543  0.480  0.500-   6 1.37   7 1.44
   9  0.565  0.522  0.477-   7 1.10
  10  0.565  0.522  0.523-   7 1.10
  11  0.592  0.494  0.500-   7 1.09
  12  0.496  0.438  0.500-   5 1.09
  13  0.434  0.450  0.500-   4 1.09
  14  0.414  0.509  0.500-   3 1.09
  15  0.456  0.555  0.500-   2 1.09
  16  0.516  0.544  0.500-   1 1.09
 
  LATTYP: Found a simple cubic cell.
 ALAT       =    40.0000000000
  
  Lattice vectors:
  
 A1 = (  40.0000000000,   0.0000000000,   0.0000000000)
 A2 = (   0.0000000000,  40.0000000000,   0.0000000000)
 A3 = (   0.0000000000,   0.0000000000,  40.0000000000)


Analysis of symmetry for initial positions (statically):
=====================================================================
 Subroutine PRICEL returns:
 Original cell was already a primitive cell.
 

 Routine SETGRP: Setting up the symmetry group for a 
 simple cubic supercell.


 Subroutine GETGRP returns: Found  2 space group operations
 (whereof  2 operations were pure point group operations)
 out of a pool of 48 trial point group operations.


The static configuration has the point symmetry C_1h.


Analysis of symmetry for dynamics (positions and initial velocities):
=====================================================================
 Subroutine PRICEL returns:
 Original cell was already a primitive cell.
 

 Routine SETGRP: Setting up the symmetry group for a 
 simple cubic supercell.


 Subroutine GETGRP returns: Found  2 space group operations
 (whereof  2 operations were pure point group operations)
 out of a pool of 48 trial point group operations.


The dynamic configuration has the point symmetry C_1h.


Analysis of constrained symmetry for selective dynamics:
=====================================================================
 Subroutine PRICEL returns:
 Original cell was already a primitive cell.
 

 Routine SETGRP: Setting up the symmetry group for a 
 simple cubic supercell.


 Subroutine GETGRP returns: Found  2 space group operations
 (whereof  2 operations were pure point group operations)
 out of a pool of 48 trial point group operations.


The constrained configuration has the point symmetry C_1h.


Analysis of structural, dynamic, and magnetic symmetry:
=====================================================================
 Subroutine PRICEL returns:
 Original cell was already a primitive cell.
 

 Routine SETGRP: Setting up the symmetry group for a 
 simple cubic supercell.


 Subroutine GETGRP returns: Found  2 space group operations
 (whereof  2 operations were pure point group operations)
 out of a pool of 48 trial point group operations.


The overall configuration has the point symmetry C_1h.


 Subroutine INISYM returns: Found  2 space group operations
 (whereof  2 operations are pure point group operations),
 and found     1 'primitive' translations


----------------------------------------------------------------------------------------

                                     Primitive cell                                     

  volume of cell :   64000.0000

  direct lattice vectors                    reciprocal lattice vectors
    40.000000000  0.000000000  0.000000000     0.025000000  0.000000000  0.000000000
     0.000000000 40.000000000  0.000000000     0.000000000  0.025000000  0.000000000
     0.000000000  0.000000000 40.000000000     0.000000000  0.000000000  0.025000000

  length of vectors
    40.000000000 40.000000000 40.000000000     0.025000000  0.025000000  0.025000000

  position of ions in fractional coordinates (direct lattice)
     0.498491107  0.523037406  0.499999000
     0.464077020  0.529542708  0.499999000
     0.440811024  0.503519290  0.500000000
     0.452269488  0.470386584  0.500001000
     0.486405200  0.463451260  0.500001000
     0.509685275  0.489781457  0.500000000
     0.567456831  0.506397817  0.500000000
     0.542677813  0.480406458  0.500000000
     0.565372405  0.522116030  0.477495984
     0.565371405  0.522116030  0.522504016
     0.591643772  0.493581706  0.500001000
     0.495600995  0.437778367  0.500002000
     0.434454940  0.449727098  0.500002000
     0.414076777  0.508874631  0.500000000
     0.455529734  0.555462139  0.499998000
     0.516076215  0.543821017  0.499998000

  ion indices of the primitive-cell ions
   primitive index   ion index
                 1           1
                 2           2
                 3           3
                 4           4
                 5           5
                 6           6
                 7           7
                 8           8
                 9           9
                10          10
                11          11
                12          12
                13          13
                14          14
                15          15
                16          16

----------------------------------------------------------------------------------------

 
 
 KPOINTS: K-Point Grid                            

Automatic generation of k-mesh.
 Grid dimensions read from file:
 generate k-points for:    1    1    1

 Generating k-lattice:

  Cartesian coordinates                     Fractional coordinates (reciprocal lattice)
     0.025000000  0.000000000  0.000000000     1.000000000  0.000000000  0.000000000
     0.000000000  0.025000000  0.000000000     0.000000000  1.000000000  0.000000000
     0.000000000  0.000000000  0.025000000     0.000000000  0.000000000  1.000000000

  Length of vectors
     0.025000000  0.025000000  0.025000000

  Shift w.r.t. Gamma in fractional coordinates (k-lattice)
     0.000000000  0.000000000  0.000000000

 
 Subroutine IBZKPT returns following result:
 ===========================================
 
 Found      1 irreducible k-points:
 
 Following reciprocal coordinates:
            Coordinates               Weight
  0.000000  0.000000  0.000000      1.000000
 
 Following cartesian coordinates:
            Coordinates               Weight
  0.000000  0.000000  0.000000      1.000000
 
 
 Subroutine IBZKPT_HF returns following result:
 ==============================================
 
 Found      1 k-points in 1st BZ
 the following      1 k-points will be used (e.g. in the exchange kernel)
 Following reciprocal coordinates:   # in IRBZ
  0.000000  0.000000  0.000000    1.00000000   1 t-inv F


--------------------------------------------------------------------------------------------------------




 Dimension of arrays:
   k-points           NKPTS =      1   k-points in BZ     NKDIM =      1   number of bands    NBANDS=     39
   number of dos      NEDOS =    301   number of ions     NIONS =     16
   non local maximal  LDIM  =      4   non local SUM 2l+1 LMDIM =      8
   total plane-waves  NPLWV = ******
   max r-space proj   IRMAX =   2915   max aug-charges    IRDMAX=   5350
   dimension x,y,z NGX =   294 NGY =  294 NGZ =  294
   dimension x,y,z NGXF=   588 NGYF=  588 NGZF=  588
   support grid    NGXF=   588 NGYF=  588 NGZF=  588
   ions per type =               7   1   8
   NGX,Y,Z   is equivalent  to a cutoff of  12.22, 12.22, 12.22 a.u.
   NGXF,Y,Z  is equivalent  to a cutoff of  24.44, 24.44, 24.44 a.u.

 SYSTEM =  060_red                                 
 POSCAR =  C O H                                   

 Startparameter for this run:
   NWRITE =      2    write-flag & timer
   PREC   = accura    normal or accurate (medium, high low for compatibility)
   ISTART =      1    job   : 0-new  1-cont  2-samecut
   ICHARG =      2    charge: 1-file 2-atom 10-const
   ISPIN  =      2    spin polarized calculation?
   LNONCOLLINEAR =      F non collinear calculations
   LSORBIT =      F    spin-orbit coupling
   INIWAV =      1    electr: 0-lowe 1-rand  2-diag
   LASPH  =      F    aspherical Exc in radial PAW
 Electronic Relaxation 1
   ENCUT  =  500.0 eV  36.75 Ry    6.06 a.u.  72.93 72.93 72.93*2*pi/ulx,y,z
   ENINI  =  500.0     initial cutoff
   ENAUG  =  644.9 eV  augmentation charge cutoff
   NELM   =    500;   NELMIN=  2; NELMDL=  0     # of ELM steps 
   EDIFF  = 0.1E-04   stopping-criterion for ELM
   LREAL  =      T    real-space projection
   NLSPLINE    = F    spline interpolate recip. space projectors
   LCOMPAT=      F    compatible to vasp.4.4
   GGA_COMPAT  = T    GGA compatible to vasp.4.4-vasp.4.6
   LMAXPAW     = -100 max onsite density
   LMAXMIX     =    2 max onsite mixed and CHGCAR
   VOSKOWN=      0    Vosko Wilk Nusair interpolation
   ROPT   =   -0.00025  -0.00025  -0.00025
 Ionic relaxation
   EDIFFG = -.2E-01   stopping-criterion for IOM
   NSW    =      0    number of steps for IOM
   NBLOCK =      1;   KBLOCK =      1    inner block; outer block 
   IBRION =     -1    ionic relax: 0-MD 1-quasi-New 2-CG
   NFREE  =      1    steps in history (QN), initial steepest desc. (CG)
   ISIF   =      2    stress and relaxation
   IWAVPR =     10    prediction:  0-non 1-charg 2-wave 3-comb
   ISYM   =      3    0-nonsym 1-usesym 2-fastsym
   LCORR  =      T    Harris-Foulkes like correction to forces

   POTIM  = 0.5000    time-step for ionic-motion
   TEIN   =    0.0    initial temperature
   TEBEG  =    0.0;   TEEND  =   0.0 temperature during run
   SMASS  =  -3.00    Nose mass-parameter (am)
   estimated Nose-frequenzy (Omega)   =  0.10E-29 period in steps = 0.13E+47 mass=  -0.366E-25a.u.
   SCALEE = 1.0000    scale energy and forces
   NPACO  =    256;   APACO  = 10.0  distance and # of slots for P.C.
   PSTRESS=    0.0 pullay stress

  Mass of Ions in am
   POMASS =  12.01 16.00  1.00
  Ionic Valenz
   ZVAL   =   4.00  6.00  1.00
  Atomic Wigner-Seitz radii
   RWIGS  =  -1.00 -1.00 -1.00
  virtual crystal weights 
   VCA    =   1.00  1.00  1.00
   NELECT =      42.0000    total number of electrons
   NUPDOWN=      -1.0000    fix difference up-down

 DOS related values:
   EMIN   =  10.00;   EMAX   =-10.00  energy-range for DOS
   EFERMI =   0.00;   METHOD = LEGACY      
   ISMEAR =     0;   SIGMA  =   0.05  broadening in eV -4-tet -1-fermi 0-gaus

 Electronic relaxation 2 (details)
   IALGO  =     53    algorithm
   LDIAG  =      F    sub-space diagonalisation (order eigenvalues)
   LSUBROT=      F    optimize rotation matrix (better conditioning)
   TURBO    =      0    0=normal 1=particle mesh
   IRESTART =      0    0=no restart 2=restart with 2 vectors
   NREBOOT  =      0    no. of reboots
   NMIN     =      0    reboot dimension
   EREF     =   0.00    reference energy to select bands
   IMIX   =      4    mixing-type and parameters
     AMIX     =   0.40;   BMIX     =  1.00
     AMIX_MAG =   1.60;   BMIX_MAG =  1.00
     AMIN     =   0.10
     WC   =   100.;   INIMIX=   1;  MIXPRE=   1;  MAXMIX= -45

 Intra band minimization:
   WEIMIN = 0.0000     energy-eigenvalue tresh-hold
   EBREAK =  0.64E-07  absolut break condition
   DEPER  =   0.30     relativ break condition  

   TIME   =   0.40     timestep for ELM

  volume/ion in A,a.u.               =    4000.00     26993.33
  Fermi-wavevector in a.u.,A,eV,Ry     =   0.142265  0.268842  0.275373  0.020239
  Thomas-Fermi vector in A             =   0.804272
 
 Write flags
   LWAVE        =      T    write WAVECAR
   LDOWNSAMPLE  =      F    k-point downsampling of WAVECAR
   LCHARG       =      F    write CHGCAR
   LVTOT        =      F    write LOCPOT, total local potential
   LVHAR        =      F    write LOCPOT, Hartree potential only
   LELF         =      F    write electronic localiz. function (ELF)
   LORBIT       =      0    0 simple, 1 ext, 2 COOP (PROOUT), +10 PAW based schemes


 Dipole corrections
   LMONO  =      F    monopole corrections only (constant potential shift)
   LDIPOL =      F    correct potential (dipole corrections)
   IDIPOL =      0    1-x, 2-y, 3-z, 4-all directions 
   EPSILON=  1.0000000 bulk dielectric constant

 Exchange correlation treatment:
   GGA     =    --    GGA type
   LEXCH   =     8    internal setting for exchange type
   LIBXC   =     F    Libxc                    
   VOSKOWN =     0    Vosko Wilk Nusair interpolation
   EXXOEP  =     0    0=HF, 1=EXX-LHF (local Hartree Fock) 2=EXX OEP
   LHFCALC =     T    Hartree Fock is set to
   LSYMGRAD=     F    symmetrize gradient (conserves proper symmetry)
   PRECFOCK=normal    Normal, Fast or Accurate (Low or Medium for compatibility)
   LRHFCALC=     F    long range Hartree Fock
   LRSCOR  =     F    long range correlation only (use DFT for short range part)
   LTHOMAS =     F    Thomas Fermi screening in HF
   LMODELHF=     F    short range full HF, long range fraction AEXX
   FOCKCORR=     1    mode to apply convergence corrections
   LFOCKACE=     F    use Adeptively-Compressed-Exchange operator
   ENCUT4O =  -1.0   cutoff for four orbital integrals eV
   LMAXFOCK=     4    L truncation for augmentation on plane wave grid
   LMAXFOCKAE=  -1    L truncation for all-electron charge restoration on plane wave grid
   NMAXFOCKAE=   1    number of basis functions for all-electron charge restoration
   LFOCKAEDFT=     F  apply the AE augmentation even for DFT
   NKREDX  =     1    reduce k-point grid by
   NKREDY  =     1    reduce k-point grid by
   NKREDZ  =     1    reduce k-point grid by
   SHIFTRED=     F    shift reduced grid of Gamma
   HFKIDENT=     F    idential grid for each k-point
   ODDONLY =     F    use only odd q-grid points
   EVENONLY=     F    use only even q-grid points
   HFALPHA =   -1.0000 decay constant for conv. correction
   MCALPHA =    0.0000 extent of test-charge in conv. correction in multipole expansion
   AEXX    =    0.2500 exact exchange contribution
   HFSCREEN=    0.2000 screening length (either q_TF or 0.3 A-1)
   HFSCREENC=   0.2000 screening length for correlation (either q_TF or 0.3 A-1)
   HFRCUT  =    0.0000 spherical cutoff for potential kernel
   ALDAX   =    0.7500 LDA exchange part
   AGGAX   =    0.7500 GGA exchange part
   ALDAC   =    1.0000 LDA correlation
   AGGAC   =    1.0000 GGA correlation
   ENCUTFOCK=  -1.0 apply spherical cutoff to Coloumb kernel
   NBANDSGWLOW=     1    first orbital included in HF term
   NBLOCK_FOCK=    64    blocking factor in FOCK_ACC

 Linear response parameters
   LEPSILON=     F    determine dielectric tensor
   LRPA    =     F    only Hartree local field effects (RPA)
   LNABLA  =     F    use nabla operator in PAW spheres
   LVEL    =     F    velocity operator in full k-point grid
   CSHIFT  =0.1000    complex shift for real part using Kramers Kronig
   OMEGAMAX=  -1.0    maximum frequency
   DEG_THRESHOLD= 0.2000000E-02 threshold for treating states as degnerate
   RTIME   =   -0.100 relaxation time in fs
  (WPLASMAI=    0.000 imaginary part of plasma frequency in eV, 0.658/RTIME)
   DFIELD  = 0.0000000 0.0000000 0.0000000 field for delta impulse in time
 
  Optional k-point grid parameters
   LKPOINTS_OPT  =     F    use optional k-point grid
   KPOINTS_OPT_MODE=     1    mode for optional k-point grid
 
 Orbital magnetization related:
   ORBITALMAG=     F  switch on orbital magnetization
   LCHIMAG   =     F  perturbation theory with respect to B field
   DQ        =  0.001000  dq finite difference perturbation B field
   LLRAUG    =     F  two centre corrections for induced B field
   LBONE     =     F  B-component reconstruction in AE one-centre
   LVGVCALC  =     T  calculate vGv susceptibility
   LVGVAPPL  =     F  apply vGv susceptibility instead of pGv for G=0

 Random number generation:
   RANDOM_GENERATOR = DEFAULT
   PCG_SEED         = not used
 Solvation model:
   LSOL    =     T         switch on solvation model
   EB_K    = 35.688000     relative permittivity of the bulk solvent
   SIGMA_K =  0.600000     width of the dielectric cavity
   NC_K    =  0.002500     cutoff charge density
   TAU     =  0.000000     cavity surface tension
   LAMBDA_D_K    =  3.040000     Debye length in Angstroms
   LRHOB     =     F     write boundcharge  density
   LRHOION     =     F     write ioniccharge density



--------------------------------------------------------------------------------------------------------


 Static calculation
 charge density and potential will be updated during run
 spin polarized calculation
 Conjugate gradient for all bands (Kresse, et al. variant)
 perform Loewdin sub-space diagonalisation
    ordering is kept fixed
    before iterative eigenvector-optimisation
 modified Broyden-mixing scheme, WC =      100.0
 initial mixing is a Kerker type mixing with AMIX =  0.4000 and BMIX =      1.0000
 Hartree-type preconditioning will be used
 using additional bands           18
 real space projection scheme for non local part
 use partial core corrections
 no Harris-corrections to forces 
 use gradient corrections 
 use of overlap-Matrix (Vanderbilt PP)
 Gauss-broadening in eV      SIGMA  =   0.05


--------------------------------------------------------------------------------------------------------


  energy-cutoff  :      500.00
  volume of cell :    64000.00
      direct lattice vectors                 reciprocal lattice vectors
    40.000000000  0.000000000  0.000000000     0.025000000  0.000000000  0.000000000
     0.000000000 40.000000000  0.000000000     0.000000000  0.025000000  0.000000000
     0.000000000  0.000000000 40.000000000     0.000000000  0.000000000  0.025000000

  length of vectors
    40.000000000 40.000000000 40.000000000     0.025000000  0.025000000  0.025000000


 
 old parameters found on file WAVECAR:
  energy-cutoff  :      500.00
  volume of cell :    64000.00
      direct lattice vectors                 reciprocal lattice vectors
    40.000000000  0.000000000  0.000000000     0.025000000  0.000000000  0.000000000
     0.000000000 40.000000000  0.000000000     0.000000000  0.025000000  0.000000000
     0.000000000  0.000000000 40.000000000     0.000000000  0.000000000  0.025000000

  length of vectors

 
 k-points in units of 2pi/SCALE and weight: K-Point Grid                            
   0.00000000  0.00000000  0.00000000       1.000
 
 k-points in reciprocal lattice and weights: K-Point Grid                            
   0.00000000  0.00000000  0.00000000       1.000
 
 position of ions in fractional coordinates (direct lattice) 
   0.49849111  0.52303741  0.49999900
   0.46407702  0.52954271  0.49999900
   0.44081102  0.50351929  0.50000000
   0.45226949  0.47038658  0.50000100
   0.48640520  0.46345126  0.50000100
   0.50968527  0.48978146  0.50000000
   0.56745683  0.50639782  0.50000000
   0.54267781  0.48040646  0.50000000
   0.56537241  0.52211603  0.47749598
   0.56537141  0.52211603  0.52250402
   0.59164377  0.49358171  0.50000100
   0.49560100  0.43777837  0.50000200
   0.43445494  0.44972710  0.50000200
   0.41407678  0.50887463  0.50000000
   0.45552973  0.55546214  0.49999800
   0.51607621  0.54382102  0.49999800
 
 position of ions in cartesian coordinates  (Angst):
  19.93964427 20.92149625 19.99996000
  18.56308080 21.18170834 19.99996000
  17.63244096 20.14077160 20.00000000
  18.09077952 18.81546338 20.00004000
  19.45620800 18.53805040 20.00004000
  20.38741099 19.59125826 20.00000000
  22.69827324 20.25591269 20.00000000
  21.70711252 19.21625833 20.00000000
  22.61489621 20.88464118 19.09983938
  22.61485621 20.88464118 20.90016062
  23.66575087 19.74326825 20.00004000
  19.82403981 17.51113469 20.00008000
  17.37819759 17.98908393 20.00008000
  16.56307106 20.35498525 20.00000000
  18.22118935 22.21848557 19.99992000
  20.64304860 21.75284070 19.99992000
 


--------------------------------------------------------------------------------------------------------


 k-point   1 :   0.0000 0.0000 0.0000  plane waves: 1624525

 maximum and minimum number of plane-waves per node :     54169    54136

 maximum number of plane-waves:   1624525
 maximum index in each direction: 
   IXMAX=   72   IYMAX=   72   IZMAX=   72
   IXMIN=  -72   IYMIN=  -72   IZMIN=  -72


 real space projection operators:
  total allocation   :       1786.34 KBytes
  max/ min on nodes  :         78.60         45.30


 parallel 3D FFT for wavefunctions:
    minimum data exchange during FFTs selected (reduces bandwidth)
 parallel 3D FFT for charge:
    minimum data exchange during FFTs selected (reduces bandwidth)


 FFT grid for exact exchange (Hartree Fock) 
  NGX =224; NGY =224; NGZ =224

 
 Radii for the augmentation spheres in the non-local exchange
 for species   1 augmentation radius   0.874 (default was   0.699)
       energy cutoff for augmentation   2000.0
 for species   2 augmentation radius   0.902 (default was   0.722)
       energy cutoff for augmentation   2000.0
 for species   3 augmentation radius   0.650 (default was   0.520)
       energy cutoff for augmentation   2000.0

 real space projection operators:
  total allocation   :        393.47 KBytes
  max/ min on nodes  :         21.23          4.85

 Maximum index for augmentation-charges in exchange           74
  SETUP_FOCK is finished

 total amount of memory used by VASP MPI-rank0   510615. kBytes
=======================================================================

   base      :      30000. kBytes
   nonlr-proj:       1014. kBytes
   fftplans  :     129164. kBytes
   grid      :     282813. kBytes
   one-center:          6. kBytes
   HF        :          4. kBytes
   wavefun   :      67614. kBytes
 
     INWAV:  cpu time     11.6544: real time     11.6545
 Broyden mixing: mesh for mixing (old mesh)
   NGX =145   NGY =145   NGZ =145
  (NGX  =588   NGY  =588   NGZ  =588)
  gives a total of ****** points

 initial charge density was supplied:
 charge density of overlapping atoms calculated
 number of electron      42.0000000 magnetization      16.0000000
 charge density for first step will be calculated from the start-wavefunctions


--------------------------------------------------------------------------------------------------------


 Maximum index for non-local projection operator          231
 Maximum index for augmentation-charges          308 (set IRDMAX)


--------------------------------------------------------------------------------------------------------


 initial charge from wavefunction
 First call to EWALD:  gamma=   0.044
 Maximum number of real-space cells 3x 3x 3
 Maximum number of reciprocal cells 3x 3x 3

    FEWALD:  cpu time      0.0044: real time      0.0044


--------------------------------------- Ionic step        1  -------------------------------------------




--------------------------------------- Iteration      1(   1)  ---------------------------------------


    POTLOK:  cpu time    365.2262: real time    365.2426
    SETDIJ:  cpu time      0.1490: real time      0.1490
    TRIAL :  cpu time    142.5097: real time    142.5092
    CORREC:  cpu time      0.0092: real time      0.0092
    CHARGE:  cpu time      2.4280: real time      2.4280
    --------------------------------------------
      LOOP:  cpu time    510.3706: real time    510.3868

 eigenvalue-minimisations  :     0
 total energy-change (2. order) :-0.1149186E+03  (-0.1048357E+00)
 number of electron      42.0000002 magnetization       0.0000000
 augmentation part        1.4732653 magnetization       0.0000008

 Free energy of the ion-electron system (eV)
  ---------------------------------------------------
  alpha Z        PSCENC =         0.12232839
  Ewald energy   TEWEN  =      3963.78266781
  -Hartree energ DENC   =     -5241.68637451
  -exchange      EXHF   =        96.93941066
  -V(xc)+E(xc)   XCENC  =       112.46418696
  PAW double counting   =      3494.70316160    -3499.29703504
  entropy T*S    EENTRO =        -0.00000000
  eigenvalues    EBANDS =      -589.90383870
  atomic energy  EATOM  =      1543.11258219
  ---------------------------------------------------
  free energy    TOTEN  =      -114.91863312 eV

  energy without entropy =     -114.91863312  energy(sigma->0) =     -114.91863312
  exchange ACFDT corr.  =        -0.00000000  see jH, gK, PRB 81, 115126


--------------------------------------------------------------------------------------------------------




--------------------------------------- Iteration      1(   2)  ---------------------------------------


    POTLOK:  cpu time    310.2131: real time    310.2069
    SETDIJ:  cpu time      0.1199: real time      0.1199
    TRIAL :  cpu time    146.4423: real time    146.4396
    CORREC:  cpu time      0.0134: real time      0.0134
    CHARGE:  cpu time      2.3761: real time      2.3761
    --------------------------------------------
      LOOP:  cpu time    459.2044: real time    459.2053

 eigenvalue-minimisations  :     0
 total energy-change (2. order) :-0.7731961E-01  (-0.5357880E-01)
 number of electron      42.0000002 magnetization       0.0000000
 augmentation part        1.4673095 magnetization       0.0000013

 Free energy of the ion-electron system (eV)
  ---------------------------------------------------
  alpha Z        PSCENC =         0.12232839
  Ewald energy   TEWEN  =      3963.78266781
  -Hartree energ DENC   =     -5243.06624319
  -exchange      EXHF   =        97.03838899
  -V(xc)+E(xc)   XCENC  =       112.49020977
  PAW double counting   =      3573.85568473    -3578.40190266
  entropy T*S    EENTRO =        -0.00000000
  eigenvalues    EBANDS =      -589.39413304
  atomic energy  EATOM  =      1543.11258219
  ---------------------------------------------------
  free energy    TOTEN  =      -114.99595273 eV

  energy without entropy =     -114.99595273  energy(sigma->0) =     -114.99595273
  exchange ACFDT corr.  =         0.00000000  see jH, gK, PRB 81, 115126


--------------------------------------------------------------------------------------------------------




--------------------------------------- Iteration      1(   3)  ---------------------------------------


    POTLOK:  cpu time    307.9264: real time    307.9168
    SETDIJ:  cpu time      0.0704: real time      0.0704
    TRIAL :  cpu time    145.8960: real time    145.8975
    CORREC:  cpu time      0.1113: real time      0.1113
    CHARGE:  cpu time      2.7622: real time      2.7621
    --------------------------------------------
      LOOP:  cpu time    456.7875: real time    456.7859

 eigenvalue-minimisations  :     0
 total energy-change (2. order) :-0.3586245E-01  (-0.1579689E-01)
 number of electron      42.0000002 magnetization       0.0000000
 augmentation part        1.4633660 magnetization       0.0000014

 Free energy of the ion-electron system (eV)
  ---------------------------------------------------
  alpha Z        PSCENC =         0.12232839
  Ewald energy   TEWEN  =      3963.78266781
  -Hartree energ DENC   =     -5242.80726158
  -exchange      EXHF   =        97.07351211
  -V(xc)+E(xc)   XCENC  =       112.46409634
  PAW double counting   =      3655.83327549    -3660.33358639
  entropy T*S    EENTRO =        -0.00000000
  eigenvalues    EBANDS =      -590.11347476
  atomic energy  EATOM  =      1543.11258219
  ---------------------------------------------------
  free energy    TOTEN  =      -115.03181518 eV

  energy without entropy =     -115.03181518  energy(sigma->0) =     -115.03181518
  exchange ACFDT corr.  =         0.00000000  see jH, gK, PRB 81, 115126


--------------------------------------------------------------------------------------------------------




--------------------------------------- Iteration      1(   4)  ---------------------------------------


    POTLOK:  cpu time    292.4461: real time    292.4399
    SETDIJ:  cpu time      0.0732: real time      0.0732
    TRIAL :  cpu time    146.5134: real time    146.5113
    CORREC:  cpu time      0.0164: real time      0.0164
    CHARGE:  cpu time      2.3268: real time      2.3267
    --------------------------------------------
      LOOP:  cpu time    441.4014: real time    441.4000

 eigenvalue-minimisations  :     0
 total energy-change (2. order) :-0.9852253E-02  (-0.4241026E-02)
 number of electron      42.0000002 magnetization       0.0000000
 augmentation part        1.4622811 magnetization       0.0000012

 Free energy of the ion-electron system (eV)
  ---------------------------------------------------
  alpha Z        PSCENC =         0.12232839
  Ewald energy   TEWEN  =      3963.78266781
  -Hartree energ DENC   =     -5242.75367190
  -exchange      EXHF   =        97.09962356
  -V(xc)+E(xc)   XCENC  =       112.45394320
  PAW double counting   =      3711.12655740    -3715.59724031
  entropy T*S    EENTRO =        -0.00000000
  eigenvalues    EBANDS =      -590.30752499
  atomic energy  EATOM  =      1543.11258219
  ---------------------------------------------------
  free energy    TOTEN  =      -115.04166743 eV

  energy without entropy =     -115.04166743  energy(sigma->0) =     -115.04166743
  exchange ACFDT corr.  =        -0.00000000  see jH, gK, PRB 81, 115126


--------------------------------------------------------------------------------------------------------




--------------------------------------- Iteration      1(   5)  ---------------------------------------


    POTLOK:  cpu time    297.3597: real time    297.3503
    SETDIJ:  cpu time      0.0688: real time      0.0688
    TRIAL :  cpu time    146.7841: real time    146.7794
    CORREC:  cpu time      0.0090: real time      0.0090
    CHARGE:  cpu time      2.3291: real time      2.3290
    --------------------------------------------
      LOOP:  cpu time    446.5659: real time    446.5584

 eigenvalue-minimisations  :     0
 total energy-change (2. order) :-0.2600491E-02  (-0.1542592E-02)
 number of electron      42.0000002 magnetization       0.0000000
 augmentation part        1.4624614 magnetization       0.0000010

 Free energy of the ion-electron system (eV)
  ---------------------------------------------------
  alpha Z        PSCENC =         0.12232839
  Ewald energy   TEWEN  =      3963.78266781
  -Hartree energ DENC   =     -5243.22300294
  -exchange      EXHF   =        97.13168595
  -V(xc)+E(xc)   XCENC  =       112.46813007
  PAW double counting   =      3739.45757590    -3743.91650689
  entropy T*S    EENTRO =        -0.00000000
  eigenvalues    EBANDS =      -589.88607620
  atomic energy  EATOM  =      1543.11258219
  ---------------------------------------------------
  free energy    TOTEN  =      -115.04426792 eV

  energy without entropy =     -115.04426792  energy(sigma->0) =     -115.04426792
  exchange ACFDT corr.  =        -0.00000000  see jH, gK, PRB 81, 115126


--------------------------------------------------------------------------------------------------------




--------------------------------------- Iteration      1(   6)  ---------------------------------------


    POTLOK:  cpu time    280.5959: real time    280.5904
    SETDIJ:  cpu time      0.0695: real time      0.0695
    TRIAL :  cpu time    145.7160: real time    145.7136
    CORREC:  cpu time      0.0059: real time      0.0059
    CHARGE:  cpu time      2.7792: real time      2.7792
    --------------------------------------------
      LOOP:  cpu time    429.1887: real time    429.1859

 eigenvalue-minimisations  :     0
 total energy-change (2. order) :-0.1015415E-02  (-0.7795688E-03)
 number of electron      42.0000002 magnetization       0.0000000
 augmentation part        1.4627835 magnetization       0.0000008

 Free energy of the ion-electron system (eV)
  ---------------------------------------------------
  alpha Z        PSCENC =         0.12232839
  Ewald energy   TEWEN  =      3963.78266781
  -Hartree energ DENC   =     -5243.49208428
  -exchange      EXHF   =        97.14947481
  -V(xc)+E(xc)   XCENC  =       112.47947118
  PAW double counting   =      3749.73919806    -3754.19670746
  entropy T*S    EENTRO =        -0.00000000
  eigenvalues    EBANDS =      -589.61733779
  atomic energy  EATOM  =      1543.11258219
  ---------------------------------------------------
  free energy    TOTEN  =      -115.04528333 eV

  energy without entropy =     -115.04528333  energy(sigma->0) =     -115.04528333
  exchange ACFDT corr.  =         0.00000000  see jH, gK, PRB 81, 115126


--------------------------------------------------------------------------------------------------------




--------------------------------------- Iteration      1(   7)  ---------------------------------------


    POTLOK:  cpu time    285.6864: real time    285.6803
    SETDIJ:  cpu time      0.0696: real time      0.0696
    TRIAL :  cpu time    146.9524: real time    146.9496
    CORREC:  cpu time      0.0045: real time      0.0045
    CHARGE:  cpu time      2.9591: real time      2.9590
    --------------------------------------------
      LOOP:  cpu time    435.6935: real time    435.6907

 eigenvalue-minimisations  :     0
 total energy-change (2. order) :-0.5672210E-03  (-0.4240207E-03)
 number of electron      42.0000002 magnetization       0.0000000
 augmentation part        1.4630319 magnetization       0.0000007

 Free energy of the ion-electron system (eV)
  ---------------------------------------------------
  alpha Z        PSCENC =         0.12232839
  Ewald energy   TEWEN  =      3963.78266781
  -Hartree energ DENC   =     -5243.47011258
  -exchange      EXHF   =        97.15269921
  -V(xc)+E(xc)   XCENC  =       112.48186574
  PAW double counting   =      3750.38518802    -3754.84446914
  entropy T*S    EENTRO =        -0.00000000
  eigenvalues    EBANDS =      -589.61987064
  atomic energy  EATOM  =      1543.11258219
  ---------------------------------------------------
  free energy    TOTEN  =      -115.04585056 eV

  energy without entropy =     -115.04585056  energy(sigma->0) =     -115.04585056
  exchange ACFDT corr.  =         0.00000000  see jH, gK, PRB 81, 115126


--------------------------------------------------------------------------------------------------------




--------------------------------------- Iteration      1(   8)  ---------------------------------------


    POTLOK:  cpu time    277.7359: real time    277.7271
    SETDIJ:  cpu time      0.0715: real time      0.0715
    TRIAL :  cpu time    146.7845: real time    146.7816
    CORREC:  cpu time      0.0037: real time      0.0037
    CHARGE:  cpu time      2.4029: real time      2.4029
    --------------------------------------------
      LOOP:  cpu time    427.0183: real time    427.0145

 eigenvalue-minimisations  :     0
 total energy-change (2. order) :-0.3184614E-03  (-0.2072444E-03)
 number of electron      42.0000002 magnetization       0.0000000
 augmentation part        1.4632387 magnetization       0.0000006

 Free energy of the ion-electron system (eV)
  ---------------------------------------------------
  alpha Z        PSCENC =         0.12232839
  Ewald energy   TEWEN  =      3963.78266781
  -Hartree energ DENC   =     -5243.39358894
  -exchange      EXHF   =        97.15106371
  -V(xc)+E(xc)   XCENC  =       112.48129444
  PAW double counting   =      3747.12735228    -3751.58880448
  entropy T*S    EENTRO =        -0.00000000
  eigenvalues    EBANDS =      -589.68314464
  atomic energy  EATOM  =      1543.11258219
  ---------------------------------------------------
  free energy    TOTEN  =      -115.04616902 eV

  energy without entropy =     -115.04616902  energy(sigma->0) =     -115.04616902
  exchange ACFDT corr.  =        -0.00000000  see jH, gK, PRB 81, 115126


--------------------------------------------------------------------------------------------------------




--------------------------------------- Iteration      1(   9)  ---------------------------------------


    POTLOK:  cpu time    268.3465: real time    268.3397
    SETDIJ:  cpu time      0.0715: real time      0.0715
    TRIAL :  cpu time    147.3729: real time    147.3680
    CORREC:  cpu time      0.0017: real time      0.0017
    CHARGE:  cpu time      2.5927: real time      2.5926
    --------------------------------------------
      LOOP:  cpu time    418.4033: real time    418.4002

 eigenvalue-minimisations  :     0
 total energy-change (2. order) :-0.1582601E-03  (-0.9498251E-04)
 number of electron      42.0000002 magnetization       0.0000000
 augmentation part        1.4633898 magnetization       0.0000005

 Free energy of the ion-electron system (eV)
  ---------------------------------------------------
  alpha Z        PSCENC =         0.12232839
  Ewald energy   TEWEN  =      3963.78266781
  -Hartree energ DENC   =     -5243.37024160
  -exchange      EXHF   =        97.14981175
  -V(xc)+E(xc)   XCENC  =       112.48123176
  PAW double counting   =      3743.23829631    -3747.70163071
  entropy T*S    EENTRO =        -0.00000000
  eigenvalues    EBANDS =      -589.70359673
  atomic energy  EATOM  =      1543.11258219
  ---------------------------------------------------
  free energy    TOTEN  =      -115.04632728 eV

  energy without entropy =     -115.04632728  energy(sigma->0) =     -115.04632728
  exchange ACFDT corr.  =        -0.00000000  see jH, gK, PRB 81, 115126


--------------------------------------------------------------------------------------------------------




--------------------------------------- Iteration      1(  10)  ---------------------------------------


    POTLOK:  cpu time    248.4010: real time    248.3992
    SETDIJ:  cpu time      0.0888: real time      0.0888
    TRIAL :  cpu time    147.2935: real time    147.2927
    CORREC:  cpu time      0.0584: real time      0.0584
    CHARGE:  cpu time      2.4342: real time      2.4341
    --------------------------------------------
      LOOP:  cpu time    398.2985: real time    398.3012

 eigenvalue-minimisations  :     0
 total energy-change (2. order) :-0.7446254E-04  (-0.4664734E-04)
 number of electron      42.0000002 magnetization       0.0000000
 augmentation part        1.4634795 magnetization       0.0000004

 Free energy of the ion-electron system (eV)
  ---------------------------------------------------
  alpha Z        PSCENC =         0.12232839
  Ewald energy   TEWEN  =      3963.78266781
  -Hartree energ DENC   =     -5243.37261381
  -exchange      EXHF   =        97.14927423
  -V(xc)+E(xc)   XCENC  =       112.48147730
  PAW double counting   =      3740.21763073    -3744.68229537
  entropy T*S    EENTRO =        -0.00000000
  eigenvalues    EBANDS =      -589.70091497
  atomic energy  EATOM  =      1543.11258219
  ---------------------------------------------------
  free energy    TOTEN  =      -115.04640174 eV

  energy without entropy =     -115.04640174  energy(sigma->0) =     -115.04640174
  exchange ACFDT corr.  =         0.00000000  see jH, gK, PRB 81, 115126


--------------------------------------------------------------------------------------------------------




--------------------------------------- Iteration      1(  11)  ---------------------------------------


    POTLOK:  cpu time    253.2567: real time    253.2523
    SETDIJ:  cpu time      0.0693: real time      0.0693
    TRIAL :  cpu time    148.8895: real time    148.8868
    CORREC:  cpu time      0.0461: real time      0.0461
    CHARGE:  cpu time      2.4841: real time      2.4841
    --------------------------------------------
      LOOP:  cpu time    404.7740: real time    404.7725

 eigenvalue-minimisations  :     0
 total energy-change (2. order) :-0.3811398E-04  (-0.2621283E-04)
 number of electron      42.0000002 magnetization       0.0000000
 augmentation part        1.4635260 magnetization       0.0000004

 Free energy of the ion-electron system (eV)
  ---------------------------------------------------
  alpha Z        PSCENC =         0.12232839
  Ewald energy   TEWEN  =      3963.78266781
  -Hartree energ DENC   =     -5243.36939811
  -exchange      EXHF   =        97.14887898
  -V(xc)+E(xc)   XCENC  =       112.48145290
  PAW double counting   =      3738.44233995    -3742.90778286
  entropy T*S    EENTRO =        -0.00000000
  eigenvalues    EBANDS =      -589.70250180
  atomic energy  EATOM  =      1543.11258219
  ---------------------------------------------------
  free energy    TOTEN  =      -115.04643985 eV

  energy without entropy =     -115.04643985  energy(sigma->0) =     -115.04643985
  exchange ACFDT corr.  =        -0.00000000  see jH, gK, PRB 81, 115126


--------------------------------------------------------------------------------------------------------




--------------------------------------- Iteration      1(  12)  ---------------------------------------


    POTLOK:  cpu time    247.0298: real time    247.0226
    SETDIJ:  cpu time      0.0709: real time      0.0709
    TRIAL :  cpu time    149.5807: real time    149.5762
    CORREC:  cpu time      0.0113: real time      0.0113
    CHARGE:  cpu time      2.4394: real time      2.4393
    --------------------------------------------
      LOOP:  cpu time    399.1580: real time    399.1544

 eigenvalue-minimisations  :     0
 total energy-change (2. order) :-0.2232725E-04  (-0.1604466E-04)
 number of electron      42.0000002 magnetization       0.0000000
 augmentation part        1.4635535 magnetization       0.0000004

 Free energy of the ion-electron system (eV)
  ---------------------------------------------------
  alpha Z        PSCENC =         0.12232839
  Ewald energy   TEWEN  =      3963.78266781
  -Hartree energ DENC   =     -5243.36418868
  -exchange      EXHF   =        97.14870885
  -V(xc)+E(xc)   XCENC  =       112.48134720
  PAW double counting   =      3737.71938330    -3742.18520983
  entropy T*S    EENTRO =        -0.00000000
  eigenvalues    EBANDS =      -589.70612947
  atomic energy  EATOM  =      1543.11258219
  ---------------------------------------------------
  free energy    TOTEN  =      -115.04646218 eV

  energy without entropy =     -115.04646218  energy(sigma->0) =     -115.04646218
  exchange ACFDT corr.  =         0.00000000  see jH, gK, PRB 81, 115126


--------------------------------------------------------------------------------------------------------




--------------------------------------- Iteration      1(  13)  ---------------------------------------


    POTLOK:  cpu time    233.0499: real time    233.0449
    SETDIJ:  cpu time      0.0694: real time      0.0694
    TRIAL :  cpu time    148.7833: real time    148.7802
    CORREC:  cpu time      0.0019: real time      0.0019
    CHARGE:  cpu time      2.6286: real time      2.6286
    --------------------------------------------
      LOOP:  cpu time    384.5667: real time    384.5640

 eigenvalue-minimisations  :     0
 total energy-change (2. order) :-0.1413280E-04  (-0.1042290E-04)
 number of electron      42.0000002 magnetization       0.0000000
 augmentation part        1.4635728 magnetization       0.0000003

 Free energy of the ion-electron system (eV)
  ---------------------------------------------------
  alpha Z        PSCENC =         0.12232839
  Ewald energy   TEWEN  =      3963.78266781
  -Hartree energ DENC   =     -5243.36413348
  -exchange      EXHF   =        97.14882709
  -V(xc)+E(xc)   XCENC  =       112.48137624
  PAW double counting   =      3737.59900374    -3742.06500649
  entropy T*S    EENTRO =        -0.00000000
  eigenvalues    EBANDS =      -589.70585074
  atomic energy  EATOM  =      1543.11258219
  ---------------------------------------------------
  free energy    TOTEN  =      -115.04647631 eV

  energy without entropy =     -115.04647631  energy(sigma->0) =     -115.04647631
  exchange ACFDT corr.  =        -0.00000000  see jH, gK, PRB 81, 115126


--------------------------------------------------------------------------------------------------------




--------------------------------------- Iteration      1(  14)  ---------------------------------------


    POTLOK:  cpu time    252.3858: real time    252.3777
    SETDIJ:  cpu time      0.0704: real time      0.0704
    TRIAL :  cpu time    148.6646: real time    148.6614
    CORREC:  cpu time      0.0592: real time      0.0592
    CHARGE:  cpu time      2.6264: real time      2.6264
    --------------------------------------------
      LOOP:  cpu time    403.8498: real time    403.8440

 eigenvalue-minimisations  :     0
 total energy-change (2. order) :-0.9402009E-05  (-0.7158713E-05)
 number of electron      42.0000002 magnetization       0.0000000
 augmentation part        1.4635874 magnetization       0.0000003

 Free energy of the ion-electron system (eV)
  ---------------------------------------------------
  alpha Z        PSCENC =         0.12232839
  Ewald energy   TEWEN  =      3963.78266781
  -Hartree energ DENC   =     -5243.36689277
  -exchange      EXHF   =        97.14905660
  -V(xc)+E(xc)   XCENC  =       112.48147684
  PAW double counting   =      3737.71235374    -3742.17843506
  entropy T*S    EENTRO =        -0.00000000
  eigenvalues    EBANDS =      -589.70350795
  atomic energy  EATOM  =      1543.11258219
  ---------------------------------------------------
  free energy    TOTEN  =      -115.04648572 eV

  energy without entropy =     -115.04648572  energy(sigma->0) =     -115.04648572
  exchange ACFDT corr.  =        -0.00000000  see jH, gK, PRB 81, 115126


--------------------------------------------------------------------------------------------------------


  average scaling for gradient   1.5138


 average (electrostatic) potential at core
  the test charge radii are     0.6991  0.7215  0.5201
  (the norm of the test charge is              1.0000)
       1 -54.9640       2 -55.0278       3 -54.8110       4 -55.0194       5 -54.9197
       6 -56.5242       7 -55.8346       8 -75.0580       9 -37.7705      10 -37.7704
      11 -37.8390      12 -37.9152      13 -37.8439      14 -37.7604      15 -37.8362
      16 -38.0118
 
 
 
 E-fermi :  -5.9107     XC(G=0):  -0.0208     alpha+bet : -0.0156

 Fermi energy:        -5.9107314119

 spin component 1

 k-point     1 :       0.0000    0.0000    0.0000
  band No.  band energies     occupation 
      1     -29.3946      1.00000
      2     -23.5018      1.00000
      3     -20.7880      1.00000
      4     -20.5467      1.00000
      5     -18.9833      1.00000
      6     -16.7084      1.00000
      7     -16.1430      1.00000
      8     -14.5609      1.00000
      9     -13.1632      1.00000
     10     -13.0189      1.00000
     11     -12.6533      1.00000
     12     -12.0442      1.00000
     13     -11.4503      1.00000
     14     -11.1066      1.00000
     15     -10.3635      1.00000
     16      -9.9026      1.00000
     17      -9.6541      1.00000
     18      -8.8254      1.00000
     19      -8.8722      1.00000
     20      -7.0185      1.00000
     21      -6.1523      1.00000
     22      -0.7792      0.00000
     23      -0.3921      0.00000
     24      -0.3041      0.00000
     25       0.0028      0.00000
     26       0.0542      0.00000
     27       0.0151      0.00000
     28       0.0839      0.00000
     29       0.0986      0.00000
     30       0.0991      0.00000
     31       0.1196      0.00000
     32       0.1326      0.00000
     33       0.1300      0.00000
     34       0.1546      0.00000
     35       0.1972      0.00000
     36       0.1910      0.00000
     37       0.1910      0.00000
     38       0.1921      0.00000
     39       0.3181      0.00000
 Fermi energy:        -5.9107314119

 spin component 2

 k-point     1 :       0.0000    0.0000    0.0000
  band No.  band energies     occupation 
      1     -29.3946      1.00000
      2     -23.5018      1.00000
      3     -20.7880      1.00000
      4     -20.5467      1.00000
      5     -18.9833      1.00000
      6     -16.7084      1.00000
      7     -16.1430      1.00000
      8     -14.5609      1.00000
      9     -13.1632      1.00000
     10     -13.0189      1.00000
     11     -12.6533      1.00000
     12     -12.0442      1.00000
     13     -11.4503      1.00000
     14     -11.1066      1.00000
     15     -10.3635      1.00000
     16      -9.9026      1.00000
     17      -9.6541      1.00000
     18      -8.8254      1.00000
     19      -8.8722      1.00000
     20      -7.0185      1.00000
     21      -6.1523      1.00000
     22      -0.7792      0.00000
     23      -0.3921      0.00000
     24      -0.3041      0.00000
     25       0.0028      0.00000
     26       0.0545      0.00000
     27       0.0151      0.00000
     28       0.0838      0.00000
     29       0.0986      0.00000
     30       0.0991      0.00000
     31       0.1196      0.00000
     32       0.1327      0.00000
     33       0.1300      0.00000
     34       0.1546      0.00000
     35       0.1965      0.00000
     36       0.1912      0.00000
     37       0.1910      0.00000
     38       0.1924      0.00000
     39       0.3171      0.00000


--------------------------------------------------------------------------------------------------------


 soft charge-density along one line, spin component           1
         0         1         2         3         4         5         6         7         8         9
 total charge-density along one line
 
 soft charge-density along one line, spin component           2
         0         1         2         3         4         5         6         7         8         9
 total charge-density along one line
 
 pseudopotential strength for first ion, spin component:           1
  9.982  13.273  -0.002   0.000   0.000   0.006  -0.000   0.000
 13.273  17.647  -0.002   0.000   0.000   0.008  -0.000   0.000
 -0.002  -0.002  -4.204   0.000   0.001   8.195  -0.000  -0.002
  0.000   0.000   0.000  -4.199  -0.000  -0.000   8.190   0.000
  0.000   0.000   0.001  -0.000  -4.202  -0.002   0.000   8.192
  0.006   0.008   8.195  -0.000  -0.002 -18.092   0.000   0.003
 -0.000  -0.000  -0.000   8.190   0.000   0.000 -18.089  -0.000
  0.000   0.000  -0.002   0.000   8.192   0.003  -0.000 -18.086
 pseudopotential strength for first ion, spin component:           2
  9.982  13.273  -0.002   0.000   0.000   0.006  -0.000   0.000
 13.273  17.647  -0.002   0.000   0.000   0.008  -0.000   0.000
 -0.002  -0.002  -4.204   0.000   0.001   8.195  -0.000  -0.002
  0.000   0.000   0.000  -4.199  -0.000  -0.000   8.190   0.000
  0.000   0.000   0.001  -0.000  -4.202  -0.002   0.000   8.192
  0.006   0.008   8.195  -0.000  -0.002 -18.092   0.000   0.003
 -0.000  -0.000  -0.000   8.190   0.000   0.000 -18.089  -0.000
  0.000   0.000  -0.002   0.000   8.192   0.003  -0.000 -18.086
 total augmentation occupancy for first ion, spin component:           1
  8.887  -4.037  -0.194   0.000  -0.145  -0.042   0.000  -0.029
 -4.037   1.870   0.139  -0.000   0.088   0.026  -0.000   0.017
 -0.194   0.139   1.801  -0.000  -0.033   0.173  -0.000  -0.010
  0.000  -0.000  -0.000   1.218  -0.000  -0.000   0.077  -0.000
 -0.145   0.088  -0.033  -0.000   1.835  -0.009  -0.000   0.175
 -0.042   0.026   0.173  -0.000  -0.009   0.018  -0.000  -0.002
  0.000  -0.000  -0.000   0.077  -0.000  -0.000   0.005  -0.000
 -0.029   0.017  -0.010  -0.000   0.175  -0.002  -0.000   0.018
 total augmentation occupancy for first ion, spin component:           2
  0.000  -0.000   0.000   0.000   0.000   0.000   0.000   0.000
 -0.000   0.000  -0.000  -0.000  -0.000  -0.000  -0.000  -0.000
  0.000  -0.000  -0.000  -0.000  -0.000   0.000   0.000   0.000
  0.000  -0.000  -0.000  -0.000  -0.000   0.000  -0.000  -0.000
  0.000  -0.000  -0.000  -0.000  -0.000  -0.000   0.000  -0.000
  0.000  -0.000   0.000   0.000  -0.000   0.000  -0.000  -0.000
  0.000  -0.000   0.000  -0.000   0.000  -0.000  -0.000   0.000
  0.000  -0.000   0.000  -0.000  -0.000  -0.000   0.000  -0.000


------------------------ aborting loop because EDIFF is reached ----------------------------------------


    FORLOC:  cpu time      0.3020: real time      0.3020
    FORHF :  cpu time     80.2337: real time     80.2323
    FORNL :  cpu time      5.9827: real time      5.9827
    STRESS:  cpu time     17.6205: real time     17.6203
    FORCOR:  cpu time     13.9907: real time     13.9904
    OFIELD:  cpu time      0.0210: real time      0.0210
 WARNING: Using user supplied parameters
     VDW_A1 = 0.383
     VDW_A2 = 5.685
     VDW_S8 = 2.31
     because the xc functional is not supported. Required parameters not
     defined in the INCAR file will be replaced with PBE defaults ones.


 ---------------------------------------------------------------------------------------------

         DFTD3 V3.0 Rev 1        
 IVDW         = 12
 DF unknown   
 parameters
 VDW_S6       =    1.0000
 VDW_S8       =    2.3100
 VDW_A1       =    0.3830
 VDW_A2       =    5.6850
 k1-k3        =   16.0000    1.3333   -4.0000
 VDW_RADIUS   =   50.2022 A
 VDW_CNRADIUS =   21.1671 A
 Edisp (eV)   -0.26495

 E6    (eV) :    -0.1369
 E8    (eV) :    -0.1281
 % E8        : 48.34
    FORVDW:  cpu time      0.0085: real time      0.0085

  FORCE on cell =-STRESS in cart. coord.  units (eV):
  Direction    XX          YY          ZZ          XY          YZ          ZX
  --------------------------------------------------------------------------------------
  Alpha Z     0.12233     0.12233     0.12233
  Ewald    2591.12714  1562.32455  -189.66942    68.31052    -0.05426    -0.00722
  Hartree  2658.32560  1823.05113   761.99207    38.09046    -0.03171    -0.00381
  E(xc)    -119.82377  -120.16892  -121.70407     0.04028    -0.00005    -0.00001
  Local   -5637.73640 -3789.75958 -1048.41941  -102.64322     0.08359     0.01069
  n-local   -61.27741   -63.44728   -61.72288     0.99537    -0.00046    -0.00019
  augment     3.47258     4.75052     5.84241    -0.33348     0.00001     0.00000
  Kinetic   609.04022   626.96849   694.73783    -4.36743     0.00215     0.00031
  Fock      -46.62746   -46.71611   -43.53563     0.13455     0.00013     0.00002
  vdW        -0.12012    -0.04616    -0.00180    -0.00758     0.00000    -0.00000
  -------------------------------------------------------------------------------------
  Total      -3.49730    -2.92102    -2.35857     0.21947     0.00000     0.00000
  in kB      -0.08755    -0.07312    -0.05904     0.00549     0.00000     0.00000
  external pressure =       -0.07 kB  Pullay stress =        0.00 kB


 VOLUME and BASIS-vectors are now :
 -----------------------------------------------------------------------------
  energy-cutoff  :      500.00
  volume of cell :    64000.00
      direct lattice vectors                 reciprocal lattice vectors
    40.000000000  0.000000000  0.000000000     0.025000000  0.000000000  0.000000000
     0.000000000 40.000000000  0.000000000     0.000000000  0.025000000  0.000000000
     0.000000000  0.000000000 40.000000000     0.000000000  0.000000000  0.025000000

  length of vectors
    40.000000000 40.000000000 40.000000000     0.025000000  0.025000000  0.025000000


 FORCES acting on ions:
    Electron-Ion                     Ewald-Force                    Non-Local-Force
 -----------------------------------------------------------------------------------------------
   -.421E+02 -.173E+03 0.602E-02   0.416E+02 0.173E+03 -.607E-02   -.240E+00 -.191E+01 0.000E+00
   0.942E+02 -.184E+03 0.521E-02   -.950E+02 0.183E+03 -.521E-02   0.829E+00 -.912E+00 0.000E+00
   0.207E+03 -.375E+02 -.304E-04   -.208E+03 0.375E+02 0.235E-04   0.134E+01 -.295E+00 0.000E+00
   0.155E+03 0.141E+03 -.506E-02   -.155E+03 -.141E+03 0.504E-02   0.107E+01 0.573E+00 0.000E+00
   0.137E+02 0.195E+03 -.568E-02   -.137E+02 -.196E+03 0.572E-02   0.224E+00 0.180E+01 0.000E+00
   0.318E+01 0.142E+02 0.160E-03   -.994E+01 -.132E+02 -.151E-03   0.615E+01 -.153E+01 0.000E+00
   -.203E+03 -.954E+02 0.105E-02   0.207E+03 0.990E+02 -.956E-03   -.495E+01 -.482E+01 0.000E+00
   -.201E+03 0.205E+03 0.102E-02   0.216E+03 -.248E+03 -.862E-03   -.134E+02 0.363E+02 0.000E+00
   -.300E+02 -.488E+02 0.580E+02   0.295E+02 0.517E+02 -.624E+02   0.341E+00 -.318E+01 0.452E+01
   -.300E+02 -.488E+02 -.580E+02   0.295E+02 0.517E+02 0.624E+02   0.341E+00 -.318E+01 -.452E+01
   -.828E+02 0.207E+02 -.239E-02   0.875E+02 -.235E+02 0.253E-02   -.506E+01 0.261E+01 0.000E+00
   -.139E+02 0.874E+02 -.327E-02   0.159E+02 -.924E+02 0.345E-02   -.190E+01 0.533E+01 0.000E+00
   0.589E+02 0.630E+02 -.291E-02   -.623E+02 -.670E+02 0.310E-02   0.371E+01 0.429E+01 0.000E+00
   0.841E+02 -.164E+02 -.799E-06   -.893E+02 0.174E+02 -.675E-06   0.554E+01 -.111E+01 0.000E+00
   0.318E+02 -.803E+02 0.295E-02   -.335E+02 0.853E+02 -.313E-02   0.178E+01 -.537E+01 0.000E+00
   -.365E+02 -.775E+02 0.354E-02   0.399E+02 0.815E+02 -.372E-02   -.362E+01 -.438E+01 0.000E+00
 -----------------------------------------------------------------------------------------------
   0.953E+01 -.290E+02 0.276E-03   -.213E-13 -.142E-13 0.106E-14   -.790E+01 0.242E+02 0.000E+00
 
 
 POSITION                                       TOTAL-FORCE (eV/Angst)
 -----------------------------------------------------------------------------------
     19.93964     20.92150     19.99996        -0.054649     -0.218145      0.000000
     18.56308     21.18171     19.99996         0.029874     -0.204376      0.000000
     17.63244     20.14077     20.00000         0.229120     -0.041846      0.000000
     18.09078     18.81546     20.00004         0.137811      0.170095      0.000000
     19.45621     18.53805     20.00004        -0.030346      0.220304      0.000000
     20.38741     19.59126     20.00000         0.035819     -0.027957      0.000000
     22.69827     20.25591     20.00000        -0.186879     -0.172132      0.000000
     21.70711     19.21626     20.00000        -0.191460      0.574768      0.000000
     22.61490     20.88464     19.09984        -0.005158     -0.164799      0.219812
     22.61486     20.88464     20.90016        -0.005158     -0.164799     -0.219812
     23.66575     19.74327     20.00004        -0.230850      0.108831      0.000000
     19.82404     17.51113     20.00008        -0.091444      0.232210      0.000000
     17.37820     17.98908     20.00008         0.161768      0.190611      0.000000
     16.56307     20.35499     20.00000         0.259620     -0.048308      0.000000
     18.22119     22.21849     19.99992         0.093047     -0.247110      0.000000
     20.64305     21.75284     19.99992        -0.151115     -0.207347      0.000000
 -----------------------------------------------------------------------------------
    total drift:                               -0.026371     -0.000490      0.000276


--------------------------------------------------------------------------------------------------------



  FREE ENERGIE OF THE ION-ELECTRON SYSTEM (eV)
  ---------------------------------------------------
  free  energy   TOTEN  =      -115.31143890 eV

  energy  without entropy=     -115.31143890  energy(sigma->0) =     -115.31143890
 


--------------------------------------------------------------------------------------------------------


    POTLOK:  cpu time    222.9059: real time    222.8990


--------------------------------------------------------------------------------------------------------


 writing wavefunctions
     LOOP+:  cpu time   6403.9133: real time   6405.3779
    4ORBIT:  cpu time      0.0000: real time      0.0000

 total amount of memory used by VASP MPI-rank0   511992. kBytes
=======================================================================

   base      :      30000. kBytes
   nonlr-proj:       2391. kBytes
   fftplans  :     129164. kBytes
   grid      :     282813. kBytes
   one-center:          6. kBytes
   HF        :          4. kBytes
   wavefun   :      67614. kBytes
   fock_wrk  :          0. kBytes
 
  
  
 General timing and accounting informations for this job:
 ========================================================
  
                  Total CPU time used (sec):     6452.891
                            User time (sec):     2860.360
                          System time (sec):     3592.530
                         Elapsed time (sec):     6455.609
  
                   Maximum memory used (kb):     1469444.
                   Average memory used (kb):          N/A
  
                          Minor page faults:     14665790
                          Major page faults:            0
                 Voluntary context switches:        13711
