 vasp.6.3.2 27Jun22 (build Oct 25 2024 11:36:28) complex                        
  
 executed on             LinuxIFC date 2025.09.11  12:54:26
 running on   90 total cores
 distrk:  each k-point on   90 cores,    1 groups
 distr:  one band on NCORE=  15 cores,    6 groups


--------------------------------------------------------------------------------------------------------


 INCAR:
   SYSTEM = 103_red
   ISTART = 1
   ICHARG = 2
   INIWAV = 1
   LHFCALC = .TRUE.
   HFSCREEN = 0.2
   NELM = 500
   ALGO = Damped
   ISPIN = 2
   EDIFF = 1E-05
   ISMEAR = 0
   SIGMA = 0.05
   PREC = accurate
   ENCUT = 500
   LREAL = auto  	
   LDIAG = .FALSE.
   LWAVE = .TRUE.
   LCHARG = .FALSE.
   LAECHG = .FALSE.
   LVHAR = .FALSE.
   LVTOT = .FALSE.
   EDIFFG = -0.02
   IBRION = 2
   NSW = 0
   ISIF = 2
   POTIM = 0.5
   IVDW = 12
   VDW_A1 = 0.383
   VDW_S8 = 2.310
   VDW_A2 = 5.685
   LPLANE = .TRUE.
   NCORE = 15
   LSCALU = .FALSE.
   NSIM = 4
   LSOL = .TRUE.
   ISOL = 2
   R_SOLV = 2.1900
   EPSILON_INF = 1.8069
   N_MOL = 0.0115
   P_MOL = 0.82
   EB_K = 35.6880
   NELECT = 49

 POTCAR:    PAW_PBE C 08Apr2002                   
 POTCAR:    PAW_PBE O 08Apr2002                   
 POTCAR:    PAW_PBE H 15Jun2001                   
 -----------------------------------------------------------------------------
|                                                                             |
|           W    W    AA    RRRRR   N    N  II  N    N   GGGG   !!!           |
|           W    W   A  A   R    R  NN   N  II  NN   N  G    G  !!!           |
|           W    W  A    A  R    R  N N  N  II  N N  N  G       !!!           |
|           W WW W  AAAAAA  RRRRR   N  N N  II  N  N N  G  GGG   !            |
|           WW  WW  A    A  R   R   N   NN  II  N   NN  G    G                |
|           W    W  A    A  R    R  N    N  II  N    N   GGGG   !!!           |
|                                                                             |
|     You use a magnetic or noncollinear calculation, but did not specify     |
|     the initial magnetic moment with the MAGMOM tag. Note that a            |
|     default of 1 will be used for all atoms. This ferromagnetic setup       |
|     may break the symmetry of the crystal, in particular it may rule        |
|     out finding an antiferromagnetic solution. Thence, we recommend         |
|     setting the initial magnetic moment manually or verifying carefully     |
|     that this magnetic setup is desired.                                    |
|                                                                             |
 -----------------------------------------------------------------------------

 POTCAR:    PAW_PBE C 08Apr2002                   
   SHA256 =  253f7b50bb8d59471dbedb8285d89021f4a42ed1a2c5d38a03a736e69125dd95 C/POTCAR              
   COPYR  = (c) Copyright 08Apr2002 Georg Kresse                                                    
   COPYR  = This file is part of the software VASP. Any use, copying, and all other rights are regul
   COPYR  = If you do not have a valid VASP license, you may not use, copy or distribute this file. 
   VRHFIN =C: s2p2                                                                                  
   LEXCH  = PE                                                                                      
   EATOM  =   147.1560 eV,   10.8157 Ry                                                             
                                                                                                    
   TITEL  = PAW_PBE C 08Apr2002                                                                     
   LULTRA =        F    use ultrasoft PP ?                                                          
   IUNSCR =        1    unscreen: 0-lin 1-nonlin 2-no                                               
   RPACOR =    1.200    partial core radius                                                         
   POMASS =   12.011; ZVAL   =    4.000    mass and valenz                                          
   RCORE  =    1.500    outmost cutoff radius                                                       
   RWIGS  =    1.630; RWIGS  =    0.863    wigner-seitz radius (au A)                               
   ENMAX  =  400.000; ENMIN  =  300.000 eV                                                          
   ICORE  =        2    local potential                                                             
   LCOR   =        T    correct aug charges                                                         
   LPAW   =        T    paw PP                                                                      
   EAUG   =  644.873                                                                                
   DEXC   =    0.000                                                                                
   RMAX   =    1.529    core radius for proj-oper                                                   
   RAUG   =    1.300    factor for augmentation sphere                                              
   RDEP   =    1.501    radius for radial grids                                                     
   RDEPT  =    1.300    core radius for aug-charge                                                  
                                                                                                    
   Atomic configuration                                                                             
    4 entries                                                                                       
     n  l   j            E        occ.                                                              
     1  0  0.50      -273.3789   2.0000                                                             
     2  0  0.50       -13.7508   2.0000                                                             
     2  1  0.50        -5.2854   2.0000                                                             
     3  2  1.50        -5.4423   0.0000                                                             
   Description                                                                                      
     l       E           TYP  RCUT    TYP  RCUT                                                     
     0    -13.7508458     23  1.200                                                                 
     0     -8.2022199     23  1.200                                                                 
     1     -5.2854383     23  1.500                                                                 
     1     34.0145650     23  1.500                                                                 
     2     -5.4423304      7  1.500                                                                 
  local pseudopotential read in
  partial core-charges read in
  partial kinetic energy density read in
  atomic valenz-charges read in
  non local Contribution for L=           0  read in
    real space projection operators read in
  non local Contribution for L=           0  read in
    real space projection operators read in
  non local Contribution for L=           1  read in
    real space projection operators read in
  non local Contribution for L=           1  read in
    real space projection operators read in
    PAW grid and wavefunctions read in
 
   number of l-projection  operators is LMAX  =           4
   number of lm-projection operators is LMMAX =           8
 
 POTCAR:    PAW_PBE O 08Apr2002                   
   SHA256 =  818f92134a0a090dccd8ba1447fa70422a3b330e708bb4f08108d8ae51209ddf O/POTCAR              
   COPYR  = (c) Copyright 08Apr2002 Georg Kresse                                                    
   COPYR  = This file is part of the software VASP. Any use, copying, and all other rights are regul
   COPYR  = If you do not have a valid VASP license, you may not use, copy or distribute this file. 
   VRHFIN =O: s2p4                                                                                  
   LEXCH  = PE                                                                                      
   EATOM  =   432.3788 eV,   31.7789 Ry                                                             
                                                                                                    
   TITEL  = PAW_PBE O 08Apr2002                                                                     
   LULTRA =        F    use ultrasoft PP ?                                                          
   IUNSCR =        1    unscreen: 0-lin 1-nonlin 2-no                                               
   RPACOR =    1.200    partial core radius                                                         
   POMASS =   16.000; ZVAL   =    6.000    mass and valenz                                          
   RCORE  =    1.520    outmost cutoff radius                                                       
   RWIGS  =    1.550; RWIGS  =    0.820    wigner-seitz radius (au A)                               
   ENMAX  =  400.000; ENMIN  =  300.000 eV                                                          
   ICORE  =        2    local potential                                                             
   LCOR   =        T    correct aug charges                                                         
   LPAW   =        T    paw PP                                                                      
   EAUG   =  605.392                                                                                
   DEXC   =    0.000                                                                                
   RMAX   =    1.553    core radius for proj-oper                                                   
   RAUG   =    1.300    factor for augmentation sphere                                              
   RDEP   =    1.550    radius for radial grids                                                     
   RDEPT  =    1.329    core radius for aug-charge                                                  
                                                                                                    
   Atomic configuration                                                                             
    4 entries                                                                                       
     n  l   j            E        occ.                                                              
     1  0  0.50      -514.6923   2.0000                                                             
     2  0  0.50       -23.9615   2.0000                                                             
     2  1  0.50        -9.0305   4.0000                                                             
     3  2  1.50        -9.5241   0.0000                                                             
   Description                                                                                      
     l       E           TYP  RCUT    TYP  RCUT                                                     
     0    -23.9615318     23  1.200                                                                 
     0     -9.5240782     23  1.200                                                                 
     1     -9.0304911     23  1.520                                                                 
     1      8.1634956     23  1.520                                                                 
     2     -9.5240782      7  1.500                                                                 
  local pseudopotential read in
  partial core-charges read in
  partial kinetic energy density read in
  kinetic energy density of atom read in
  atomic valenz-charges read in
  non local Contribution for L=           0  read in
    real space projection operators read in
  non local Contribution for L=           0  read in
    real space projection operators read in
  non local Contribution for L=           1  read in
    real space projection operators read in
  non local Contribution for L=           1  read in
    real space projection operators read in
    PAW grid and wavefunctions read in
 
   number of l-projection  operators is LMAX  =           4
   number of lm-projection operators is LMMAX =           8
 
 POTCAR:    PAW_PBE H 15Jun2001                   
   SHA256 =  030f79b5d3ab3cf0e668861823c8fb652ff669f3e15e46930bd03bfd63a607b6 H/POTCAR              
   COPYR  = (c) Copyright 15Jun2001 Georg Kresse                                                    
   COPYR  = This file is part of the software VASP. Any use, copying, and all other rights are regul
   COPYR  = If you do not have a valid VASP license, you may not use, copy or distribute this file. 
   VRHFIN =H: ultrasoft test                                                                        
   LEXCH  = PE                                                                                      
   EATOM  =    12.4884 eV,    0.9179 Ry                                                             
                                                                                                    
   TITEL  = PAW_PBE H 15Jun2001                                                                     
   LULTRA =        F    use ultrasoft PP ?                                                          
   IUNSCR =        0    unscreen: 0-lin 1-nonlin 2-no                                               
   RPACOR =    0.000    partial core radius                                                         
   POMASS =    1.000; ZVAL   =    1.000    mass and valenz                                          
   RCORE  =    1.100    outmost cutoff radius                                                       
   RWIGS  =    0.700; RWIGS  =    0.370    wigner-seitz radius (au A)                               
   ENMAX  =  250.000; ENMIN  =  200.000 eV                                                          
   RCLOC  =    0.701    cutoff for local pot                                                        
   LCOR   =        T    correct aug charges                                                         
   LPAW   =        T    paw PP                                                                      
   EAUG   =  400.000                                                                                
   RMAX   =    1.123    core radius for proj-oper                                                   
   RAUG   =    1.200    factor for augmentation sphere                                              
   RDEP   =    1.112    radius for radial grids                                                     
   RDEPT  =    0.926    core radius for aug-charge                                                  
                                                                                                    
   Atomic configuration                                                                             
    2 entries                                                                                       
     n  l   j            E        occ.                                                              
     1  0  0.50        -6.4927   1.0000                                                             
     2  1  0.50        -3.4015   0.0000                                                             
   Description                                                                                      
     l       E           TYP  RCUT    TYP  RCUT                                                     
     0     -6.4927494     23  1.100                                                                 
     0      6.8029130     23  1.100                                                                 
     1     -4.0817478     23  1.100                                                                 
  local pseudopotential read in
  atomic valenz-charges read in
  non local Contribution for L=           0  read in
    real space projection operators read in
  non local Contribution for L=           0  read in
    real space projection operators read in
  non local Contribution for L=           1  read in
    real space projection operators read in
    PAW grid and wavefunctions read in
 
   number of l-projection  operators is LMAX  =           3
   number of lm-projection operators is LMMAX =           5
 
 Optimization of the real space projectors (new method)

 maximal supplied QI-value         = 25.13
 optimisation between [QCUT,QGAM] = [ 11.31, 22.87] = [ 35.82,146.48] Ry 
 Optimized for a Real-space Cutoff    1.03 Angstroem

   l    n(q)    QCUT    max X(q) W(low)/X(q) W(high)/X(q)  e(spline) 
   0      7    11.310   115.676    0.20E-03    0.90E-03    0.20E-06
   0      7    11.310    87.132    0.20E-03    0.89E-03    0.19E-06
   1      6    11.310     4.429    0.16E-03    0.28E-03    0.12E-06
   1      6    11.310     2.733    0.12E-03    0.21E-03    0.99E-07
 Optimization of the real space projectors (new method)

 maximal supplied QI-value         = 24.76
 optimisation between [QCUT,QGAM] = [ 11.39, 22.77] = [ 36.31,145.25] Ry 
 Optimized for a Real-space Cutoff    1.10 Angstroem

   l    n(q)    QCUT    max X(q) W(low)/X(q) W(high)/X(q)  e(spline) 
   0      7    11.387    20.381    0.22E-03    0.48E-03    0.18E-06
   0      7    11.387    15.268    0.22E-03    0.52E-03    0.19E-06
   1      7    11.387     5.964    0.22E-03    0.73E-03    0.24E-06
   1      7    11.387     5.382    0.19E-03    0.60E-03    0.21E-06
 Optimization of the real space projectors (new method)

 maximal supplied QI-value         = 34.20
 optimisation between [QCUT,QGAM] = [ 11.29, 22.57] = [ 35.68,142.71] Ry 
 Optimized for a Real-space Cutoff    1.20 Angstroem

   l    n(q)    QCUT    max X(q) W(low)/X(q) W(high)/X(q)  e(spline) 
   0      8    11.287    19.460    0.22E-03    0.50E-03    0.19E-06
   0      8    11.287    12.209    0.21E-03    0.48E-03    0.18E-06
   1      8    11.287     4.655    0.21E-03    0.11E-04    0.26E-06
  PAW_PBE C 08Apr2002                   :
 energy of atom  1       EATOM= -147.1560
 kinetic energy error for atom=    0.0076 (will be added to EATOM!!)
  PAW_PBE O 08Apr2002                   :
 energy of atom  2       EATOM= -432.3788
 kinetic energy error for atom=    0.0224 (will be added to EATOM!!)
  PAW_PBE H 15Jun2001                   :
 energy of atom  3       EATOM=  -12.4884
 kinetic energy error for atom=    0.0020 (will be added to EATOM!!)
 
 
 POSCAR: C O H
  positions in direct lattice
  velocities in cartesian coordinates
 exchange correlation table for  LEXCH =        8
   RHO(1)=    0.500       N(1)  =     2000
   RHO(2)=  100.500       N(2)  =     4000
 
 POSCAR: C O H
  positions in direct lattice
  velocities in cartesian coordinates
 
 POSCAR: C O H
  positions in direct lattice
  velocities in cartesian coordinates
 


--------------------------------------------------------------------------------------------------------


 ion  position               nearest neighbor table
   1  0.489  0.477  0.500-  18 1.09   6 1.37   2 1.43
   2  0.474  0.509  0.500-  10 1.32   1 1.43   3 1.43
   3  0.494  0.539  0.500-  14 1.09   4 1.37   2 1.43
   4  0.528  0.536  0.500-  13 1.09   3 1.37   5 1.43
   5  0.543  0.503  0.500-   7 1.39   4 1.43   6 1.43
   6  0.523  0.474  0.500-  11 1.09   1 1.37   5 1.43
   7  0.578  0.500  0.500-   8 1.22   5 1.39
   8  0.609  0.497  0.500-  12 1.07   7 1.22
   9  0.418  0.487  0.500-  15 1.09  16 1.10  17 1.10  10 1.45
  10  0.441  0.515  0.500-   2 1.32   9 1.45
  11  0.535  0.450  0.500-   6 1.09
  12  0.635  0.495  0.500-   8 1.07
  13  0.544  0.558  0.500-   4 1.09
  14  0.482  0.563  0.500-   3 1.09
  15  0.393  0.499  0.500-   9 1.09
  16  0.421  0.472  0.477-   9 1.10
  17  0.421  0.472  0.523-   9 1.10
  18  0.473  0.454  0.500-   1 1.09
 
  LATTYP: Found a simple cubic cell.
 ALAT       =    40.0000000000
  
  Lattice vectors:
  
 A1 = (  40.0000000000,   0.0000000000,   0.0000000000)
 A2 = (   0.0000000000,  40.0000000000,   0.0000000000)
 A3 = (   0.0000000000,   0.0000000000,  40.0000000000)


Analysis of symmetry for initial positions (statically):
=====================================================================
 Subroutine PRICEL returns:
 Original cell was already a primitive cell.
 

 Routine SETGRP: Setting up the symmetry group for a 
 simple cubic supercell.


 Subroutine GETGRP returns: Found  1 space group operations
 (whereof  1 operations were pure point group operations)
 out of a pool of 48 trial point group operations.


The static configuration has the point symmetry C_1 .


Analysis of symmetry for dynamics (positions and initial velocities):
=====================================================================
 Subroutine PRICEL returns:
 Original cell was already a primitive cell.
 

 Routine SETGRP: Setting up the symmetry group for a 
 simple cubic supercell.


 Subroutine GETGRP returns: Found  1 space group operations
 (whereof  1 operations were pure point group operations)
 out of a pool of 48 trial point group operations.


The dynamic configuration has the point symmetry C_1 .


Analysis of constrained symmetry for selective dynamics:
=====================================================================
 Subroutine PRICEL returns:
 Original cell was already a primitive cell.
 

 Routine SETGRP: Setting up the symmetry group for a 
 simple cubic supercell.


 Subroutine GETGRP returns: Found  1 space group operations
 (whereof  1 operations were pure point group operations)
 out of a pool of 48 trial point group operations.


The constrained configuration has the point symmetry C_1 .


Analysis of structural, dynamic, and magnetic symmetry:
=====================================================================
 Subroutine PRICEL returns:
 Original cell was already a primitive cell.
 

 Routine SETGRP: Setting up the symmetry group for a 
 simple cubic supercell.


 Subroutine GETGRP returns: Found  1 space group operations
 (whereof  1 operations were pure point group operations)
 out of a pool of 48 trial point group operations.


The overall configuration has the point symmetry C_1 .


 Subroutine INISYM returns: Found  1 space group operations
 (whereof  1 operations are pure point group operations),
 and found     1 'primitive' translations


----------------------------------------------------------------------------------------

                                     Primitive cell                                     

  volume of cell :   64000.0000

  direct lattice vectors                    reciprocal lattice vectors
    40.000000000  0.000000000  0.000000000     0.025000000  0.000000000  0.000000000
     0.000000000 40.000000000  0.000000000     0.000000000  0.025000000  0.000000000
     0.000000000  0.000000000 40.000000000     0.000000000  0.000000000  0.025000000

  length of vectors
    40.000000000 40.000000000 40.000000000     0.025000000  0.025000000  0.025000000

  position of ions in fractional coordinates (direct lattice)
     0.488523053  0.476799162  0.499982516
     0.473813895  0.509259775  0.499990730
     0.494120640  0.538680101  0.499994654
     0.528219275  0.535738529  0.499991910
     0.543349829  0.503335147  0.499990654
     0.522713436  0.474064304  0.499982463
     0.578055201  0.500101097  0.500002333
     0.608503674  0.497280652  0.500014341
     0.417635518  0.487213447  0.500011483
     0.441236958  0.514866967  0.500005654
     0.534614762  0.449580814  0.499981999
     0.635213557  0.494785935  0.500027961
     0.544163397  0.557791491  0.500000566
     0.481703212  0.562913604  0.500001992
     0.393025537  0.498993298  0.500018549
     0.421043494  0.472065410  0.477399940
     0.421055339  0.472061785  0.522619575
     0.473008223  0.454468482  0.499982679

  ion indices of the primitive-cell ions
   primitive index   ion index
                 1           1
                 2           2
                 3           3
                 4           4
                 5           5
                 6           6
                 7           7
                 8           8
                 9           9
                10          10
                11          11
                12          12
                13          13
                14          14
                15          15
                16          16
                17          17
                18          18

----------------------------------------------------------------------------------------

 
 
 KPOINTS: K-Point Grid                            

Automatic generation of k-mesh.
 Grid dimensions read from file:
 generate k-points for:    1    1    1

 Generating k-lattice:

  Cartesian coordinates                     Fractional coordinates (reciprocal lattice)
     0.025000000  0.000000000  0.000000000     1.000000000  0.000000000  0.000000000
     0.000000000  0.025000000  0.000000000     0.000000000  1.000000000  0.000000000
     0.000000000  0.000000000  0.025000000     0.000000000  0.000000000  1.000000000

  Length of vectors
     0.025000000  0.025000000  0.025000000

  Shift w.r.t. Gamma in fractional coordinates (k-lattice)
     0.000000000  0.000000000  0.000000000

 
 Subroutine IBZKPT returns following result:
 ===========================================
 
 Found      1 irreducible k-points:
 
 Following reciprocal coordinates:
            Coordinates               Weight
  0.000000  0.000000  0.000000      1.000000
 
 Following cartesian coordinates:
            Coordinates               Weight
  0.000000  0.000000  0.000000      1.000000
 
 
 Subroutine IBZKPT_HF returns following result:
 ==============================================
 
 Found      1 k-points in 1st BZ
 the following      1 k-points will be used (e.g. in the exchange kernel)
 Following reciprocal coordinates:   # in IRBZ
  0.000000  0.000000  0.000000    1.00000000   1 t-inv F


--------------------------------------------------------------------------------------------------------




 Dimension of arrays:
   k-points           NKPTS =      1   k-points in BZ     NKDIM =      1   number of bands    NBANDS=     48
   number of dos      NEDOS =    301   number of ions     NIONS =     18
   non local maximal  LDIM  =      4   non local SUM 2l+1 LMDIM =      8
   total plane-waves  NPLWV = ******
   max r-space proj   IRMAX =   2915   max aug-charges    IRDMAX=   5350
   dimension x,y,z NGX =   294 NGY =  294 NGZ =  294
   dimension x,y,z NGXF=   588 NGYF=  588 NGZF=  588
   support grid    NGXF=   588 NGYF=  588 NGZF=  588
   ions per type =               9   1   8
   NGX,Y,Z   is equivalent  to a cutoff of  12.22, 12.22, 12.22 a.u.
   NGXF,Y,Z  is equivalent  to a cutoff of  24.44, 24.44, 24.44 a.u.

 SYSTEM =  103_red                                 
 POSCAR =  C O H                                   

 Startparameter for this run:
   NWRITE =      2    write-flag & timer
   PREC   = accura    normal or accurate (medium, high low for compatibility)
   ISTART =      0    job   : 0-new  1-cont  2-samecut
   ICHARG =      2    charge: 1-file 2-atom 10-const
   ISPIN  =      2    spin polarized calculation?
   LNONCOLLINEAR =      F non collinear calculations
   LSORBIT =      F    spin-orbit coupling
   INIWAV =      1    electr: 0-lowe 1-rand  2-diag
   LASPH  =      F    aspherical Exc in radial PAW
 Electronic Relaxation 1
   ENCUT  =  500.0 eV  36.75 Ry    6.06 a.u.  72.93 72.93 72.93*2*pi/ulx,y,z
   ENINI  =  500.0     initial cutoff
   ENAUG  =  644.9 eV  augmentation charge cutoff
   NELM   =    500;   NELMIN=  2; NELMDL=  0     # of ELM steps 
   EDIFF  = 0.1E-04   stopping-criterion for ELM
   LREAL  =      T    real-space projection
   NLSPLINE    = F    spline interpolate recip. space projectors
   LCOMPAT=      F    compatible to vasp.4.4
   GGA_COMPAT  = T    GGA compatible to vasp.4.4-vasp.4.6
   LMAXPAW     = -100 max onsite density
   LMAXMIX     =    2 max onsite mixed and CHGCAR
   VOSKOWN=      0    Vosko Wilk Nusair interpolation
   ROPT   =   -0.00025  -0.00025  -0.00025
 Ionic relaxation
   EDIFFG = -.2E-01   stopping-criterion for IOM
   NSW    =      0    number of steps for IOM
   NBLOCK =      1;   KBLOCK =      1    inner block; outer block 
   IBRION =     -1    ionic relax: 0-MD 1-quasi-New 2-CG
   NFREE  =      1    steps in history (QN), initial steepest desc. (CG)
   ISIF   =      2    stress and relaxation
   IWAVPR =     10    prediction:  0-non 1-charg 2-wave 3-comb
   ISYM   =      3    0-nonsym 1-usesym 2-fastsym
   LCORR  =      T    Harris-Foulkes like correction to forces

   POTIM  = 0.5000    time-step for ionic-motion
   TEIN   =    0.0    initial temperature
   TEBEG  =    0.0;   TEEND  =   0.0 temperature during run
   SMASS  =  -3.00    Nose mass-parameter (am)
   estimated Nose-frequenzy (Omega)   =  0.10E-29 period in steps = 0.13E+47 mass=  -0.366E-25a.u.
   SCALEE = 1.0000    scale energy and forces
   NPACO  =    256;   APACO  = 10.0  distance and # of slots for P.C.
   PSTRESS=    0.0 pullay stress

  Mass of Ions in am
   POMASS =  12.01 16.00  1.00
  Ionic Valenz
   ZVAL   =   4.00  6.00  1.00
  Atomic Wigner-Seitz radii
   RWIGS  =  -1.00 -1.00 -1.00
  virtual crystal weights 
   VCA    =   1.00  1.00  1.00
   NELECT =      49.0000    total number of electrons
   NUPDOWN=      -1.0000    fix difference up-down

 DOS related values:
   EMIN   =  10.00;   EMAX   =-10.00  energy-range for DOS
   EFERMI =   0.00
   ISMEAR =     0;   SIGMA  =   0.05  broadening in eV -4-tet -1-fermi 0-gaus

 Electronic relaxation 2 (details)
   IALGO  =     53    algorithm
   LDIAG  =      F    sub-space diagonalisation (order eigenvalues)
   LSUBROT=      F    optimize rotation matrix (better conditioning)
   TURBO    =      0    0=normal 1=particle mesh
   IRESTART =      0    0=no restart 2=restart with 2 vectors
   NREBOOT  =      0    no. of reboots
   NMIN     =      0    reboot dimension
   EREF     =   0.00    reference energy to select bands
   IMIX   =      4    mixing-type and parameters
     AMIX     =   0.40;   BMIX     =  1.00
     AMIX_MAG =   1.60;   BMIX_MAG =  1.00
     AMIN     =   0.10
     WC   =   100.;   INIMIX=   1;  MIXPRE=   1;  MAXMIX= -45

 Intra band minimization:
   WEIMIN = 0.0000     energy-eigenvalue tresh-hold
   EBREAK =  0.52E-07  absolut break condition
   DEPER  =   0.30     relativ break condition  

   TIME   =   0.40     timestep for ELM

  volume/ion in A,a.u.               =    3555.56     23994.07
  Fermi-wavevector in a.u.,A,eV,Ry     =   0.149766  0.283017  0.305177  0.022430
  Thomas-Fermi vector in A             =   0.825203
 
 Write flags
   LWAVE        =      T    write WAVECAR
   LDOWNSAMPLE  =      F    k-point downsampling of WAVECAR
   LCHARG       =      F    write CHGCAR
   LVTOT        =      F    write LOCPOT, total local potential
   LVHAR        =      F    write LOCPOT, Hartree potential only
   LELF         =      F    write electronic localiz. function (ELF)
   LORBIT       =      0    0 simple, 1 ext, 2 COOP (PROOUT), +10 PAW based schemes


 Dipole corrections
   LMONO  =      F    monopole corrections only (constant potential shift)
   LDIPOL =      F    correct potential (dipole corrections)
   IDIPOL =      0    1-x, 2-y, 3-z, 4-all directions 
   EPSILON=  1.0000000 bulk dielectric constant

 Exchange correlation treatment:
   GGA     =    --    GGA type
   LEXCH   =     8    internal setting for exchange type
   LIBXC   =     F    Libxc                    
   VOSKOWN =     0    Vosko Wilk Nusair interpolation
   EXXOEP  =     0    0=HF, 1=EXX-LHF (local Hartree Fock) 2=EXX OEP
   LHFCALC =     T    Hartree Fock is set to
   LSYMGRAD=     F    symmetrize gradient (conserves proper symmetry)
   PRECFOCK=normal    Normal, Fast or Accurate (Low or Medium for compatibility)
   LRHFCALC=     F    long range Hartree Fock
   LRSCOR  =     F    long range correlation only (use DFT for short range part)
   LTHOMAS =     F    Thomas Fermi screening in HF
   LMODELHF=     F    short range full HF, long range fraction AEXX
   FOCKCORR=     1    mode to apply convergence corrections
   LFOCKACE=     T    use Adeptively-Compressed-Exchange operator
   ENCUT4O =  -1.0   cutoff for four orbital integrals eV
   LMAXFOCK=     4    L truncation for augmentation on plane wave grid
   LMAXFOCKAE=  -1    L truncation for all-electron charge restoration on plane wave grid
   NMAXFOCKAE=   1    number of basis functions for all-electron charge restoration
   LFOCKAEDFT=     F  apply the AE augmentation even for DFT
   NKREDX  =     1    reduce k-point grid by
   NKREDY  =     1    reduce k-point grid by
   NKREDZ  =     1    reduce k-point grid by
   SHIFTRED=     F    shift reduced grid of Gamma
   HFKIDENT=     F    idential grid for each k-point
   ODDONLY =     F    use only odd q-grid points
   EVENONLY=     F    use only even q-grid points
   HFALPHA =   -1.0000 decay constant for conv. correction
   MCALPHA =    0.0000 extent of test-charge in conv. correction in multipole expansion
   AEXX    =    0.2500 exact exchange contribution
   HFSCREEN=    0.2000 screening length (either q_TF or 0.3 A-1)
   HFSCREENC=   0.2000 screening length for correlation (either q_TF or 0.3 A-1)
   HFRCUT  =    0.0000 spherical cutoff for potential kernel
   ALDAX   =    0.7500 LDA exchange part
   AGGAX   =    0.7500 GGA exchange part
   ALDAC   =    1.0000 LDA correlation
   AGGAC   =    1.0000 GGA correlation
   ENCUTFOCK=  -1.0 apply spherical cutoff to Coloumb kernel
   NBANDSGWLOW=     1    first orbital included in HF term
   NBLOCK_FOCK=    64    blocking factor in FOCK_ACC

 Linear response parameters
   LEPSILON=     F    determine dielectric tensor
   LRPA    =     F    only Hartree local field effects (RPA)
   LNABLA  =     F    use nabla operator in PAW spheres
   LVEL    =     F    velocity operator in full k-point grid
   CSHIFT  =0.1000    complex shift for real part using Kramers Kronig
   OMEGAMAX=  -1.0    maximum frequency
   DEG_THRESHOLD= 0.2000000E-02 threshold for treating states as degnerate
   RTIME   =   -0.100 relaxation time in fs
  (WPLASMAI=    0.000 imaginary part of plasma frequency in eV, 0.658/RTIME)
   DFIELD  = 0.0000000 0.0000000 0.0000000 field for delta impulse in time
 
  Optional k-point grid parameters
   LKPOINTS_OPT  =     F    use optional k-point grid
   KPOINTS_OPT_MODE=     1    mode for optional k-point grid
 
 Orbital magnetization related:
   ORBITALMAG=     F  switch on orbital magnetization
   LCHIMAG   =     F  perturbation theory with respect to B field
   DQ        =  0.001000  dq finite difference perturbation B field
   LLRAUG    =     F  two centre corrections for induced B field

 Solvation model:
   LSOL             =     T         switch on solvation model
   LSOL_SCF         =     T         include solvation in SCF
   ISOL             =     2         solvation model type
   EFERMI_ref       =  0.000000         reference Fermi level
   capacitance_init =  1.000000         initial capacitance
 Nonlinear solvation model:
   LNLDIEL     =     T         switch on non-linear dielectric mode
   LNLION      =     T         switch on non-linear ionic mode
   LNLTEST     =     F         test non-linear model in linear regime
   I_NLOC_SOL  =     1         type of nonlocal dielectric response
   NC_K        =  0.015000     cutoff charge density for cavities (1/Angstrom**3)
   TAU         =  0.000879     cavity formation energy (eV/Angstrom**2)
   SIGMA_K     =  0.600000     cavity width
   A_K         =  0.125000     smoothing length (Angstrom)
   R_SOLV      =  2.190000     solvent radius (Angstrom)
   R_CAV       =  0.000000     cavity radius (Angstrom)
   R_DIEL      =  1.000000     dielectric radius (Angstrom)
   R_ION       =  0.000000     ionic radius (Angstrom)
   R_B         =  0.000000     bound charge radius (Angstrom)
   SOLTEMP     =298.000000     solvent temperature (K)
   EB_K        = 35.688000     relative permittivity of the bulk solvent
   EPSILON_INF =  1.806900     optical relative permittivity of bulk solvent
   N_MOL       =  0.011500     molar density of solvent (1/Angstrom**3)
   P_MOL       =  0.820000     solvent dipole moment (e*Angstrom)
   C_MOLAR     =  0.000000     electrolyte concentration (mol/L)
   LAMBDA_D_K  =  0.000000     Debye length (Angstrom)
   ZION        =  1.000000     charge of ions in electrolyte (e)
   D_ION       = -1.000000     minimum ion packing diameter (Angstrom)



--------------------------------------------------------------------------------------------------------


 Static calculation
 charge density and potential will be updated during run
 spin polarized calculation
 Conjugate gradient for all bands (Kresse, et al. variant)
 perform Loewdin sub-space diagonalisation
    ordering is kept fixed
    before iterative eigenvector-optimisation
 modified Broyden-mixing scheme, WC =      100.0
 initial mixing is a Kerker type mixing with AMIX =  0.4000 and BMIX =      1.0000
 Hartree-type preconditioning will be used
 using additional bands           23
 real space projection scheme for non local part
 use partial core corrections
 no Harris-corrections to forces 
 use gradient corrections 
 use of overlap-Matrix (Vanderbilt PP)
 Gauss-broadening in eV      SIGMA  =   0.05


--------------------------------------------------------------------------------------------------------


  energy-cutoff  :      500.00
  volume of cell :    64000.00
      direct lattice vectors                 reciprocal lattice vectors
    40.000000000  0.000000000  0.000000000     0.025000000  0.000000000  0.000000000
     0.000000000 40.000000000  0.000000000     0.000000000  0.025000000  0.000000000
     0.000000000  0.000000000 40.000000000     0.000000000  0.000000000  0.025000000

  length of vectors
    40.000000000 40.000000000 40.000000000     0.025000000  0.025000000  0.025000000


 
 k-points in units of 2pi/SCALE and weight: K-Point Grid                            
   0.00000000  0.00000000  0.00000000       1.000
 
 k-points in reciprocal lattice and weights: K-Point Grid                            
   0.00000000  0.00000000  0.00000000       1.000
 
 position of ions in fractional coordinates (direct lattice) 
   0.48852305  0.47679916  0.49998252
   0.47381389  0.50925978  0.49999073
   0.49412064  0.53868010  0.49999465
   0.52821927  0.53573853  0.49999191
   0.54334983  0.50333515  0.49999065
   0.52271344  0.47406430  0.49998246
   0.57805520  0.50010110  0.50000233
   0.60850367  0.49728065  0.50001434
   0.41763552  0.48721345  0.50001148
   0.44123696  0.51486697  0.50000565
   0.53461476  0.44958081  0.49998200
   0.63521356  0.49478594  0.50002796
   0.54416340  0.55779149  0.50000057
   0.48170321  0.56291360  0.50000199
   0.39302554  0.49899330  0.50001855
   0.42104349  0.47206541  0.47739994
   0.42105534  0.47206178  0.52261958
   0.47300822  0.45446848  0.49998268
 
 position of ions in cartesian coordinates  (Angst):
  19.54092213 19.07196649 19.99930064
  18.95255579 20.37039102 19.99962919
  19.76482558 21.54720403 19.99978617
  21.12877098 21.42954118 19.99967640
  21.73399315 20.13340589 19.99962617
  20.90853745 18.96257216 19.99929854
  23.12220803 20.00404387 20.00009333
  24.34014698 19.89122606 20.00057362
  16.70542073 19.48853787 20.00045932
  17.64947833 20.59467867 20.00022618
  21.38459049 17.98323254 19.99927996
  25.40854228 19.79143740 20.00111843
  21.76653589 22.31165965 20.00002264
  19.26812850 22.51654416 20.00007968
  15.72102148 19.95973191 20.00074196
  16.84173976 18.88261642 19.09599759
  16.84221355 18.88247139 20.90478300
  18.92032890 18.17873929 19.99930716
 


--------------------------------------------------------------------------------------------------------


 k-point   1 :   0.0000 0.0000 0.0000  plane waves: 1624525

 maximum and minimum number of plane-waves per node :    108307   108296

 maximum number of plane-waves:   1624525
 maximum index in each direction: 
   IXMAX=   72   IYMAX=   72   IZMAX=   72
   IXMIN=  -72   IYMIN=  -72   IZMIN=  -72


 real space projection operators:
  total allocation   :       2009.66 KBytes
  max/ min on nodes  :        157.39        111.22


 parallel 3D FFT for wavefunctions:
    minimum data exchange during FFTs selected (reduces bandwidth)
 parallel 3D FFT for charge:
    minimum data exchange during FFTs selected (reduces bandwidth)


 FFT grid for exact exchange (Hartree Fock) 
  NGX =224; NGY =224; NGZ =224

 
 Radii for the augmentation spheres in the non-local exchange
 for species   1 augmentation radius   0.874 (default was   0.699)
       energy cutoff for augmentation   2000.0
 for species   2 augmentation radius   0.902 (default was   0.722)
       energy cutoff for augmentation   2000.0
 for species   3 augmentation radius   0.650 (default was   0.520)
       energy cutoff for augmentation   2000.0

 real space projection operators:
  total allocation   :        459.63 KBytes
  max/ min on nodes  :         42.68         20.67

 Maximum index for augmentation-charges in exchange           71
  SETUP_FOCK is finished

 total amount of memory used by VASP MPI-rank0   642059. kBytes
=======================================================================

   base      :      30000. kBytes
   nonlr-proj:       1246. kBytes
   fftplans  :     175546. kBytes
   grid      :     352056. kBytes
   one-center:         12. kBytes
   HF        :          9. kBytes
   wavefun   :      83190. kBytes
 
     INWAV:  cpu time      0.0000: real time      0.0000
 Broyden mixing: mesh for mixing (old mesh)
   NGX =145   NGY =145   NGZ =145
  (NGX  =588   NGY  =588   NGZ  =588)
  gives a total of ****** points

 initial charge density was supplied:
 charge density of overlapping atoms calculated
 number of electron      50.0000000 magnetization      18.0000000
 charge density for first step will be calculated from the start-wavefunctions


--------------------------------------------------------------------------------------------------------


 Maximum index for non-local projection operator          194
 Maximum index for augmentation-charges          316 (set IRDMAX)


--------------------------------------------------------------------------------------------------------


 First call to EWALD:  gamma=   0.044
 Maximum number of real-space cells 3x 3x 3
 Maximum number of reciprocal cells 3x 3x 3

    FEWALD:  cpu time      0.1294: real time      0.1294


--------------------------------------- Iteration      1(   1)  ---------------------------------------


    POTLOK:  cpu time     18.9985: real time     18.9985
    SETDIJ:  cpu time      0.0350: real time      0.0350
    TRIAL :  cpu time     33.3185: real time     33.3186
    CORREC:  cpu time      0.0041: real time      0.0041
    --------------------------------------------
      LOOP:  cpu time     52.4159: real time     52.4221

 eigenvalue-minimisations  :   192
 total energy-change (2. order) : 0.5578040E+03  (-0.3137323E+03)
 number of electron      50.0000000 magnetization      18.0000000
 augmentation part       50.0000000 magnetization      18.0000000

 Free energy of the ion-electron system (eV)
  ---------------------------------------------------
  alpha Z        PSCENC =         0.17771760
  Ewald energy   TEWEN  =      4993.77063771
  -Hartree energ DENC   =     -6263.57437585
  -exchange      EXHF   =         0.00000000
  -V(xc)+E(xc)   XCENC  =       166.57478116
  PAW double counting   =      1336.30484377    -1576.99601775
  entropy T*S    EENTRO =        -0.03222277
  eigenvalues    EBANDS =        67.66317909
  atomic energy  EATOM  =      1833.91545648
  ---------------------------------------------------
  free energy    TOTEN  =       557.80399943 eV

  energy without entropy =      557.83622220  energy(sigma->0) =      557.82011081
  exchange ACFDT corr.  =         0.00000000  see jH, gK, PRB 81, 115126


--------------------------------------------------------------------------------------------------------




--------------------------------------- Iteration      1(   2)  ---------------------------------------


    TRIAL :  cpu time     57.8303: real time     57.8304
    CORREC:  cpu time      0.0043: real time      0.0043
    --------------------------------------------
      LOOP:  cpu time     57.8722: real time     57.8831

 eigenvalue-minimisations  :   384
 total energy-change (2. order) :-0.8980139E+02  (-0.8643614E+02)
 number of electron      50.0000000 magnetization      18.0000000
 augmentation part       50.0000000 magnetization      18.0000000

 Free energy of the ion-electron system (eV)
  ---------------------------------------------------
  alpha Z        PSCENC =         0.17771760
  Ewald energy   TEWEN  =      4993.77063771
  -Hartree energ DENC   =     -6263.57437585
  -exchange      EXHF   =         0.00000000
  -V(xc)+E(xc)   XCENC  =       166.57478116
  PAW double counting   =      1336.30484377    -1576.99601775
  entropy T*S    EENTRO =        -0.04821698
  eigenvalues    EBANDS =       -22.12221376
  atomic energy  EATOM  =      1833.91545648
  ---------------------------------------------------
  free energy    TOTEN  =       468.00261238 eV

  energy without entropy =      468.05082936  energy(sigma->0) =      468.02672087
  exchange ACFDT corr.  =         0.00000000  see jH, gK, PRB 81, 115126


--------------------------------------------------------------------------------------------------------




--------------------------------------- Iteration      1(   3)  ---------------------------------------


    TRIAL :  cpu time     53.9562: real time     53.9560
    CORREC:  cpu time      0.0045: real time      0.0045
    --------------------------------------------
      LOOP:  cpu time     53.9771: real time     53.9822

 eigenvalue-minimisations  :   384
 total energy-change (2. order) :-0.1504449E+03  (-0.1365895E+03)
 number of electron      50.0000000 magnetization      18.0000000
 augmentation part       50.0000000 magnetization      18.0000000

 Free energy of the ion-electron system (eV)
  ---------------------------------------------------
  alpha Z        PSCENC =         0.17771760
  Ewald energy   TEWEN  =      4993.77063771
  -Hartree energ DENC   =     -6263.57437585
  -exchange      EXHF   =         0.00000000
  -V(xc)+E(xc)   XCENC  =       166.57478116
  PAW double counting   =      1336.30484377    -1576.99601775
  entropy T*S    EENTRO =        -0.05616734
  eigenvalues    EBANDS =      -172.55911874
  atomic energy  EATOM  =      1833.91545648
  ---------------------------------------------------
  free energy    TOTEN  =       317.55775703 eV

  energy without entropy =      317.61392437  energy(sigma->0) =      317.58584070
  exchange ACFDT corr.  =         0.00000000  see jH, gK, PRB 81, 115126


--------------------------------------------------------------------------------------------------------




--------------------------------------- Iteration      1(   4)  ---------------------------------------


    TRIAL :  cpu time     58.0961: real time     58.0962
    CORREC:  cpu time      0.0044: real time      0.0044
    --------------------------------------------
      LOOP:  cpu time     58.1223: real time     58.1285

 eigenvalue-minimisations  :   384
 total energy-change (2. order) :-0.2180425E+03  (-0.2015413E+03)
 number of electron      50.0000000 magnetization      18.0000000
 augmentation part       50.0000000 magnetization      18.0000000

 Free energy of the ion-electron system (eV)
  ---------------------------------------------------
  alpha Z        PSCENC =         0.17771760
  Ewald energy   TEWEN  =      4993.77063771
  -Hartree energ DENC   =     -6263.57437585
  -exchange      EXHF   =         0.00000000
  -V(xc)+E(xc)   XCENC  =       166.57478116
  PAW double counting   =      1336.30484377    -1576.99601775
  entropy T*S    EENTRO =        -0.04797644
  eigenvalues    EBANDS =      -390.60977315
  atomic energy  EATOM  =      1833.91545648
  ---------------------------------------------------
  free energy    TOTEN  =        99.51529352 eV

  energy without entropy =       99.56326996  energy(sigma->0) =       99.53928174
  exchange ACFDT corr.  =         0.00000000  see jH, gK, PRB 81, 115126


--------------------------------------------------------------------------------------------------------




--------------------------------------- Iteration      1(   5)  ---------------------------------------


    --------------------------------------------
      INIT:  cpu time      0.5923: real time      0.5923
  FINALIZE:  cpu time     72.0080: real time     72.0078
    --------------------------------------------
    POTLOK:  cpu time     94.1102: real time     94.1098
    SETDIJ:  cpu time      0.0675: real time      0.0675
    TRIAL :  cpu time    207.7240: real time    207.7238
    CORREC:  cpu time      0.0045: real time      0.0045
    CHARGE:  cpu time      3.2689: real time      3.2688
    --------------------------------------------
      LOOP:  cpu time    305.1955: real time    305.1994

 eigenvalue-minimisations  :   384
 total energy-change (2. order) : 0.5916553E+02  (-0.1680799E+03)
 number of electron      48.9999997 magnetization       1.6141581
 augmentation part        0.6987813 magnetization       0.2597495

 Free energy of the ion-electron system (eV)
  ---------------------------------------------------
  alpha Z        PSCENC =         0.17771760
  Ewald energy   TEWEN  =      4993.77063771
  -Hartree energ DENC   =     -6263.57437585
  -exchange      EXHF   =        35.42668247
  -V(xc)+E(xc)   XCENC  =       128.06064323
  PAW double counting   =      1368.28386457    -1372.63740298
  entropy T*S    EENTRO =        -0.03970799
  eigenvalues    EBANDS =      -563.58593533
  atomic energy  EATOM  =      1833.91545648
  ---------------------------------------------------
  free energy    TOTEN  =       158.68082768 eV

  energy without entropy =      158.72053567  energy(sigma->0) =      158.70068168
  exchange ACFDT corr.  =        -0.00330842  see jH, gK, PRB 81, 115126


--------------------------------------------------------------------------------------------------------




--------------------------------------- Iteration      1(   6)  ---------------------------------------


    --------------------------------------------
      INIT:  cpu time      0.5781: real time      0.5781
  FINALIZE:  cpu time    268.4490: real time    268.4650
    --------------------------------------------
    POTLOK:  cpu time    295.8257: real time    295.8416
    SETDIJ:  cpu time      0.0677: real time      0.0677
    TRIAL :  cpu time    136.6910: real time    136.6906
    CORREC:  cpu time      0.0207: real time      0.0207
    CHARGE:  cpu time      3.5512: real time      3.5512
    --------------------------------------------
      LOOP:  cpu time    436.1876: real time    436.2093

 eigenvalue-minimisations  :     0
 total energy-change (2. order) : 0.4204075E+03  (-0.1974566E+04)
 number of electron      48.9999997 magnetization       2.6271638
 augmentation part        0.5162077 magnetization       0.2144894

 Free energy of the ion-electron system (eV)
  ---------------------------------------------------
  alpha Z        PSCENC =         0.17771760
  Ewald energy   TEWEN  =      4993.77063771
  -Hartree energ DENC   =     -2766.96250240
  -exchange      EXHF   =        61.59122553
  -V(xc)+E(xc)   XCENC  =        81.83109113
  PAW double counting   =      3527.09868396    -3530.49779319
  entropy T*S    EENTRO =        -0.04178260
  eigenvalues    EBANDS =     -2561.29212351
  atomic energy  EATOM  =      1833.91545648
  ---------------------------------------------------
  free energy    TOTEN  =       579.08833346 eV

  energy without entropy =      579.13011605  energy(sigma->0) =      579.10922476
  exchange ACFDT corr.  =        -0.00272133  see jH, gK, PRB 81, 115126


--------------------------------------------------------------------------------------------------------




--------------------------------------- Iteration      1(   7)  ---------------------------------------


    --------------------------------------------
      INIT:  cpu time      0.5871: real time      0.5871
  FINALIZE:  cpu time    135.4056: real time    135.4127
    --------------------------------------------
    POTLOK:  cpu time    164.1225: real time    164.1294
    SETDIJ:  cpu time      0.0676: real time      0.0676
    TRIAL :  cpu time    134.6450: real time    134.6441
    CORREC:  cpu time      0.0354: real time      0.0354
    CHARGE:  cpu time      3.7330: real time      3.7330
    --------------------------------------------
      LOOP:  cpu time    302.6288: real time    302.6423

 eigenvalue-minimisations  :     0
 total energy-change (2. order) :-0.2723440E+02  (-0.3518044E+04)
 number of electron      48.9999997 magnetization       2.8810351
 augmentation part        0.9545578 magnetization       0.1971510

 Free energy of the ion-electron system (eV)
  ---------------------------------------------------
  alpha Z        PSCENC =         0.17771760
  Ewald energy   TEWEN  =      4993.77063771
  -Hartree energ DENC   =     -2960.19835013
  -exchange      EXHF   =        59.18047705
  -V(xc)+E(xc)   XCENC  =        83.58463416
  PAW double counting   =      2571.22151883    -2574.10457749
  entropy T*S    EENTRO =        -0.02725277
  eigenvalues    EBANDS =     -2465.86740225
  atomic energy  EATOM  =      1833.91545648
  ---------------------------------------------------
  free energy    TOTEN  =       551.85393737 eV

  energy without entropy =      551.88119015  energy(sigma->0) =      551.86756376
  exchange ACFDT corr.  =        -0.04432999  see jH, gK, PRB 81, 115126


--------------------------------------------------------------------------------------------------------




--------------------------------------- Iteration      1(   8)  ---------------------------------------


    --------------------------------------------
      INIT:  cpu time      0.9793: real time      0.9793
  FINALIZE:  cpu time    325.9056: real time    325.9081
    --------------------------------------------
    POTLOK:  cpu time    353.4158: real time    353.4183
    SETDIJ:  cpu time      0.0673: real time      0.0673
    TRIAL :  cpu time    137.4198: real time    137.4195
    CORREC:  cpu time      0.2767: real time      0.2767
    CHARGE:  cpu time      2.9784: real time      2.9785
    --------------------------------------------
      LOOP:  cpu time    494.1890: real time    494.1964

 eigenvalue-minimisations  :     0
 total energy-change (2. order) :-0.3418141E+03  (-0.1085840E+04)
 number of electron      48.9999997 magnetization       1.0000021
 augmentation part        1.1277143 magnetization       0.2002057

 Free energy of the ion-electron system (eV)
  ---------------------------------------------------
  alpha Z        PSCENC =         0.17771760
  Ewald energy   TEWEN  =      4993.77063771
  -Hartree energ DENC   =     -4175.99152250
  -exchange      EXHF   =        71.68201164
  -V(xc)+E(xc)   XCENC  =        97.10244692
  PAW double counting   =      3038.62555227    -3042.18411770
  entropy T*S    EENTRO =        -0.00000040
  eigenvalues    EBANDS =     -1909.97550226
  atomic energy  EATOM  =      1833.91545648
  ---------------------------------------------------
  free energy    TOTEN  =       210.03982235 eV

  energy without entropy =      210.03982275  energy(sigma->0) =      210.03982255
  exchange ACFDT corr.  =        -0.01346307  see jH, gK, PRB 81, 115126


--------------------------------------------------------------------------------------------------------




--------------------------------------- Iteration      1(   9)  ---------------------------------------


    --------------------------------------------
      INIT:  cpu time      0.9834: real time      0.9834
  FINALIZE:  cpu time    294.7693: real time    294.7667
    --------------------------------------------
    POTLOK:  cpu time    323.6820: real time    323.6791
    SETDIJ:  cpu time      0.0752: real time      0.0752
    TRIAL :  cpu time    135.2875: real time    135.2867
    CORREC:  cpu time      0.3963: real time      0.3963
    CHARGE:  cpu time      3.3547: real time      3.3547
    --------------------------------------------
      LOOP:  cpu time    462.8233: real time    462.8266

 eigenvalue-minimisations  :     0
 total energy-change (2. order) :-0.2111349E+03  (-0.1449975E+03)
 number of electron      48.9999997 magnetization       1.0000000
 augmentation part        1.2504567 magnetization       0.1922920

 Free energy of the ion-electron system (eV)
  ---------------------------------------------------
  alpha Z        PSCENC =         0.17771760
  Ewald energy   TEWEN  =      4993.77063771
  -Hartree energ DENC   =     -5443.41695175
  -exchange      EXHF   =        92.36345274
  -V(xc)+E(xc)   XCENC  =       114.47632716
  PAW double counting   =      4362.56957594    -4366.75774158
  entropy T*S    EENTRO =        -0.00000000
  eigenvalues    EBANDS =     -1178.62910074
  atomic energy  EATOM  =      1833.91545648
  ---------------------------------------------------
  free energy    TOTEN  =        -1.09504802 eV

  energy without entropy =       -1.09504802  energy(sigma->0) =       -1.09504802
  exchange ACFDT corr.  =        -0.00000017  see jH, gK, PRB 81, 115126


--------------------------------------------------------------------------------------------------------




--------------------------------------- Iteration      1(  10)  ---------------------------------------


    --------------------------------------------
      INIT:  cpu time      0.5797: real time      0.5797
  FINALIZE:  cpu time    293.6437: real time    293.6495
    --------------------------------------------
    POTLOK:  cpu time    319.4693: real time    319.4751
    SETDIJ:  cpu time      0.0671: real time      0.0671
    TRIAL :  cpu time    135.1901: real time    135.1891
    CORREC:  cpu time      0.3582: real time      0.3582
    CHARGE:  cpu time      3.7255: real time      3.7255
    --------------------------------------------
      LOOP:  cpu time    458.8368: real time    458.8497

 eigenvalue-minimisations  :     0
 total energy-change (2. order) :-0.5849829E+02  (-0.6147878E+02)
 number of electron      48.9999997 magnetization       1.0009634
 augmentation part        1.3506231 magnetization       0.1694487

 Free energy of the ion-electron system (eV)
  ---------------------------------------------------
  alpha Z        PSCENC =         0.17771760
  Ewald energy   TEWEN  =      4993.77063771
  -Hartree energ DENC   =     -5852.66778180
  -exchange      EXHF   =       101.49082018
  -V(xc)+E(xc)   XCENC  =       121.87858175
  PAW double counting   =      4760.04118816    -4764.74357947
  entropy T*S    EENTRO =        -0.00509541
  eigenvalues    EBANDS =      -964.72050735
  atomic energy  EATOM  =      1833.91545648
  ---------------------------------------------------
  free energy    TOTEN  =       -59.59334158 eV

  energy without entropy =      -59.58824617  energy(sigma->0) =      -59.59079387
  exchange ACFDT corr.  =        -0.09567010  see jH, gK, PRB 81, 115126


--------------------------------------------------------------------------------------------------------




--------------------------------------- Iteration      1(  11)  ---------------------------------------


    --------------------------------------------
      INIT:  cpu time      0.5845: real time      0.5845
  FINALIZE:  cpu time    293.3327: real time    293.3377
    --------------------------------------------
    POTLOK:  cpu time    320.7119: real time    320.7169
    SETDIJ:  cpu time      0.0674: real time      0.0673
    TRIAL :  cpu time    135.3808: real time    135.3800
    CORREC:  cpu time      0.0175: real time      0.0175
    CHARGE:  cpu time      2.7700: real time      2.7700
    --------------------------------------------
      LOOP:  cpu time    458.9716: real time    458.9822

 eigenvalue-minimisations  :     0
 total energy-change (2. order) :-0.2858070E+02  (-0.2716274E+02)
 number of electron      48.9999996 magnetization       1.0000000
 augmentation part        1.4437798 magnetization       0.1540683

 Free energy of the ion-electron system (eV)
  ---------------------------------------------------
  alpha Z        PSCENC =         0.17771760
  Ewald energy   TEWEN  =      4993.77063771
  -Hartree energ DENC   =     -6032.45878695
  -exchange      EXHF   =       106.14021515
  -V(xc)+E(xc)   XCENC  =       125.66846813
  PAW double counting   =      4716.17237194    -4721.17936365
  entropy T*S    EENTRO =        -0.00001032
  eigenvalues    EBANDS =      -884.77704753
  atomic energy  EATOM  =      1833.91545648
  ---------------------------------------------------
  free energy    TOTEN  =       -88.17404079 eV

  energy without entropy =      -88.17403047  energy(sigma->0) =      -88.17403563
  exchange ACFDT corr.  =        -0.20435460  see jH, gK, PRB 81, 115126


--------------------------------------------------------------------------------------------------------




--------------------------------------- Iteration      1(  12)  ---------------------------------------


    --------------------------------------------
      INIT:  cpu time      0.5787: real time      0.5787
  FINALIZE:  cpu time    264.0161: real time    264.0192
    --------------------------------------------
    POTLOK:  cpu time    291.0010: real time    291.0042
    SETDIJ:  cpu time      0.0674: real time      0.0674
    TRIAL :  cpu time    135.0778: real time    135.0816
    CORREC:  cpu time      0.1819: real time      0.1819
    CHARGE:  cpu time      2.5133: real time      2.5134
    --------------------------------------------
      LOOP:  cpu time    428.8619: real time    428.8750

 eigenvalue-minimisations  :     0
 total energy-change (2. order) :-0.2202943E+02  (-0.1423071E+02)
 number of electron      48.9999996 magnetization       1.0000000
 augmentation part        1.4921716 magnetization       0.1339754

 Free energy of the ion-electron system (eV)
  ---------------------------------------------------
  alpha Z        PSCENC =         0.17771760
  Ewald energy   TEWEN  =      4993.77063771
  -Hartree energ DENC   =     -6187.96521982
  -exchange      EXHF   =       110.34480137
  -V(xc)+E(xc)   XCENC  =       128.88640424
  PAW double counting   =      4658.80077008    -4663.99698802
  entropy T*S    EENTRO =        -0.00000000
  eigenvalues    EBANDS =      -818.91961334
  atomic energy  EATOM  =      1833.91545648
  ---------------------------------------------------
  free energy    TOTEN  =      -110.20346600 eV

  energy without entropy =     -110.20346600  energy(sigma->0) =     -110.20346600
  exchange ACFDT corr.  =        -0.00001386  see jH, gK, PRB 81, 115126


--------------------------------------------------------------------------------------------------------




--------------------------------------- Iteration      1(  13)  ---------------------------------------


    --------------------------------------------
      INIT:  cpu time      0.7797: real time      0.7797
  FINALIZE:  cpu time    113.6767: real time    113.6775
    --------------------------------------------
    POTLOK:  cpu time    139.6021: real time    139.6028
    SETDIJ:  cpu time      0.0676: real time      0.0676
    TRIAL :  cpu time    136.9933: real time    136.9931
    CORREC:  cpu time      0.1732: real time      0.1732
    CHARGE:  cpu time      2.4950: real time      2.4950
    --------------------------------------------
      LOOP:  cpu time    279.3633: real time    279.3693

 eigenvalue-minimisations  :     0
 total energy-change (2. order) :-0.8398736E+01  (-0.7026510E+01)
 number of electron      48.9999996 magnetization       1.0000000
 augmentation part        1.5385819 magnetization       0.1226647

 Free energy of the ion-electron system (eV)
  ---------------------------------------------------
  alpha Z        PSCENC =         0.17771760
  Ewald energy   TEWEN  =      4993.77063771
  -Hartree energ DENC   =     -6228.29634841
  -exchange      EXHF   =       111.45755273
  -V(xc)+E(xc)   XCENC  =       129.65488279
  PAW double counting   =      4549.92496559    -4555.16969590
  entropy T*S    EENTRO =        -0.00000000
  eigenvalues    EBANDS =      -815.47260113
  atomic energy  EATOM  =      1833.91545648
  ---------------------------------------------------
  free energy    TOTEN  =      -118.60220171 eV

  energy without entropy =     -118.60220171  energy(sigma->0) =     -118.60220171
  exchange ACFDT corr.  =        -0.00000000  see jH, gK, PRB 81, 115126


--------------------------------------------------------------------------------------------------------




--------------------------------------- Iteration      1(  14)  ---------------------------------------


    --------------------------------------------
      INIT:  cpu time      0.7829: real time      0.7829
  FINALIZE:  cpu time    105.3003: real time    105.2997
    --------------------------------------------
    POTLOK:  cpu time    134.7131: real time    134.7121
    SETDIJ:  cpu time      0.0676: real time      0.0676
    TRIAL :  cpu time    136.4841: real time    136.4853
    CORREC:  cpu time      0.1893: real time      0.1893
    CHARGE:  cpu time      2.6877: real time      2.6878
    --------------------------------------------
      LOOP:  cpu time    274.1653: real time    274.1720

 eigenvalue-minimisations  :     0
 total energy-change (2. order) :-0.4392367E+01  (-0.3658303E+01)
 number of electron      48.9999996 magnetization       1.0000000
 augmentation part        1.5711980 magnetization       0.1156479

 Free energy of the ion-electron system (eV)
  ---------------------------------------------------
  alpha Z        PSCENC =         0.17771760
  Ewald energy   TEWEN  =      4993.77063771
  -Hartree energ DENC   =     -6265.15047174
  -exchange      EXHF   =       112.20389037
  -V(xc)+E(xc)   XCENC  =       130.23150024
  PAW double counting   =      4493.96969871    -4499.26464468
  entropy T*S    EENTRO =        -0.00000000
  eigenvalues    EBANDS =      -802.63637992
  atomic energy  EATOM  =      1833.91545648
  ---------------------------------------------------
  free energy    TOTEN  =      -122.99456830 eV

  energy without entropy =     -122.99456830  energy(sigma->0) =     -122.99456830
  exchange ACFDT corr.  =         0.00000000  see jH, gK, PRB 81, 115126


--------------------------------------------------------------------------------------------------------




--------------------------------------- Iteration      1(  15)  ---------------------------------------


    --------------------------------------------
      INIT:  cpu time      0.5833: real time      0.5833
  FINALIZE:  cpu time    111.6205: real time    111.6284
    --------------------------------------------
    POTLOK:  cpu time    139.1818: real time    139.1897
    SETDIJ:  cpu time      0.0705: real time      0.0705
    TRIAL :  cpu time    135.4213: real time    135.4208
    CORREC:  cpu time      0.1059: real time      0.1059
    CHARGE:  cpu time      2.8887: real time      2.8887
    --------------------------------------------
      LOOP:  cpu time    277.6887: real time    277.7033

 eigenvalue-minimisations  :     0
 total energy-change (2. order) :-0.2307495E+01  (-0.1528039E+01)
 number of electron      48.9999996 magnetization       1.0000000
 augmentation part        1.5874396 magnetization       0.1106696

 Free energy of the ion-electron system (eV)
  ---------------------------------------------------
  alpha Z        PSCENC =         0.17771760
  Ewald energy   TEWEN  =      4993.77063771
  -Hartree energ DENC   =     -6289.04194454
  -exchange      EXHF   =       112.66512583
  -V(xc)+E(xc)   XCENC  =       130.59751921
  PAW double counting   =      4475.80703447    -4481.13910806
  entropy T*S    EENTRO =        -0.00000000
  eigenvalues    EBANDS =      -791.55751622
  atomic energy  EATOM  =      1833.91545648
  ---------------------------------------------------
  free energy    TOTEN  =      -125.30206364 eV

  energy without entropy =     -125.30206364  energy(sigma->0) =     -125.30206364
  exchange ACFDT corr.  =        -0.00000000  see jH, gK, PRB 81, 115126


--------------------------------------------------------------------------------------------------------




--------------------------------------- Iteration      1(  16)  ---------------------------------------


    --------------------------------------------
      INIT:  cpu time      0.5621: real time      0.5621
  FINALIZE:  cpu time     68.2614: real time     68.2608
    --------------------------------------------
    POTLOK:  cpu time     96.6273: real time     96.6265
    SETDIJ:  cpu time      0.0674: real time      0.0674
    TRIAL :  cpu time    136.0577: real time    136.0567
    CORREC:  cpu time      0.0049: real time      0.0049
    CHARGE:  cpu time      2.8801: real time      2.8801
    --------------------------------------------
      LOOP:  cpu time    235.6704: real time    235.6749

 eigenvalue-minimisations  :     0
 total energy-change (2. order) :-0.9291533E+00  (-0.6249881E+00)
 number of electron      48.9999996 magnetization       1.0000001
 augmentation part        1.5955746 magnetization       0.1061089

 Free energy of the ion-electron system (eV)
  ---------------------------------------------------
  alpha Z        PSCENC =         0.17771760
  Ewald energy   TEWEN  =      4993.77063771
  -Hartree energ DENC   =     -6295.40471973
  -exchange      EXHF   =       112.78605934
  -V(xc)+E(xc)   XCENC  =       130.68114836
  PAW double counting   =      4473.20483618    -4478.54680761
  entropy T*S    EENTRO =        -0.00000000
  eigenvalues    EBANDS =      -789.23411906
  atomic energy  EATOM  =      1833.91545648
  ---------------------------------------------------
  free energy    TOTEN  =      -126.23121697 eV

  energy without entropy =     -126.23121697  energy(sigma->0) =     -126.23121697
  exchange ACFDT corr.  =         0.00000000  see jH, gK, PRB 81, 115126


--------------------------------------------------------------------------------------------------------




--------------------------------------- Iteration      1(  17)  ---------------------------------------


    --------------------------------------------
      INIT:  cpu time      0.7453: real time      0.7453
  FINALIZE:  cpu time     68.0879: real time     68.0880
    --------------------------------------------
    POTLOK:  cpu time     95.0609: real time     95.0609
    SETDIJ:  cpu time      0.0678: real time      0.0678
    TRIAL :  cpu time    135.4423: real time    135.4421
    CORREC:  cpu time      0.3712: real time      0.3712
    CHARGE:  cpu time      2.8735: real time      2.8735
    --------------------------------------------
      LOOP:  cpu time    233.8331: real time    233.8397

 eigenvalue-minimisations  :     0
 total energy-change (2. order) :-0.3810960E+00  (-0.3171647E+00)
 number of electron      48.9999996 magnetization       1.0000001
 augmentation part        1.6010946 magnetization       0.1020097

 Free energy of the ion-electron system (eV)
  ---------------------------------------------------
  alpha Z        PSCENC =         0.17771760
  Ewald energy   TEWEN  =      4993.77063771
  -Hartree energ DENC   =     -6296.24888554
  -exchange      EXHF   =       112.80390130
  -V(xc)+E(xc)   XCENC  =       130.68123277
  PAW double counting   =      4481.77780454    -4487.11925883
  entropy T*S    EENTRO =        -0.00000000
  eigenvalues    EBANDS =      -789.57859876
  atomic energy  EATOM  =      1833.91545648
  ---------------------------------------------------
  free energy    TOTEN  =      -126.61231301 eV

  energy without entropy =     -126.61231301  energy(sigma->0) =     -126.61231301
  exchange ACFDT corr.  =        -0.00000000  see jH, gK, PRB 81, 115126


--------------------------------------------------------------------------------------------------------




--------------------------------------- Iteration      1(  18)  ---------------------------------------


    --------------------------------------------
      INIT:  cpu time      0.5819: real time      0.5819
  FINALIZE:  cpu time     68.9142: real time     68.9144
    --------------------------------------------
    POTLOK:  cpu time     95.6151: real time     95.6152
    SETDIJ:  cpu time      0.0665: real time      0.0665
    TRIAL :  cpu time    135.6579: real time    135.6575
    CORREC:  cpu time      0.3755: real time      0.3755
    CHARGE:  cpu time      2.8910: real time      2.8910
    --------------------------------------------
      LOOP:  cpu time    234.6221: real time    234.6285

 eigenvalue-minimisations  :     0
 total energy-change (2. order) :-0.2084635E+00  (-0.1723763E+00)
 number of electron      48.9999996 magnetization       1.0000001
 augmentation part        1.6048044 magnetization       0.0985247

 Free energy of the ion-electron system (eV)
  ---------------------------------------------------
  alpha Z        PSCENC =         0.17771760
  Ewald energy   TEWEN  =      4993.77063771
  -Hartree energ DENC   =     -6297.53997419
  -exchange      EXHF   =       112.83418302
  -V(xc)+E(xc)   XCENC  =       130.69947324
  PAW double counting   =      4497.07364314    -4502.41450246
  entropy T*S    EENTRO =        -0.00000000
  eigenvalues    EBANDS =      -788.92171949
  atomic energy  EATOM  =      1833.91545648
  ---------------------------------------------------
  free energy    TOTEN  =      -126.82077655 eV

  energy without entropy =     -126.82077655  energy(sigma->0) =     -126.82077655
  exchange ACFDT corr.  =         0.00000000  see jH, gK, PRB 81, 115126


--------------------------------------------------------------------------------------------------------




--------------------------------------- Iteration      1(  19)  ---------------------------------------


    --------------------------------------------
      INIT:  cpu time      0.5726: real time      0.5726
  FINALIZE:  cpu time     69.2924: real time     69.2918
    --------------------------------------------
    POTLOK:  cpu time     95.7306: real time     95.7298
    SETDIJ:  cpu time      0.0675: real time      0.0675
    TRIAL :  cpu time    135.2347: real time    135.2338
    CORREC:  cpu time      0.2130: real time      0.2130
    CHARGE:  cpu time      3.0705: real time      3.0705
    --------------------------------------------
      LOOP:  cpu time    234.3504: real time    234.3556

 eigenvalue-minimisations  :     0
 total energy-change (2. order) :-0.1192799E+00  (-0.9157492E-01)
 number of electron      48.9999996 magnetization       1.0000001
 augmentation part        1.6063953 magnetization       0.0960844

 Free energy of the ion-electron system (eV)
  ---------------------------------------------------
  alpha Z        PSCENC =         0.17771760
  Ewald energy   TEWEN  =      4993.77063771
  -Hartree energ DENC   =     -6298.83015333
  -exchange      EXHF   =       112.86469956
  -V(xc)+E(xc)   XCENC  =       130.72272970
  PAW double counting   =      4513.86682793    -4519.20651025
  entropy T*S    EENTRO =        -0.00000000
  eigenvalues    EBANDS =      -788.04594020
  atomic energy  EATOM  =      1833.91545648
  ---------------------------------------------------
  free energy    TOTEN  =      -126.94005647 eV

  energy without entropy =     -126.94005647  energy(sigma->0) =     -126.94005647
  exchange ACFDT corr.  =        -0.00000000  see jH, gK, PRB 81, 115126


--------------------------------------------------------------------------------------------------------




--------------------------------------- Iteration      1(  20)  ---------------------------------------


    --------------------------------------------
      INIT:  cpu time      0.3870: real time      0.3870
  FINALIZE:  cpu time     73.1428: real time     73.1431
    --------------------------------------------
    POTLOK:  cpu time     99.1164: real time     99.1167
    SETDIJ:  cpu time      0.0718: real time      0.0718
    TRIAL :  cpu time    136.1374: real time    136.1370
    CORREC:  cpu time      0.1573: real time      0.1573
    CHARGE:  cpu time      3.0882: real time      3.0882
    --------------------------------------------
      LOOP:  cpu time    238.5965: real time    238.6026

 eigenvalue-minimisations  :     0
 total energy-change (2. order) :-0.6543562E-01  (-0.4771301E-01)
 number of electron      48.9999996 magnetization       1.0000001
 augmentation part        1.6073480 magnetization       0.0942902

 Free energy of the ion-electron system (eV)
  ---------------------------------------------------
  alpha Z        PSCENC =         0.17771760
  Ewald energy   TEWEN  =      4993.77063771
  -Hartree energ DENC   =     -6299.17498235
  -exchange      EXHF   =       112.87662717
  -V(xc)+E(xc)   XCENC  =       130.72962321
  PAW double counting   =      4529.01791953    -4534.35337146
  entropy T*S    EENTRO =        -0.00000000
  eigenvalues    EBANDS =      -787.88809701
  atomic energy  EATOM  =      1833.91545648
  ---------------------------------------------------
  free energy    TOTEN  =      -127.00549209 eV

  energy without entropy =     -127.00549209  energy(sigma->0) =     -127.00549209
  exchange ACFDT corr.  =         0.00000000  see jH, gK, PRB 81, 115126


--------------------------------------------------------------------------------------------------------




--------------------------------------- Iteration      1(  21)  ---------------------------------------


    --------------------------------------------
      INIT:  cpu time      0.7831: real time      0.7831
  FINALIZE:  cpu time     80.8380: real time     80.8373
    --------------------------------------------
    POTLOK:  cpu time    107.8153: real time    107.8143
    SETDIJ:  cpu time      0.0692: real time      0.0692
    TRIAL :  cpu time    135.8229: real time    135.8236
    CORREC:  cpu time      0.2573: real time      0.2573
    CHARGE:  cpu time      3.0750: real time      3.0750
    --------------------------------------------
      LOOP:  cpu time    247.0616: real time    247.0684

 eigenvalue-minimisations  :     0
 total energy-change (2. order) :-0.3492497E-01  (-0.2447867E-01)
 number of electron      48.9999996 magnetization       1.0000001
 augmentation part        1.6082819 magnetization       0.0929445

 Free energy of the ion-electron system (eV)
  ---------------------------------------------------
  alpha Z        PSCENC =         0.17771760
  Ewald energy   TEWEN  =      4993.77063771
  -Hartree energ DENC   =     -6299.26125381
  -exchange      EXHF   =       112.88345183
  -V(xc)+E(xc)   XCENC  =       130.73078680
  PAW double counting   =      4541.83770420    -4547.16918223
  entropy T*S    EENTRO =        -0.00000000
  eigenvalues    EBANDS =      -787.91050572
  atomic energy  EATOM  =      1833.91545648
  ---------------------------------------------------
  free energy    TOTEN  =      -127.04041706 eV

  energy without entropy =     -127.04041706  energy(sigma->0) =     -127.04041706
  exchange ACFDT corr.  =        -0.00000000  see jH, gK, PRB 81, 115126


--------------------------------------------------------------------------------------------------------




--------------------------------------- Iteration      1(  22)  ---------------------------------------


    --------------------------------------------
      INIT:  cpu time      0.5701: real time      0.5702
  FINALIZE:  cpu time     71.6183: real time     71.6190
    --------------------------------------------
    POTLOK:  cpu time     96.4170: real time     96.4177
[...]


--------------------------------------------------------------------------------------------------------




--------------------------------------- Iteration      1(  53)  ---------------------------------------


    --------------------------------------------
      INIT:  cpu time      0.5938: real time      0.5937
  FINALIZE:  cpu time     72.5412: real time     72.5407
    --------------------------------------------
    POTLOK:  cpu time     94.8712: real time     94.8704
    SETDIJ:  cpu time      0.0673: real time      0.0673
    TRIAL :  cpu time    135.0311: real time    135.0302
    CORREC:  cpu time      0.1059: real time      0.1059
    CHARGE:  cpu time      2.8890: real time      2.8890
    --------------------------------------------
      LOOP:  cpu time    232.9865: real time    232.9910

 eigenvalue-minimisations  :     0
 total energy-change (2. order) :-0.9148169E-05  (-0.1002229E-04)
 number of electron      48.9999996 magnetization       1.0000001
 augmentation part        1.6110600 magnetization       0.0874043

 Free energy of the ion-electron system (eV)
  ---------------------------------------------------
  alpha Z        PSCENC =         0.17771760
  Ewald energy   TEWEN  =      4993.77063771
  -Hartree energ DENC   =     -6299.64955362
  -exchange      EXHF   =       112.93273584
  -V(xc)+E(xc)   XCENC  =       130.74874230
  PAW double counting   =      4579.02232155    -4584.34752378
  entropy T*S    EENTRO =        -0.00000000
  eigenvalues    EBANDS =      -787.74135457
  atomic energy  EATOM  =      1833.91545648
  ---------------------------------------------------
  free energy    TOTEN  =      -127.08514870 eV

  energy without entropy =     -127.08514870  energy(sigma->0) =     -127.08514870
  exchange ACFDT corr.  =        -0.00000000  see jH, gK, PRB 81, 115126


--------------------------------------------------------------------------------------------------------




--------------------------------------- Iteration      1(  54)  ---------------------------------------


    --------------------------------------------
      INIT:  cpu time      0.9782: real time      0.9782
  FINALIZE:  cpu time     76.0979: real time     76.0981
    --------------------------------------------
    POTLOK:  cpu time     97.4106: real time     97.4108
    SETDIJ:  cpu time      0.0680: real time      0.0680
    TRIAL :  cpu time    134.8351: real time    134.8346
    CORREC:  cpu time      0.2014: real time      0.2014
    CHARGE:  cpu time      3.0708: real time      3.0708
    --------------------------------------------
      LOOP:  cpu time    235.6117: real time    235.6176

 eigenvalue-minimisations  :     0
 total energy-change (2. order) :-0.7805987E-05  (-0.9156741E-05)
 number of electron      48.9999996 magnetization       1.0000001
 augmentation part        1.6110624 magnetization       0.0873998

 Free energy of the ion-electron system (eV)
  ---------------------------------------------------
  alpha Z        PSCENC =         0.17771760
  Ewald energy   TEWEN  =      4993.77063771
  -Hartree energ DENC   =     -6299.65001286
  -exchange      EXHF   =       112.93289509
  -V(xc)+E(xc)   XCENC  =       130.74880622
  PAW double counting   =      4579.02644127    -4584.35164593
  entropy T*S    EENTRO =        -0.00000000
  eigenvalues    EBANDS =      -787.74102156
  atomic energy  EATOM  =      1833.91545648
  ---------------------------------------------------
  free energy    TOTEN  =      -127.08515650 eV

  energy without entropy =     -127.08515650  energy(sigma->0) =     -127.08515650
  exchange ACFDT corr.  =        -0.00000000  see jH, gK, PRB 81, 115126


--------------------------------------------------------------------------------------------------------


  average scaling for gradient   2.0227


 average (electrostatic) potential at core
  the test charge radii are     0.6991  0.7215  0.5201
  (the norm of the test charge is              1.0000)
       1 -57.1165       2 -59.1943       3 -57.0490       4 -57.1200       5 -57.9889
       6 -57.2805       7 -57.0446       8 -57.0536       9 -57.3212      10 -77.6360
      11 -39.6582      12 -40.7151      13 -39.5690      14 -39.6113      15 -39.1427
      16 -39.2806      17 -39.2804      18 -39.8517
 
 
 
 E-fermi :  -7.8373     XC(G=0):  -0.0237     alpha+bet : -0.0186

 Fermi energy:        -7.8372639061

 spin component 1

 k-point     1 :       0.0000    0.0000    0.0000
  band No.  band energies     occupation 
      1     -32.1072      1.00000
      2     -25.9101      1.00000
      3     -23.7146      1.00000
      4     -22.8919      1.00000
      5     -22.2085      1.00000
      6     -21.0464      1.00000
      7     -18.9893      1.00000
      8     -18.5157      1.00000
      9     -14.8299      1.00000
     10     -16.8764      1.00000
     11     -15.3281      1.00000
     12     -15.3762      1.00000
     13     -16.2534      1.00000
     14     -13.0524      1.00000
     15     -12.6003      1.00000
     16     -13.5088      1.00000
     17     -13.8907      1.00000
     18     -12.6111      1.00000
     19     -11.7151      1.00000
     20     -10.7583      1.00000
     21     -11.5355      1.00000
     22      -9.9784      1.00000
     23      -9.1052      1.00000
     24      -0.9120      0.00000
     25      -9.3226      1.00000
     26      -8.0637      1.00000
     27      -0.5992      0.00000
     28      -2.5287      0.00000
     29      -3.3559      0.00000
     30      -0.2185      0.00000
     31      -0.1380      0.00000
     32      -0.1388      0.00000
     33       0.0337      0.00000
     34       0.1226      0.00000
     35       0.0967      0.00000
     36       0.1634      0.00000
     37       0.1325      0.00000
     38       0.0677      0.00000
     39       0.1157      0.00000
     40       0.2129      0.00000
     41       0.1465      0.00000
     42       0.2155      0.00000
     43       0.2242      0.00000
     44       0.2199      0.00000
     45       0.2433      0.00000
     46       0.2526      0.00000
     47       0.1411      0.00000
     48       0.2057      0.00000
 Fermi energy:        -7.8372639061

 spin component 2

 k-point     1 :       0.0000    0.0000    0.0000
  band No.  band energies     occupation 
      1     -31.8280      1.00000
      2     -25.7206      1.00000
      3     -23.4867      1.00000
      4     -22.8399      1.00000
      5     -21.9729      1.00000
      6     -20.8365      1.00000
      7     -18.8652      1.00000
      8     -18.4099      1.00000
      9     -15.2303      1.00000
     10     -16.7994      1.00000
     11     -15.3173      1.00000
     12     -13.0027      1.00000
     13     -16.1533      1.00000
     14     -14.3228      1.00000
     15     -13.8265      1.00000
     16     -13.4865      1.00000
     17     -12.5736      1.00000
     18     -11.6750      1.00000
     19     -12.1668      1.00000
     20      -2.2125      0.00000
     21     -10.9741      1.00000
     22      -8.9616      1.00000
     23      -0.8708      0.00000
     24     -10.6740      1.00000
     25      -2.6236      0.00000
     26      -6.3864      0.00000
     27      -9.1993      1.00000
     28      -9.2280      1.00000
     29      -0.5810      0.00000
     30       0.0333      0.00000
     31      -0.1184      0.00000
     32      -0.1947      0.00000
     33       0.0872      0.00000
     34       0.1160      0.00000
     35       0.0834      0.00000
     36       0.1336      0.00000
     37       0.1433      0.00000
     38       0.2128      0.00000
     39       0.1532      0.00000
     40       0.1242      0.00000
     41       0.1539      0.00000
     42       0.2180      0.00000
     43       0.2141      0.00000
     44       0.2267      0.00000
     45       0.2347      0.00000
     46       0.2065      0.00000
     47       0.2489      0.00000
     48       0.2585      0.00000


--------------------------------------------------------------------------------------------------------


 soft charge-density along one line, spin component           1
         0         1         2         3         4         5         6         7         8         9
 total charge-density along one line
 
 soft charge-density along one line, spin component           2
         0         1         2         3         4         5         6         7         8         9
 total charge-density along one line
 
 pseudopotential strength for first ion, spin component:           1
 10.118  13.457   0.003   0.000  -0.000  -0.011  -0.000  -0.000
 13.457  17.897   0.004   0.000  -0.000  -0.014  -0.000  -0.000
  0.003   0.004  -4.317   0.000   0.002   8.416  -0.000  -0.004
  0.000   0.000   0.000  -4.321  -0.000  -0.000   8.426   0.000
 -0.000  -0.000   0.002  -0.000  -4.317  -0.004   0.000   8.415
 -0.011  -0.014   8.416  -0.000  -0.004 -18.528   0.000   0.007
 -0.000  -0.000  -0.000   8.426   0.000   0.000 -18.553  -0.000
 -0.000  -0.000  -0.004   0.000   8.415   0.007  -0.000 -18.525
 pseudopotential strength for first ion, spin component:           2
 10.109  13.445   0.004   0.000  -0.000  -0.011  -0.000  -0.000
 13.445  17.880   0.005   0.000  -0.000  -0.015  -0.000  -0.000
  0.004   0.005  -4.317   0.000   0.002   8.418  -0.000  -0.004
  0.000   0.000   0.000  -4.311   0.000  -0.000   8.409  -0.000
 -0.000  -0.000   0.002   0.000  -4.317  -0.004  -0.000   8.416
 -0.011  -0.015   8.418  -0.000  -0.004 -18.535   0.000   0.008
 -0.000  -0.000  -0.000   8.409  -0.000   0.000 -18.526   0.000
 -0.000  -0.000  -0.004  -0.000   8.416   0.008   0.000 -18.531
 total augmentation occupancy for first ion, spin component:           1
  8.905  -4.038   0.177   0.000   0.216   0.043   0.000   0.040
 -4.038   1.869  -0.147  -0.000  -0.129  -0.028  -0.000  -0.023
  0.177  -0.147   1.782   0.000  -0.003   0.168   0.000  -0.008
  0.000  -0.000   0.000   1.169  -0.000   0.000   0.074  -0.000
  0.216  -0.129  -0.003  -0.000   1.896  -0.008  -0.000   0.181
  0.043  -0.028   0.168   0.000  -0.008   0.017   0.000  -0.002
  0.000  -0.000   0.000   0.074  -0.000   0.000   0.005  -0.000
  0.040  -0.023  -0.008  -0.000   0.181  -0.002  -0.000   0.018
 total augmentation occupancy for first ion, spin component:           2
  0.000   0.002   0.005  -0.000  -0.006   0.001  -0.000  -0.002
  0.002  -0.001  -0.006   0.000   0.006  -0.001   0.000   0.001
  0.005  -0.006  -0.003   0.000   0.002   0.000  -0.000  -0.000
 -0.000   0.000   0.000   0.087   0.000  -0.000   0.003  -0.000
 -0.006   0.006   0.002   0.000   0.001  -0.000  -0.000   0.000
  0.001  -0.001   0.000  -0.000  -0.000   0.000  -0.000  -0.000
 -0.000   0.000  -0.000   0.003  -0.000  -0.000   0.000  -0.000
 -0.002   0.001  -0.000  -0.000   0.000  -0.000  -0.000  -0.000


------------------------ aborting loop because EDIFF is reached ----------------------------------------


    FORLOC:  cpu time      0.3069: real time      0.3069
    FORHF :  cpu time     75.8037: real time     75.8031
    FORNL :  cpu time      3.9008: real time      3.9008
    STRESS:  cpu time     11.8986: real time     11.8986
    FORCOR:  cpu time     18.3248: real time     18.3247
    OFIELD:  cpu time      0.0202: real time      0.0202
 WARNING: Using user supplied parameters
     VDW_A1 = 0.383
     VDW_A2 = 5.685
     VDW_S8 = 2.31
     because the xc functional is not supported. Required parameters not
     defined in the INCAR file will be replaced with PBE defaults ones.


 ---------------------------------------------------------------------------------------------

         DFTD3 V3.0 Rev 1        
 IVDW         = 12
 DF unknown   
 parameters
 VDW_S6       =    1.0000
 VDW_S8       =    2.3100
 VDW_A1       =    0.3830
 VDW_A2       =    5.6850
 k1-k3        =   16.0000    1.3333   -4.0000
 VDW_RADIUS   =   50.2022 A
 VDW_CNRADIUS =   21.1671 A
 Edisp (eV)   -0.33445

 E6    (eV) :    -0.1702
 E8    (eV) :    -0.1642
 % E8        : 49.10
    FORVDW:  cpu time      0.0079: real time      0.0079

  FORCE on cell =-STRESS in cart. coord.  units (eV):
  Direction    XX          YY          ZZ          XY          YZ          ZX
  --------------------------------------------------------------------------------------
  Alpha Z     0.17772     0.17772     0.17772
  Ewald    3744.53623  1564.23351  -314.99939    78.50485     0.22653    -0.07298
  Hartree  3604.69090  1986.94833   813.98496    65.76043     0.13502    -0.08409
  E(xc)    -139.52011  -140.53468  -142.23954     0.01586     0.00023     0.00004
  Local   -7797.31306 -4063.43532 -1064.09507  -143.33313    -0.35629     0.16035
  n-local   -64.43419   -67.64020   -62.24576     1.40066    -0.00126     0.00144
  augment     2.83124     4.45995     4.60681    -0.43131     0.00021     0.00067
  Kinetic   697.77482   764.94045   813.08174    -2.12264    -0.00311    -0.00355
  Fock      -55.14579   -52.43712   -49.02830     0.45665    -0.00059    -0.00064
  vdW        -0.20190    -0.05934    -0.00187    -0.00858    -0.00000    -0.00000
  -------------------------------------------------------------------------------------
  Total      -6.60413    -3.34670    -0.75871     0.24278     0.00074     0.00124
  in kB      -0.16533    -0.08378    -0.01899     0.00608     0.00002     0.00003
  external pressure =       -0.09 kB  Pullay stress =        0.00 kB


 VOLUME and BASIS-vectors are now :
 -----------------------------------------------------------------------------
  energy-cutoff  :      500.00
  volume of cell :    64000.00
      direct lattice vectors                 reciprocal lattice vectors
    40.000000000  0.000000000  0.000000000     0.025000000  0.000000000  0.000000000
     0.000000000 40.000000000  0.000000000     0.000000000  0.025000000  0.000000000
     0.000000000  0.000000000 40.000000000     0.000000000  0.000000000  0.025000000

  length of vectors
    40.000000000 40.000000000 40.000000000     0.025000000  0.025000000  0.025000000


 FORCES acting on ions:
    Electron-Ion                     Ewald-Force                    Non-Local-Force
 -----------------------------------------------------------------------------------------------
   0.508E+02 0.176E+03 0.899E-01   -.511E+02 -.179E+03 -.905E-01   0.525E+00 0.311E+01 0.259E-03
   -.282E+01 -.123E+02 0.914E-01   0.976E+01 0.114E+02 -.938E-01   -.709E+01 0.950E+00 0.309E-02
   0.340E+02 -.199E+03 -.240E-02   -.341E+02 0.202E+03 0.346E-02   0.341E+00 -.338E+01 -.143E-02
   -.103E+03 -.173E+03 0.313E-01   0.104E+03 0.176E+03 -.312E-01   -.118E+01 -.277E+01 0.108E-02
   -.997E+02 0.550E+01 0.343E-01   0.968E+02 -.503E+01 -.352E-01   0.266E+01 -.434E+00 0.607E-03
   -.774E+02 0.180E+03 0.752E-01   0.779E+02 -.183E+03 -.755E-01   -.769E+00 0.280E+01 0.107E-02
   -.994E+02 0.718E+01 -.241E-02   0.988E+02 -.711E+01 0.216E-02   0.126E+01 -.117E+00 0.297E-03
   -.218E+03 0.190E+02 -.654E-01   0.222E+03 -.193E+02 0.672E-01   -.433E+01 0.391E+00 -.143E-02
   0.201E+03 0.109E+03 -.605E-01   -.207E+03 -.115E+03 0.621E-01   0.615E+01 0.593E+01 -.161E-02
   0.245E+03 -.177E+03 -.906E-01   -.269E+03 0.217E+03 0.109E+00   0.217E+02 -.349E+02 -.168E-01
   -.329E+02 0.823E+02 0.107E-01   0.355E+02 -.876E+02 -.110E-01   -.255E+01 0.531E+01 0.839E-04
   -.729E+02 0.661E+01 -.330E-01   0.791E+02 -.718E+01 0.360E-01   -.613E+01 0.573E+00 -.318E-02
   -.454E+02 -.763E+02 -.184E-01   0.488E+02 0.811E+02 0.199E-01   -.342E+01 -.478E+01 -.195E-02
   0.279E+02 -.866E+02 -.176E-01   -.305E+02 0.919E+02 0.191E-01   0.264E+01 -.522E+01 -.158E-02
   0.850E+02 -.162E+02 -.240E-01   -.903E+02 0.187E+02 0.255E-01   0.532E+01 -.245E+01 -.151E-02
   0.277E+02 0.509E+02 0.585E+02   -.271E+02 -.541E+02 -.632E+02   -.558E+00 0.318E+01 0.469E+01
   0.277E+02 0.509E+02 -.585E+02   -.271E+02 -.541E+02 0.632E+02   -.560E+00 0.318E+01 -.469E+01
   0.326E+02 0.816E+02 0.139E-01   -.359E+02 -.865E+02 -.141E-01   0.324E+01 0.486E+01 -.420E-04
 -----------------------------------------------------------------------------------------------
   -.202E+02 0.284E+02 0.242E-01   0.142E-13 -.711E-13 -.411E-14   0.173E+02 -.238E+02 -.220E-01
 
 
 POSITION                                       TOTAL-FORCE (eV/Angst)
 -----------------------------------------------------------------------------------
     19.54092     19.07197     19.99930         0.267451      0.022394     -0.000337
     18.95256     20.37039     19.99963        -0.549873      0.119270      0.000871
     19.76483     21.54720     19.99979         0.295055     -0.078503     -0.000450
     21.12877     21.42954     19.99968        -0.288628     -0.051150      0.001291
     21.73399     20.13341     19.99963        -0.067257      0.006683     -0.000194
     20.90854     18.96257     19.99930        -0.286768      0.105245      0.000943
     23.12221     20.00404     20.00009         0.712502     -0.066501      0.000104
     24.34015     19.89123     20.00057        -0.825835      0.076215      0.000231
     16.70542     19.48854     20.00046         0.153299      0.122377     -0.000068
     17.64948     20.59468     20.00023         0.632714     -0.532245     -0.000510
     21.38459     17.98323     19.99928        -0.110836      0.227550     -0.000177
     25.40854     19.79144     20.00112        -0.226728      0.021173     -0.000311
     21.76654     22.31166     20.00002        -0.151749     -0.200115     -0.000489
     19.26813     22.51654     20.00008         0.118069     -0.236701     -0.000102
     15.72102     19.95973     20.00074         0.235100     -0.091406      0.000004
     16.84174     18.88262     19.09600        -0.023456      0.169343      0.207030
     16.84221     18.88247     20.90478        -0.023393      0.170114     -0.207575
     18.92033     18.17874     19.99931         0.140332      0.216256     -0.000263
 -----------------------------------------------------------------------------------
    total drift:                               -0.008216      0.012193     -0.000409


--------------------------------------------------------------------------------------------------------



  FREE ENERGIE OF THE ION-ELECTRON SYSTEM (eV)
  ---------------------------------------------------
  free  energy   TOTEN  =      -127.41960566 eV

  energy  without entropy=     -127.41960566  energy(sigma->0) =     -127.41960566
 


--------------------------------------------------------------------------------------------------------


    --------------------------------------------
      INIT:  cpu time      0.5796: real time      0.5795
  FINALIZE:  cpu time     71.0075: real time     71.0131
    --------------------------------------------
    POTLOK:  cpu time     93.9758: real time     93.9814


--------------------------------------------------------------------------------------------------------


 writing wavefunctions
     LOOP+:  cpu time  13757.3819: real time  13758.3110
    4ORBIT:  cpu time      0.0000: real time      0.0000

 total amount of memory used by VASP MPI-rank0  1966021. kBytes
=======================================================================

   base      :      30000. kBytes
   nonlr-proj:       2767. kBytes
   fftplans  :     175546. kBytes
   grid      :     352056. kBytes
   one-center:         12. kBytes
   HF        :          9. kBytes
   wavefun   :      83190. kBytes
   fock_wrk  :    1322441. kBytes
 
  
  
 General timing and accounting informations for this job:
 ========================================================
  
                  Total CPU time used (sec):    13809.979
                            User time (sec):     8198.047
                          System time (sec):     5611.932
                         Elapsed time (sec):    13811.885
  
                   Maximum memory used (kb):     3334696.
                   Average memory used (kb):          N/A
  
                          Minor page faults:    103475819
                          Major page faults:            0
                 Voluntary context switches:         4108
