
                                 *****************
                                 * O   R   C   A *
                                 *****************

                                            #,                                       
                                            ###                                      
                                            ####                                     
                                            #####                                    
                                            ######                                   
                                           ########,                                 
                                     ,,################,,,,,                         
                               ,,#################################,,                 
                          ,,##########################################,,             
                       ,#########################################, ''#####,          
                    ,#############################################,,   '####,        
                  ,##################################################,,,,####,       
                ,###########''''           ''''###############################       
              ,#####''   ,,,,##########,,,,          '''####'''          '####       
            ,##' ,,,,###########################,,,                        '##       
           ' ,,###''''                  '''############,,,                           
         ,,##''                                '''############,,,,        ,,,,,,###''
      ,#''                                            '''#######################'''  
     '                                                          ''''####''''         
             ,#######,   #######,   ,#######,      ##                                
            ,#'     '#,  ##    ##  ,#'     '#,    #''#        ,####,   ,####,        
            ##       ##  ##   ,#'  ##            #'  '#       #'       #'  '#        
            ##       ##  #######   ##           ,######,      #####,   #    #        
            '#,     ,#'  ##    ##  '#,     ,#' ,#      #,     #,   #   #,  ,#        
             '#######'   ##     ##  '#######'  #'      '#     '####' # '####'        



                #########################################################
                #                        -***-                          #
                #          Department of theory and spectroscopy        #
                #                                                       #
                #                      Frank Neese                      #
                #                                                       #
                #     Directorship, Architecture, Infrastructure        #
                #                    SHARK, DRIVERS                     #
                #        Core code/Algorithms in most modules           #
                #                                                       #
                #        Max Planck Institute fuer Kohlenforschung      #
                #                Kaiser Wilhelm Platz 1                 #
                #                 D-45470 Muelheim/Ruhr                 #
                #                      Germany                          #
                #                                                       #
                #                  All rights reserved                  #
                #                        -***-                          #
                #########################################################


                         Program Version 6.0.0  -   RELEASE  -


 With contributions from (in alphabetic order):
   Daniel Aravena         : Magnetic Suceptibility
   Michael Atanasov       : Ab Initio Ligand Field Theory (pilot matlab implementation)
   Alexander A. Auer      : GIAO ZORA, VPT2 properties, NMR spectrum
   Ute Becker             : All parallelization in ORCA, NUMFREQ, NUMCALC
   Giovanni Bistoni       : ED, misc. LED, open-shell LED, HFLD
   Martin Brehm           : Molecular dynamics
   Dmytro Bykov           : pre 5.0 version of the SCF Hessian
   Marcos Casanova-Páez   : Triplet and SCS-CIS(D). UHF-(DLPNO)-IP/EA/STEOM-CCSD. UHF-CVS-IP/STEOM-CCSD
   Vijay G. Chilkuri      : MRCI spin determinant printing, contributions to CSF-ICE
   Pauline Colinet        : FMM embedding
   Dipayan Datta          : RHF DLPNO-CCSD density
   Achintya Kumar Dutta   : EOM-CC, STEOM-CC
   Nicolas Foglia         : Exact transition moments, OPA infrastructure, MCD improvements
   Dmitry Ganyushin       : Spin-Orbit,Spin-Spin,Magnetic field MRCI
   Miquel Garcia          : C-PCM and meta-GGA Hessian, CCSD/C-PCM, Gaussian charge scheme
   Tiago L. C. Gouveia    : GS-ROHF, GS-ROCIS
   Yang Guo               : DLPNO-NEVPT2, F12-NEVPT2, CIM, IAO-localization
   Andreas Hansen         : Spin unrestricted coupled pair/coupled cluster methods
   Ingolf Harden          : AUTO-CI MPn and infrastructure 
   Benjamin Helmich-Paris : MC-RPA, TRAH-(SCF,CASSCF), AVAS, COSX integrals, SCF dyn. polar.
   Lee Huntington         : MR-EOM, pCC
   Robert Izsak           : Overlap fitted RIJCOSX, COSX-SCS-MP3, EOM
   Riya Kayal             : Wick's Theorem for AUTO-CI, AUTO-CI UHF-CCSDT
   Emily Kempfer          : AUTO-CI, RHF CISDT and CCSDT
   Christian Kollmar      : KDIIS, OOCD, Brueckner-CCSD(T), CCSD density, CASPT2, CASPT2-K, improved NEVPT2
   Axel Koslowski         : Symmetry handling
   Simone Kossmann        : Meta GGA functionals, TD-DFT gradient, OOMP2, (MP2 Hessian; deprecated post 5.0)
   Lucas Lang             : DCDCAS
   Marvin Lechner         : AUTO-CI (C++ implementation), FIC-MRCC
   Spencer Leger          : CASSCF response
   Dagmar Lenk            : GEPOL surface, SMD, ORCA-2-JSON
   Dimitrios Liakos       : Extrapolation schemes; Compound Job, initial MDCI parallelization
   Dimitrios Manganas     : Further ROCIS development; embedding schemes. LFT, Crystal Embedding
   Dimitrios Pantazis     : SARC Basis sets
   Anastasios Papadopoulos: AUTO-CI, single reference methods and gradients
   Taras Petrenko         : pre 6.0 DFT Hessian and TD-DFT gradient, (ASA, deprecated), ECA, 1-Electron XAS/XES, NRVS
   Peter Pinski           : DLPNO-MP2, DLPNO-MP2 Gradient
   Christoph Reimann      : Effective Core Potentials
   Marius Retegan         : Local ZFS, SOC
   Christoph Riplinger    : Optimizer, TS searches, QM/MM, DLPNO-CCSD(T), (RO)-DLPNO pert. Triples
   Michael Roemelt        : Original ROCIS implementation
   Masaaki Saitow         : Open-shell DLPNO-CCSD energy and density
   Barbara Sandhoefer     : DKH picture change effects
   Kantharuban Sivalingam : CASSCF convergence/infrastructure, NEVPT2 and variants, FIC-MRCI
   Bernardo de Souza      : ESD, SOC TD-DFT
   Georgi Stoychev        : AutoAux, RI-MP2 NMR, DLPNO-MP2 response, X2C
   Van Anh Tran           : RI-MP2 g-tensors
   Willem Van den Heuvel  : Paramagnetic NMR
   Zikuan Wang            : NOTCH, Electric field optimization 
   Frank Wennmohs         : Technical directorship and infrastructure
   Hang Xu                : AUTO-CI-Response properties 


 We gratefully acknowledge several colleagues who have allowed us to
 interface, adapt or use parts of their codes:
   Stefan Grimme, W. Hujo, H. Kruse, P. Pracht,  : VdW corrections, initial TS optimization,
                  C. Bannwarth, S. Ehlert,         DFT functionals, gCP, sTDA/sTD-DF
                  L. Wittmann, M. Mueller
   Ed Valeev, F. Pavosevic, A. Kumar             : LibInt (2-el integral package), F12 methods
   Garnet Chan, S. Sharma, J. Yang, R. Olivares  : DMRG
   Ulf Ekstrom                                   : XCFun DFT Library
   Mihaly Kallay                                 : mrcc  (arbitrary order and MRCC methods)
   Frank Weinhold                                : gennbo (NPA and NBO analysis)
   Simon Mueller                                 : openCOSMO-RS
   Christopher J. Cramer and Donald G. Truhlar   : smd solvation model
   Lars Goerigk                                  : TD-DFT with DH, B97 family of functionals
   V. Asgeirsson, H. Jonsson                     : NEB implementation
   FAccTs GmbH                                   : IRC, NEB, NEB-TS, DLPNO-Multilevel, CI-OPT
                                                   MM, QMMM, 2- and 3-layer-ONIOM, Crystal-QMMM,
                                                   LR-CPCM, SF, NACMEs, symmetry and pop. for TD-DFT,
                                                   nearIR, NL-DFT gradient (VV10), updates on ESD,
                                                   ML-optimized integration grids, MBIS, APM,
                                                   GOAT, DOCKER, SOLVATOR, interface openCOSMO-RS
   S Lehtola, MJT Oliveira, MAL Marques          : LibXC Library
   Liviu Ungur et al                             : ANISO software


 Your calculation uses the libint2 library for the computation of 2-el integrals
 For citations please refer to: http://libint.valeyev.net

 Your ORCA version has been built with support for libXC version: 6.2.2
 For citations please refer to: https://libxc.gitlab.io

 This ORCA versions uses:
   CBLAS   interface :  Fast vector & matrix operations
   LAPACKE interface :  Fast linear algebra routines
   SCALAPACK package :  Parallel linear algebra routines
   Shared memory     :  Shared parallel matrices
   BLAS/LAPACK       :  OpenBLAS 0.3.27  USE64BITINT DYNAMIC_ARCH NO_AFFINITY Sandybridge SINGLE_THREADED
        Core in use  :  Sandybridge
   Copyright (c) 2011-2014, The OpenBLAS Project


NOTE: MaxCore=3000 MB was set to SCF,MP2,MDCI,CIPSI,MRCI and CIS
      => If you want to overwrite this, your respective input block should be placed after the MaxCore statement
Your calculation utilizes the atom-pairwise dispersion correction
with the Becke-Johnson damping scheme (D3BJ)


Your calculation utilizes the SMD solvation module
Please cite in your paper:
A.V. Marenich, C.J. Cramer, D.G. Truhlar J. Phys. Chem. B, 113, (2009), 6378 

Warning: RI is on but no J-basis has been assigned. Assigning Def2/J (nothing to worry about!)
================================================================================

----- Orbital basis set information -----
Your calculation utilizes the basis: aug-cc-pVTZ 
    H, B-Ne : Obtained from the ccRepo (grant-hill.group.shef.ac.uk/ccrepo) Feb. 2017
              R. A. Kendall, T. H. Dunning, Jr., R. J. Harrison, J. Chem. Phys. 96, 6796 (1992)
         He : Obtained from the ccRepo (grant-hill.group.shef.ac.uk/ccrepo) Feb. 2017
              D. E. Woon, T. H. Dunning, Jr., J. Chem. Phys. 100, 2975 (1994)
  Li-Be, Na : Obtained from the ccRepo (grant-hill.group.shef.ac.uk/ccrepo) Feb. 2017
              B. P. Prascher, D. E. Woon, K. A. Peterson, T. H. Dunning, Jr., A. K. Wilson, Theor. Chem. Acc. 128, 69 (2011)
         Mg : Obtained from the Peterson Research Group Website (tyr0.chem.wsu.edu/~kipeters) Feb. 2017
              B. P. Prascher, D. E. Woon, K. A. Peterson, T. H. Dunning, Jr., A. K. Wilson, Theor. Chem. Acc. 128, 69 (2011)
      Al-Ar : Obtained from the ccRepo (grant-hill.group.shef.ac.uk/ccrepo) Feb. 2017
              D. E. Woon, T. H. Dunning, Jr., J. Chem. Phys. 98, 1358 (1993)
      Sc-Zn : Obtained from the ccRepo (grant-hill.group.shef.ac.uk/ccrepo) Feb. 2017
              N. B. Balabanov, K. A. Peterson, J. Chem. Phys. 123, 064107 (2005)
              N. B. Balabanov, K. A. Peterson, J. Chem. Phys. 125, 074110 (2006)
      Ga-Kr : Obtained from the ccRepo (grant-hill.group.shef.ac.uk/ccrepo) Feb. 2017
              A. K. Wilson, D. E. Woon, K. A. Peterson, T. H. Dunning, Jr., J. Chem. Phys. 110, 7667 (1999)
     Ag, Au : Obtained from the Peterson Research Group Website (tyr0.chem.wsu.edu/~kipeters) Feb. 2017
              K. A. Peterson, C. Puzzarini, Theor. Chem. Acc. 114, 283 (2005)

----- AuxJ basis set information -----
Your calculation utilizes the auxiliary basis: def2/J
   F. Weigend, Phys. Chem. Chem. Phys. 8, 1057 (2006).

================================================================================
                                        WARNINGS
                       Please study these warnings very carefully!
================================================================================


================================================================================
                                       INPUT FILE
================================================================================
NAME = cs_rporg_005_red_solv_04.inp
|  1> !PBE0 aug-cc-pVTZ d3 TightSCF SlowConv RIJCOSX defgrid2
|  2>  
|  3> %pal
|  4> nprocs 4
|  5> end
|  6>  
|  7> %scf
|  8> MaxIter 1500
|  9> end
| 10>  
| 11> %maxcore 3000
| 12>  
| 13> !CPCM
| 14> %cpcm smd true
| 15> SMDsolvent "MeCN"
| 16> surfacetype gepol_ses
| 17> rsolv 2.19
| 18> end 
| 19>  
| 20> * xyz 0 1
| 21>   C          -1.20570013774955     -1.10039697930563      0.01543175480109
| 22>   C           0.00111933111067     -1.79372463480323      0.03716937828290
| 23>   C           1.21118544677794     -1.10088196681091      0.03388616244552
| 24>   C           1.22835326598804      0.29682839071349      0.00494538015242
| 25>   C           2.52368903063881      1.05844071578900     -0.03593104667324
| 26>   H           2.48341162103777      1.96024689395608      0.59889265106332
| 27>   H           3.36770598220524      0.43706826741282      0.30599555459239
| 28>   H           2.75516930508487      1.39410942865254     -1.06399807973417
| 29>   C           0.00347119857744      0.97499778484913     -0.01291371518520
| 30>   C          -1.22031342403745      0.30000889914392     -0.00614524998718
| 31>   C          -2.51971268891073      1.05570005797022      0.00936042521607
| 32>   H          -2.39731022829722      2.08016889230358     -0.37956919154311
| 33>   H          -2.91823280700184      1.13851573828558      1.03779552551247
| 34>   H          -3.28893296665078      0.54842098009693     -0.59747808691160
| 35>   H           0.00394355087374      2.07111276662115     -0.03278330541863
| 36>   H           2.15666081819569     -1.65279950277184      0.05208747237142
| 37>   H           0.00027512568056     -2.88802960033678      0.05674445713596
| 38>   H          -2.15204978452320     -1.65147955576605      0.01700562287958
| 39> *
| 40> 
| 41>                          ****END OF INPUT****
================================================================================

                       ****************************
                       * Single Point Calculation *
                       ****************************

---------------------------------
CARTESIAN COORDINATES (ANGSTROEM)
---------------------------------
  C     -1.205700   -1.100397    0.015432
  C      0.001119   -1.793725    0.037169
  C      1.211185   -1.100882    0.033886
  C      1.228353    0.296828    0.004945
  C      2.523689    1.058441   -0.035931
  H      2.483412    1.960247    0.598893
  H      3.367706    0.437068    0.305996
  H      2.755169    1.394109   -1.063998
  C      0.003471    0.974998   -0.012914
  C     -1.220313    0.300009   -0.006145
  C     -2.519713    1.055700    0.009360
  H     -2.397310    2.080169   -0.379569
  H     -2.918233    1.138516    1.037796
  H     -3.288933    0.548421   -0.597478
  H      0.003944    2.071113   -0.032783
  H      2.156661   -1.652800    0.052087
  H      0.000275   -2.888030    0.056744
  H     -2.152050   -1.651480    0.017006

----------------------------
CARTESIAN COORDINATES (A.U.)
----------------------------
  NO LB      ZA    FRAG     MASS         X           Y           Z
   0 C     6.0000    0    12.011   -2.278443   -2.079449    0.029162
   1 C     6.0000    0    12.011    0.002115   -3.389648    0.070240
   2 C     6.0000    0    12.011    2.288809   -2.080365    0.064036
   3 C     6.0000    0    12.011    2.321251    0.560924    0.009345
   4 C     6.0000    0    12.011    4.769081    2.000163   -0.067900
   5 H     1.0000    0     1.008    4.692968    3.704330    1.131743
   6 H     1.0000    0     1.008    6.364042    0.825939    0.578248
   7 H     1.0000    0     1.008    5.206515    2.634485   -2.010665
   8 C     6.0000    0    12.011    0.006560    1.842479   -0.024403
   9 C     6.0000    0    12.011   -2.306058    0.566935   -0.011613
  10 C     6.0000    0    12.011   -4.761567    1.994984    0.017689
  11 H     1.0000    0     1.008   -4.530260    3.930950   -0.717282
  12 H     1.0000    0     1.008   -5.514661    2.151483    1.961149
  13 H     1.0000    0     1.008   -6.215183    1.036365   -1.129070
  14 H     1.0000    0     1.008    0.007452    3.913836   -0.061951
  15 H     1.0000    0     1.008    4.075498   -3.123338    0.098431
  16 H     1.0000    0     1.008    0.000520   -5.457585    0.107231
  17 H     1.0000    0     1.008   -4.066785   -3.120844    0.032136

--------------------------------
INTERNAL COORDINATES (ANGSTROEM)
--------------------------------
 C      0   0   0     0.000000000000     0.00000000     0.00000000
 C      1   0   0     1.391973057416     0.00000000     0.00000000
 C      2   1   0     1.394382209576   120.32167563     0.00000000
 C      3   2   1     1.398115355193   120.49361851   359.81847032
 C      4   3   2     1.503202900197   121.17522298   181.64574158
 H      5   4   3     1.103574999677   111.52660999   219.44480047
 H      5   4   3     1.102443710484   111.45166751   340.31987619
 H      5   4   3     1.105973971990   111.06387455   100.03896709
 C      4   3   2     1.400203111514   118.27593822     0.35011487
 C      9   4   3     1.397606743864   122.14157301   359.83321530
 C     10   9   4     1.503245822560   120.94081610   178.43980087
 H     11  10   9     1.102626410747   111.56016868    22.57289257
 H     11  10   9     1.106054011769   111.01913566   262.86663736
 H     11  10   9     1.103306339298   111.45958378   143.51283824
 H      9   4   3     1.096295159616   118.95425030   179.82881803
 H      3   2   1     1.094928277168   119.92470084   179.93883155
 H      2   1   3     1.094480357972   119.84270500   180.01150171
 H      1   2   3     1.095112842171   119.90345263   179.92996104

---------------------------
INTERNAL COORDINATES (A.U.)
---------------------------
 C      0   0   0     0.000000000000     0.00000000     0.00000000
 C      1   0   0     2.630447864314     0.00000000     0.00000000
 C      2   1   0     2.635000502111   120.32167563     0.00000000
 C      3   2   1     2.642055124945   120.49361851   359.81847032
 C      4   3   2     2.840641805088   121.17522298   181.64574158
 H      5   4   3     2.085454517632   111.52660999   219.44480047
 H      5   4   3     2.083316690879   111.45166751   340.31987619
 H      5   4   3     2.089987918307   111.06387455   100.03896709
 C      4   3   2     2.646000412625   118.27593822     0.35011487
 C      9   4   3     2.641093988825   122.14157301   359.83321530
 C     10   9   4     2.840722916600   120.94081610   178.43980087
 H     11  10   9     2.083661944341   111.56016868    22.57289257
 H     11  10   9     2.090139171569   111.01913566   262.86663736
 H     11  10   9     2.084946823093   111.45958378   143.51283824
 H      9   4   3     2.071697613618   118.95425030   179.82881803
 H      3   2   1     2.069114580133   119.92470084   179.93883155
 H      2   1   3     2.068268135523   119.84270500   180.01150171
 H      1   2   3     2.069463357443   119.90345263   179.92996104

---------------------
BASIS SET INFORMATION
---------------------
There are 2 groups of distinct atoms

 Group   1 Type C   : 19s6p3d2f contracted to 5s4p3d2f pattern {88111/3111/111/11}
 Group   2 Type H   : 6s3p2d contracted to 4s3p2d pattern {3111/111/11}

Atom   0C    basis set group =>   1
Atom   1C    basis set group =>   1
Atom   2C    basis set group =>   1
Atom   3C    basis set group =>   1
Atom   4C    basis set group =>   1
Atom   5H    basis set group =>   2
Atom   6H    basis set group =>   2
Atom   7H    basis set group =>   2
Atom   8C    basis set group =>   1
Atom   9C    basis set group =>   1
Atom  10C    basis set group =>   1
Atom  11H    basis set group =>   2
Atom  12H    basis set group =>   2
Atom  13H    basis set group =>   2
Atom  14H    basis set group =>   2
Atom  15H    basis set group =>   2
Atom  16H    basis set group =>   2
Atom  17H    basis set group =>   2
---------------------------------
AUXILIARY/J BASIS SET INFORMATION
---------------------------------
There are 2 groups of distinct atoms

 Group   1 Type C   : 12s5p4d2f1g contracted to 6s4p3d1f1g pattern {711111/2111/211/2/1}
 Group   2 Type H   : 5s2p1d contracted to 3s1p1d pattern {311/2/1}

Atom   0C    basis set group =>   1
Atom   1C    basis set group =>   1
Atom   2C    basis set group =>   1
Atom   3C    basis set group =>   1
Atom   4C    basis set group =>   1
Atom   5H    basis set group =>   2
Atom   6H    basis set group =>   2
Atom   7H    basis set group =>   2
Atom   8C    basis set group =>   1
Atom   9C    basis set group =>   1
Atom  10C    basis set group =>   1
Atom  11H    basis set group =>   2
Atom  12H    basis set group =>   2
Atom  13H    basis set group =>   2
Atom  14H    basis set group =>   2
Atom  15H    basis set group =>   2
Atom  16H    basis set group =>   2
Atom  17H    basis set group =>   2


           ************************************************************
           *        Program running with 4 parallel MPI-processes     *
           *              working on a common directory               *
           ************************************************************
------------------------------------------------------------------------------
                             ORCA STARTUP CALCULATIONS
                           -- RI-GTO INTEGRALS CHOSEN --
------------------------------------------------------------------------------
------------------------------------------------------------------------------
                   ___                                                        
                  /   \      - P O W E R E D   B Y -                         
                 /     \                                                     
                 |  |  |   _    _      __       _____    __    __             
                 |  |  |  | |  | |    /  \     |  _  \  |  |  /  |          
                  \  \/   | |  | |   /    \    | | | |  |  | /  /          
                 / \  \   | |__| |  /  /\  \   | |_| |  |  |/  /          
                |  |  |   |  __  | /  /__\  \  |    /   |      \           
                |  |  |   | |  | | |   __   |  |    \   |  |\   \          
                \     /   | |  | | |  |  |  |  | |\  \  |  | \   \       
                 \___/    |_|  |_| |__|  |__|  |_| \__\ |__|  \__/        
                                                                              
                      - O R C A' S   B I G   F R I E N D -                    
                                      &                                       
                       - I N T E G R A L  F E E D E R -                       
                                                                              
 v1 FN, 2020, v2 2021, v3 2022-2024                                           
------------------------------------------------------------------------------


----------------------
SHARK INTEGRAL PACKAGE
----------------------

Number of atoms                             ...     18
Number of basis functions                   ...    646
Number of shells                            ...    250
Maximum angular momentum                    ...      3
Integral batch strategy                     ... SHARK/LIBINT Hybrid
RI-J (if used) integral strategy            ... SPLIT-RIJ (Revised 2003 algorithm where possible)
Printlevel                                  ...      1
Contraction scheme used                     ... PARTIAL GENERAL contraction
Prescreening option                         ... SCHWARTZ
   Thresh                                   ... 2.500e-11
   Tcut                                     ... 2.500e-12
   Tpresel                                  ... 2.500e-12 
Coulomb Range Separation                    ... NOT USED
Exchange Range Separation                   ... NOT USED
Multipole approximations                    ... NOT USED
Finite Nucleus Model                        ... NOT USED
CABS basis                                  ... NOT available
Auxiliary Coulomb fitting basis             ... AVAILABLE
   # of basis functions in Aux-J            ...    502
   # of shells in Aux-J                     ...    170
   Maximum angular momentum in Aux-J        ...      4
Auxiliary J/K fitting basis                 ... NOT available
Auxiliary Correlation fitting basis         ... NOT available
Auxiliary 'external' fitting basis          ... NOT available

Checking pre-screening integrals            ... done (  0.0 sec) Dimension = 250
Save PGC pre-screening integrals            ... done (  0.0 sec) Dimension = 250
Calculate PGC overlap integrals             ... done (  0.1 sec) Dimension = 202
Calculating pre-screening integrals (ORCA)  ... done (  0.2 sec) Dimension = 202
Check shell pair data                       ... done (  0.0 sec)
Shell pair information
Shell pair cut-off parameter TPreSel        ...   2.5e-12
Total number of shell pairs                 ...     31375
Shell pairs after pre-screening             ...     27351
Total number of primitive shell pairs       ...     41095
Primitive shell pairs kept                  ...     33224
          la=0 lb=0:   6239 shell pairs
          la=1 lb=0:   7029 shell pairs
          la=1 lb=1:   1842 shell pairs
          la=2 lb=0:   5003 shell pairs
          la=2 lb=1:   2580 shell pairs
          la=2 lb=2:    938 shell pairs
          la=3 lb=0:   1928 shell pairs
          la=3 lb=1:    968 shell pairs
          la=3 lb=2:    688 shell pairs
          la=3 lb=3:    136 shell pairs

Calculating one electron integrals          ... done (  0.1 sec)
Calculating RI/J V-Matrix + Cholesky decomp.... done (  0.1 sec)
Calculating Nuclear repulsion               ... done (  0.0 sec) ENN=    340.618218414734 Eh

Diagonalization of the overlap matrix:
Smallest eigenvalue                        ... 5.178e-07
Time for diagonalization                   ...    0.103 sec
Threshold for overlap eigenvalues          ... 1.000e-07
Number of eigenvalues below threshold      ... 0

IMPORTANT:
Smallest eigenvalue of S below the DiffSThresh (1.000e-06) while
Thresh>1e-12 and/or TCut>1e-13! In order to avoid SCF convergence issues,
Thresh will be set to at least 1e-12 and TCut to at least 1e-13.
This can be turned off by adding %SCF DiffSThresh -1 END to the input.

Time for construction of square roots      ...    0.082 sec
Total time needed                          ...    0.280 sec

-------------------
DFT GRID GENERATION
-------------------

General Integration Accuracy     IntAcc      ... 4.388
Radial Grid Type                 RadialGrid  ... OptM3 with GC (2021)
Angular Grid (max. ang.)         AngularGrid ... 4 (Lebedev-302)
Angular grid pruning method      GridPruning ... 4 (adaptive)
Weight generation scheme         WeightScheme... mBecke (2022)
Basis function cutoff            BFCut       ... 1.0000e-11
Integration weight cutoff        WCut        ... 1.0000e-14
Partially contracted basis set               ... off
Rotationally invariant grid construction     ... off
Angular grids for H and He will be reduced by one unit
Diffuse basis detected: some atoms will have their outermost
                        angular grid increased by 1.

Total number of grid points                  ...    84171
Total number of batches                      ...     1325
Average number of points per batch           ...       63
Average number of grid points per atom       ...     4676

---------------------
SHARK GRID GENERATION
---------------------

General Integration Accuracy     IntAcc      ... 4.388
Radial Grid Type                 RadialGrid  ... OptM3 with GC (2021)
Angular Grid (max. ang.)         AngularGrid ... 4 (Lebedev-302)
Angular grid pruning method      GridPruning ... 4 (adaptive)
Weight generation scheme         WeightScheme... mBecke (2022)
Basis function cutoff            BFCut       ... 1.0000e-11
Integration weight cutoff        WCut        ... 1.0000e-14
Partially contracted basis set               ... off
Rotationally invariant grid construction     ... off
Angular grids for H and He will be reduced by one unit
Diffuse basis detected: some atoms will have their outermost
                        angular grid increased by 1.
Steep s-basis detected: some atoms will have their radial
                        grid points doubled.

Total number of grid points                  ...   134523
Total number of batches                      ...     2110
Average number of points per batch           ...       63
Average number of grid points per atom       ...     7474

--------------------
COSX GRID GENERATION
--------------------

GRIDX 1
-------
General Integration Accuracy     IntAcc      ... 3.816
Radial Grid Type                 RadialGrid  ... OptM3 with GC (2021)
Angular Grid (max. ang.)         AngularGrid ... 1 (Lebedev-50)
Angular grid pruning method      GridPruning ... 4 (adaptive)
Weight generation scheme         WeightScheme... mBecke (2022)
Basis function cutoff            BFCut       ... 1.0000e-11
Integration weight cutoff        WCut        ... 1.0000e-14
Partially contracted basis set               ... on
Rotationally invariant grid construction     ... off
Angular grids for H and He will be reduced by one unit
Diffuse basis detected: some atoms will have their outermost
                        angular grid increased by 1.

Total number of grid points                  ...    10569
Total number of batches                      ...       92
Average number of points per batch           ...      114
Average number of grid points per atom       ...      587
UseSFitting                                  ... on

GRIDX 2
-------
General Integration Accuracy     IntAcc      ... 4.020
Radial Grid Type                 RadialGrid  ... OptM3 with GC (2021)
Angular Grid (max. ang.)         AngularGrid ... 2 (Lebedev-110)
Angular grid pruning method      GridPruning ... 4 (adaptive)
Weight generation scheme         WeightScheme... mBecke (2022)
Basis function cutoff            BFCut       ... 1.0000e-11
Integration weight cutoff        WCut        ... 1.0000e-14
Partially contracted basis set               ... on
Rotationally invariant grid construction     ... off
Angular grids for H and He will be reduced by one unit
Diffuse basis detected: some atoms will have their outermost
                        angular grid increased by 1.

Total number of grid points                  ...    25111
Total number of batches                      ...      206
Average number of points per batch           ...      121
Average number of grid points per atom       ...     1395
UseSFitting                                  ... on

GRIDX 3
-------
General Integration Accuracy     IntAcc      ... 4.338
Radial Grid Type                 RadialGrid  ... OptM3 with GC (2021)
Angular Grid (max. ang.)         AngularGrid ... 3 (Lebedev-194)
Angular grid pruning method      GridPruning ... 4 (adaptive)
Weight generation scheme         WeightScheme... mBecke (2022)
Basis function cutoff            BFCut       ... 1.0000e-11
Integration weight cutoff        WCut        ... 1.0000e-14
Partially contracted basis set               ... on
Rotationally invariant grid construction     ... off
Angular grids for H and He will be reduced by one unit
Diffuse basis detected: some atoms will have their outermost
                        angular grid increased by 1.

Total number of grid points                  ...    56229
Total number of batches                      ...      448
Average number of points per batch           ...      125
Average number of grid points per atom       ...     3124
UseSFitting                                  ... on
Initializing property integral containers    ... done (  0.0 sec)

SHARK setup successfully completed in   9.4 seconds

Maximum memory used throughout the entire STARTUP-calculation: 68.7 MB


           ************************************************************
           *        Program running with 4 parallel MPI-processes     *
           *              working on a common directory               *
           ************************************************************
-------------------------------------------------------------------------------
                                 ORCA GUESS
                   Start orbitals & Density for SCF / CASSCF
-------------------------------------------------------------------------------

------------
SCF SETTINGS
------------
Hamiltonian:
 Density Functional     Method          .... DFT(GTOs)
 Exchange Functional    Exchange        .... PBE
   PBE kappa parameter   XKappa         ....  0.804000
   PBE mue parameter    XMuePBE         ....  0.219520
 Correlation Functional Correlation     .... PBE
   PBE beta parameter  CBetaPBE         ....  0.066725
 LDA part of GGA corr.  LDAOpt          .... PW91-LDA
 Gradients option       PostSCFGGA      .... off
 Hybrid DFT is turned on
   Fraction HF Exchange ScalHFX         ....  0.250000
   Scaling of DF-GGA-X  ScalDFX         ....  0.750000
   Scaling of DF-GGA-C  ScalDFC         ....  1.000000
   Scaling of DF-LDA-C  ScalLDAC        ....  1.000000
   Perturbative correction              ....  0.000000
   NL short-range parameter             ....  6.900000
 RI-approximation to the Coulomb term is turned on
   Number of AuxJ basis functions       .... 502
   RIJ-COSX (HFX calculated with COS-X)).... on


General Settings:
 Integral files         IntName         .... cs_rporg_005_red_solv_04
 Hartree-Fock type      HFTyp           .... RHF
 Total Charge           Charge          ....    0
 Multiplicity           Mult            ....    1
 Number of Electrons    NEL             ....   58
 Basis Dimension        Dim             ....  598
 Nuclear Repulsion      ENuc            ....    340.6182184147 Eh

Convergence Acceleration:
 AO-DIIS                CNVDIIS         .... on
   Start iteration      DIISMaxIt       ....     0
   Startup error        DIISStart       ....  0.200000
   # of expansion vecs  DIISMaxEq       ....     5
   Bias factor          DIISBfac        ....   1.050
   Max. coefficient     DIISMaxC        ....  10.000
 MO-DIIS                CNVKDIIS        .... off
 Trust-Rad. Augm. Hess. CNVTRAH         .... auto
   Auto Start mean grad. ratio tolernc. ....  1.125000
   Auto Start start iteration           ....    50
   Auto Start num. interpolation iter.  ....    10
   Max. Number of Micro iterations      ....    24
   Max. Number of Macro iterations      .... Maxiter - #DIIS iter
   Number of Davidson start vectors     ....     2
   Converg. threshold    (grad. norm)   ....   1.000e-05
   Grad. Scal. Fac. for Micro threshold ....   0.100
   Minimum threshold for Micro iter.    ....   1.000e-02
   NR start threshold (gradient norm)   ....   1.000e-04
   Initial trust radius                 ....   0.400
   Minimum AH scaling param. (alpha)    ....   1.000
   Maximum AH scaling param. (alpha)    .... 1000.000
   Quad. conv. algorithm                .... NR
   White noise on init. David. guess    .... on
   Maximum white noise                  ....   0.010
   Pseudo random numbers                .... off
   Inactive MOs                         .... canonical
   Orbital update algorithm             .... Taylor
   Preconditioner                       .... Diag
   Full preconditioner red. dimension   ....   250
 SOSCF                  CNVSOSCF        .... on
   Start iteration      SOSCFMaxIt      ....   150
   Startup grad/error   SOSCFStart      ....  0.001000
   Hessian update       SOSCFHessUp     .... L-BFGS
 Level Shifting         CNVShift        .... on
   Level shift para.    LevelShift      ....    0.2500
   Turn off err/grad.   ShiftErr        ....    0.0000
 Zerner damping         CNVZerner       .... off
 Static damping         CNVDamp         .... on
   Fraction old density DampFac         ....    0.8500
   Max. Damping (<1)    DampMax         ....    0.9800
   Min. Damping (>=0)   DampMin         ....    0.0000
   Turn off err/grad.   DampErr         ....    0.0300

SCF Procedure:
 Maximum # iterations   MaxIter         ....  1500
 SCF integral mode      SCFMode         .... Direct
   Integral package                     .... SHARK and LIBINT hybrid scheme
 Reset frequency        DirectResetFreq ....    20
 Integral Threshold     Thresh          ....  1.000e-12 Eh
 Primitive CutOff       TCut            ....  1.000e-13 Eh

Convergence Tolerance:
 Convergence Check Mode ConvCheckMode   .... Total+1el-Energy
 Convergence forced     ConvForced      .... 0
 Energy Change          TolE            ....  1.000e-08 Eh
 1-El. energy change                    ....  1.000e-05 Eh
 Orbital Gradient       TolG            ....  1.000e-05
 Orbital Rotation angle TolX            ....  1.000e-05
 DIIS Error             TolErr          ....  5.000e-07

------------------------------
INITIAL GUESS: MODEL POTENTIAL
------------------------------
Loading Hartree-Fock densities                     ... done
Calculating cut-offs                               ... done
Initializing the effective Hamiltonian             ... done
Setting up the integral package (SHARK)            ... done
Starting the Coulomb interaction                   ... done (   0.6 sec)
Making the grid                                    ... done (   0.4 sec)
Mapping shells                                     ... done
Starting the XC term evaluation                    ... done (   0.7 sec)
  promolecular density results
     # of electrons  =     57.993311253
     EX              =    -43.833422085
     EC              =     -1.892254185
     EX+EC           =    -45.725676270
Transforming the Hamiltonian                       ... done (   0.1 sec)
Diagonalizing the Hamiltonian                      ... done (   0.1 sec)
Back transforming the eigenvectors                 ... done (   0.1 sec)
Now organizing SCF variables                       ... done
                      ------------------
                      INITIAL GUESS DONE (   2.1 sec)
                      ------------------
             **** ENERGY FILE WAS UPDATED (cs_rporg_005_red_solv_04.en.tmp) ****
Finished Guess after   2.8 sec
Maximum memory used throughout the entire GUESS-calculation: 49.4 MB


           ************************************************************
           *        Program running with 4 parallel MPI-processes     *
           *              working on a common directory               *
           ************************************************************

-------------------------------------------------------------------------------------------
                                      ORCA LEAN-SCF
                              memory conserving SCF solver
-------------------------------------------------------------------------------------------

--------------------
CPCM SOLVATION MODEL
--------------------
CPCM parameters:
  Epsilon                                         ...      35.6880
  Refrac                                          ...       1.3442
  Rsolv                                           ...       2.1900
  Surface type                                    ...    GEPOL SES
  Discretization scheme                           ... Constant num. charges
  Epsilon function type                           ...         CPCM
Solvent:                                          ... ACETONITRILE
SMD-CDS solvent descriptors:
  Soln                                            ...       1.3442
  Soln25                                          ...       1.3416
  Sola                                            ...       0.0700
  Solb                                            ...       0.3200
  Solg                                            ...      41.2500
  Solc                                            ...       0.0000
  Solh                                            ...       0.0000
Radii:
  Scheme                                          ... Element-dependent radii
  Radius for C  used is    3.4960 Bohr (=   1.8500 Ang.)
  Radius for H  used is    2.2677 Bohr (=   1.2000 Ang.)
Calculating surface                               ...        done! (  0.0s)
Cavity surface points                             ...          629
Cavity Volume                                     ...     895.2982
Cavity Surface-area                               ...     539.2045
Calculating surface distance matrix               ...        done! (  0.0s)
Performing Cholesky decomposition & store         ...        done! (  0.0s)
Overall time for CPCM initialization              ...                 0.1s

----------------------------------------D-I-I-S--------------------------------------------
Iteration    Energy (Eh)           Delta-E    RMSDP     MaxDP     DIISErr   Damp  Time(sec)
-------------------------------------------------------------------------------------------
               ***  Starting incremental Fock matrix formation  ***
    1    -310.4042689412245295     0.00e+00  8.11e-04  5.13e-02  1.85e-01  0.850  19.4
    2    -310.4537785352159176    -4.95e-02  7.92e-04  4.93e-02  1.43e-01  0.850  11.4
                               ***Turning on AO-DIIS***
    3    -310.4892185381235663    -3.54e-02  6.21e-04  4.13e-02  1.03e-01  0.850  11.0
    4    -310.5131930343473528    -2.40e-02  5.03e-04  3.36e-02  8.25e-02  0.850  11.3
    5    -310.5308338259133620    -1.76e-02  4.16e-04  2.77e-02  6.86e-02  0.850  11.2
    6    -310.5446655719826481    -1.38e-02  3.49e-04  2.31e-02  5.80e-02  0.850  11.0
    7    -310.5558967684465301    -1.12e-02  2.95e-04  1.95e-02  4.90e-02  0.850  10.9
    8    -310.5651265096793736    -9.23e-03  2.51e-04  1.65e-02  4.12e-02  0.850  11.0
    9    -310.5727261447649994    -7.60e-03  2.13e-04  1.40e-02  3.46e-02  0.850  11.0
   10    -310.5789981362717640    -6.27e-03  1.81e-04  1.19e-02  2.91e-02  0.850  10.8
   11    -310.5841934806521181    -5.20e-03  1.02e-03  6.73e-02  2.44e-02  0.000  10.6
   12    -310.6114737686056628    -2.73e-02  1.96e-05  7.73e-04  1.64e-03  0.000  11.2
                              *** Initializing SOSCF ***
---------------------------------------S-O-S-C-F--------------------------------------
Iteration    Energy (Eh)           Delta-E    RMSDP     MaxDP     MaxGrad    Time(sec)
--------------------------------------------------------------------------------------
   13    -310.6114892695920275    -1.55e-05  7.01e-06  5.32e-04  2.03e-04    10.6
               *** Restarting incremental Fock matrix formation ***
   14    -310.6114746175490495     1.47e-05  2.05e-04  1.07e-02  2.36e-05    19.1
   15    -310.6114747186143745    -1.01e-07  3.47e-05  1.82e-03  1.52e-05    16.9
   16    -310.6114747381413395    -1.95e-08  3.16e-05  1.68e-03  1.08e-05    16.6
   17    -310.6114747481271365    -9.99e-09  4.56e-06  2.37e-04  5.01e-06    16.3
                 **** Energy Check signals convergence ****

               *****************************************************
               *                     SUCCESS                       *
               *           SCF CONVERGED AFTER  17 CYCLES          *
               *****************************************************

Recomputing exchange energy using gridx3       ... done (   30.528 sec)
Old exchange energy                            :    -11.246876069 Eh
New exchange energy                            :    -11.246939924 Eh
Exchange energy change after final integration :     -0.000063855 Eh
Total energy after final integration           :   -310.611538603 Eh

SMD CDS free energy correction energy :                -2.07277     Kcal/mol
Total Energy after SMD CDS correction =              -310.614841771 Eh
             **** ENERGY FILE WAS UPDATED (cs_rporg_005_red_solv_04.en.tmp) ****

----------------
TOTAL SCF ENERGY
----------------

Total Energy       :       -310.61484177120263 Eh           -8452.25955 eV

Components:
Nuclear Repulsion  :        340.61821841473358 Eh            9268.69293 eV
Electronic Energy  :       -651.22199865311313 Eh          -17720.65148 eV
One Electron Energy:      -1092.67240033450344 Eh          -29733.12762 eV
Two Electron Energy:        441.45040168139025 Eh           12012.47613 eV
CPCM Dielectric    :         -0.00769450974762 Eh              -0.20938 eV
SMD CDS (Gcds)     :         -0.00330316789947 Eh              -0.08988 eV

Virial components:
Potential Energy   :       -619.08460531868366 Eh          -16846.14855 eV
Kinetic Energy     :        308.46976354748102 Eh            8393.88900 eV
Virial Ratio       :          2.00695393350406

DFT components:
N(Alpha)           :       28.999982625206 electrons
N(Beta)            :       28.999982625206 electrons
N(Total)           :       57.999965250413 electrons
E(X)               :      -33.603819546646 Eh       
E(C)               :       -1.900579833357 Eh       
E(XC)              :      -35.504399380003 Eh       

CPCM Solvation Model Properties:
Surface-charge          :         -0.04925239209833
Corrected charge        :          0.00000000000000
Outlying charge corr.   :          0.00018401582816 Eh               0.00501 eV
Free-energy (cav+disp)  :         -0.00330316789947 Eh              -0.08988 eV

---------------
SCF CONVERGENCE
---------------

  Last Energy change         ...    9.9858e-09  Tolerance :   1.0000e-08
  Last MAX-Density change    ...    2.3651e-04  Tolerance :   1.0000e-07
  Last RMS-Density change    ...    4.5639e-06  Tolerance :   5.0000e-09
  Last DIIS Error            ...    2.0254e-04  Tolerance :   5.0000e-07
  Last Orbital Gradient      ...    5.0073e-06  Tolerance :   1.0000e-05
  Last Orbital Rotation      ...    1.3187e-05  Tolerance :   1.0000e-05


----------------
ORBITAL ENERGIES
----------------

  NO   OCC          E(Eh)            E(eV) 
   0   2.0000     -10.238025      -278.5908 
   1   2.0000     -10.237894      -278.5873 
   2   2.0000     -10.227183      -278.2958 
   3   2.0000     -10.222184      -278.1598 
   4   2.0000     -10.222135      -278.1584 
   5   2.0000     -10.221440      -278.1395 
   6   2.0000     -10.214828      -277.9596 
   7   2.0000     -10.214812      -277.9592 
   8   2.0000      -0.884433       -24.0666 
   9   2.0000      -0.802459       -21.8360 
  10   2.0000      -0.779013       -21.1980 
  11   2.0000      -0.705431       -19.1958 
  12   2.0000      -0.694685       -18.9033 
  13   2.0000      -0.611425       -16.6377 
  14   2.0000      -0.583672       -15.8825 
  15   2.0000      -0.512595       -13.9484 
  16   2.0000      -0.481127       -13.0921 
  17   2.0000      -0.452338       -12.3087 
  18   2.0000      -0.432989       -11.7822 
  19   2.0000      -0.418390       -11.3850 
  20   2.0000      -0.417421       -11.3586 
  21   2.0000      -0.411565       -11.1992 
  22   2.0000      -0.397736       -10.8229 
  23   2.0000      -0.376877       -10.2553 
  24   2.0000      -0.358273        -9.7491 
  25   2.0000      -0.344684        -9.3793 
  26   2.0000      -0.340936        -9.2773 
  27   2.0000      -0.259773        -7.0688 
  28   2.0000      -0.250767        -6.8237 
  29   0.0000      -0.009869        -0.2686 
  30   0.0000      -0.006098        -0.1659 
  31   0.0000       0.002553         0.0695 
  32   0.0000       0.014925         0.4061 
  33   0.0000       0.016995         0.4625 
  34   0.0000       0.027369         0.7448 
  35   0.0000       0.034417         0.9365 
  36   0.0000       0.034629         0.9423 
  37   0.0000       0.043816         1.1923 
  38   0.0000       0.046925         1.2769 
  39   0.0000       0.055037         1.4976 
*Only the first 10 virtual orbitals were printed.

                    ********************************
                    * MULLIKEN POPULATION ANALYSIS *
                    ********************************

-----------------------
MULLIKEN ATOMIC CHARGES
-----------------------
   0 C :   -0.883219
   1 C :   -0.627211
   2 C :   -0.810291
   3 C :    0.846518
   4 C :   -0.680653
   5 H :    0.256131
   6 H :    0.252915
   7 H :    0.262378
   8 C :   -1.194872
   9 C :    0.870649
  10 C :   -0.726187
  11 H :    0.253384
  12 H :    0.260576
  13 H :    0.259772
  14 H :    0.277432
  15 H :    0.337250
  16 H :    0.684515
  17 H :    0.360913
Sum of atomic charges:   -0.0000000

--------------------------------
MULLIKEN REDUCED ORBITAL CHARGES
--------------------------------
  0 C s       :     3.917805  s :     3.917805
      pz      :     1.016161  p :     2.920538
      px      :     0.914765
      py      :     0.989611
      dz2     :    -0.016534  d :     0.049772
      dxz     :     0.015703
      dyz     :     0.022771
      dx2y2   :    -0.015657
      dxy     :     0.043489
      f0      :     0.001359  f :    -0.004896
      f+1     :     0.000398
      f-1     :     0.001218
      f+2     :    -0.000759
      f-2     :     0.000536
      f+3     :    -0.009485
      f-3     :     0.001836

  1 C s       :     3.524795  s :     3.524795
      pz      :     0.948629  p :     2.891165
      px      :     1.023614
      py      :     0.918921
      dz2     :    -0.004732  d :     0.220399
      dxz     :     0.034386
      dyz     :     0.008150
      dx2y2   :     0.173726
      dxy     :     0.008868
      f0      :     0.001173  f :    -0.009148
      f+1     :     0.000866
      f-1     :     0.000926
      f+2     :     0.000315
      f-2     :     0.000231
      f+3     :    -0.012235
      f-3     :    -0.000424

  2 C s       :     3.905922  s :     3.905922
      pz      :     1.017775  p :     2.820887
      px      :     0.893724
      py      :     0.909388
      dz2     :    -0.013304  d :     0.088894
      dxz     :     0.013601
      dyz     :     0.023879
      dx2y2   :    -0.001071
      dxy     :     0.065789
      f0      :     0.001261  f :    -0.005413
      f+1     :     0.000548
      f-1     :     0.001138
      f+2     :    -0.000690
      f-2     :     0.000289
      f+3     :    -0.009616
      f-3     :     0.001657

  3 C s       :     2.933559  s :     2.933559
      pz      :     0.917912  p :     2.058908
      px      :     0.670402
      py      :     0.470594
      dz2     :    -0.014777  d :     0.223125
      dxz     :    -0.005890
      dyz     :     0.000913
      dx2y2   :     0.126803
      dxy     :     0.116076
      f0      :    -0.000324  f :    -0.062110
      f+1     :    -0.001731
      f-1     :    -0.001224
      f+2     :    -0.000390
      f-2     :     0.000510
      f+3     :    -0.045506
      f-3     :    -0.013445

  4 C s       :     3.439165  s :     3.439165
      pz      :     1.131961  p :     3.176340
      px      :     0.957026
      py      :     1.087354
      dz2     :     0.018559  d :     0.053863
      dxz     :     0.003490
      dyz     :     0.021399
      dx2y2   :     0.002436
      dxy     :     0.007979
      f0      :     0.004156  f :     0.011285
      f+1     :    -0.000915
      f-1     :     0.000645
      f+2     :     0.001364
      f-2     :     0.001917
      f+3     :     0.001456
      f-3     :     0.002662

  5 H s       :     0.694678  s :     0.694678
      pz      :     0.009532  p :     0.041858
      px      :     0.019422
      py      :     0.012904
      dz2     :     0.002933  d :     0.007333
      dxz     :     0.000618
      dyz     :    -0.000495
      dx2y2   :    -0.000118
      dxy     :     0.004394

  6 H s       :     0.695246  s :     0.695246
      pz      :     0.010049  p :     0.043922
      px      :     0.023901
      py      :     0.009972
      dz2     :     0.001359  d :     0.007917
      dxz     :     0.000953
      dyz     :     0.001017
      dx2y2   :     0.004408
      dxy     :     0.000178

  7 H s       :     0.683887  s :     0.683887
      pz      :     0.015224  p :     0.047376
      px      :     0.016650
      py      :     0.015502
      dz2     :     0.000020  d :     0.006359
      dxz     :     0.002877
      dyz     :     0.002346
      dx2y2   :    -0.000199
      dxy     :     0.001316

  8 C s       :     4.166123  s :     4.166123
      pz      :     1.032958  p :     2.923710
      px      :     0.942427
      py      :     0.948325
      dz2     :    -0.017762  d :     0.122189
      dxz     :     0.000178
      dyz     :     0.029721
      dx2y2   :     0.156622
      dxy     :    -0.046569
      f0      :     0.001425  f :    -0.017150
      f+1     :     0.001194
      f-1     :     0.000313
      f+2     :    -0.001321
      f-2     :    -0.000655
      f+3     :    -0.020121
      f-3     :     0.002014

  9 C s       :     2.883026  s :     2.883026
      pz      :     0.917492  p :     2.070630
      px      :     0.543851
      py      :     0.609287
      dz2     :    -0.013744  d :     0.237604
      dxz     :    -0.002214
      dyz     :     0.000446
      dx2y2   :     0.140365
      dxy     :     0.112751
      f0      :    -0.000403  f :    -0.061908
      f+1     :    -0.001626
      f-1     :    -0.001387
      f+2     :    -0.001237
      f-2     :     0.001371
      f+3     :    -0.045078
      f-3     :    -0.013547

 10 C s       :     3.464638  s :     3.464638
      pz      :     1.129354  p :     3.194709
      px      :     0.974673
      py      :     1.090682
      dz2     :     0.018886  d :     0.055441
      dxz     :     0.015486
      dyz     :     0.008576
      dx2y2   :     0.009444
      dxy     :     0.003049
      f0      :     0.004077  f :     0.011400
      f+1     :     0.000195
      f-1     :    -0.000536
      f+2     :     0.000547
      f-2     :     0.002991
      f+3     :     0.001460
      f-3     :     0.002666

 11 H s       :     0.695714  s :     0.695714
      pz      :     0.010252  p :     0.042906
      px      :     0.016479
      py      :     0.016175
      dz2     :     0.001546  d :     0.007996
      dxz     :     0.000521
      dyz     :     0.001221
      dx2y2   :     0.000019
      dxy     :     0.004689

 12 H s       :     0.683870  s :     0.683870
      pz      :     0.015030  p :     0.049242
      px      :     0.018507
      py      :     0.015706
      dz2     :    -0.000024  d :     0.006311
      dxz     :     0.002033
      dyz     :     0.003099
      dx2y2   :     0.000335
      dxy     :     0.000869

 13 H s       :     0.688211  s :     0.688211
      pz      :     0.009056  p :     0.044664
      px      :     0.022532
      py      :     0.013076
      dz2     :     0.002815  d :     0.007354
      dxz     :    -0.000002
      dyz     :     0.000074
      dx2y2   :     0.003774
      dxy     :     0.000693

 14 H s       :     0.674722  s :     0.674722
      pz      :     0.026593  p :     0.043973
      px      :     0.023334
      py      :    -0.005954
      dz2     :     0.000256  d :     0.003873
      dxz     :    -0.000122
      dyz     :     0.003572
      dx2y2   :     0.000746
      dxy     :    -0.000579

 15 H s       :     0.617623  s :     0.617623
      pz      :     0.023317  p :     0.039831
      px      :     0.006818
      py      :     0.009696
      dz2     :    -0.000314  d :     0.005296
      dxz     :     0.003434
      dyz     :     0.000665
      dx2y2   :     0.000332
      dxy     :     0.001179

 16 H s       :     0.323407  s :     0.323407
      pz      :     0.018406  p :    -0.014437
      px      :     0.004597
      py      :    -0.037440
      dz2     :    -0.000301  d :     0.006515
      dxz     :    -0.000278
      dyz     :     0.004342
      dx2y2   :     0.001106
      dxy     :     0.001647

 17 H s       :     0.600184  s :     0.600184
      pz      :     0.022617  p :     0.033555
      px      :    -0.001350
      py      :     0.012288
      dz2     :    -0.000213  d :     0.005349
      dxz     :     0.003339
      dyz     :     0.000723
      dx2y2   :     0.000533
      dxy     :     0.000966



                     *******************************
                     * LOEWDIN POPULATION ANALYSIS *
                     *******************************

----------------------
LOEWDIN ATOMIC CHARGES
----------------------
   0 C :    0.192446
   1 C :    0.179667
   2 C :    0.193471
   3 C :   -0.150134
   4 C :    0.566285
   5 H :   -0.159840
   6 H :   -0.166497
   7 H :   -0.150164
   8 C :    0.215316
   9 C :   -0.150314
  10 C :    0.566166
  11 H :   -0.165560
  12 H :   -0.149936
  13 H :   -0.160992
  14 H :   -0.157971
  15 H :   -0.167625
  16 H :   -0.169778
  17 H :   -0.164540

-------------------------------
LOEWDIN REDUCED ORBITAL CHARGES
-------------------------------
  0 C s       :     2.481871  s :     2.481871
      pz      :     0.613519  p :     2.292166
      px      :     0.833975
      py      :     0.844672
      dz2     :     0.067790  d :     0.696844
      dxz     :     0.062771
      dyz     :     0.102510
      dx2y2   :     0.200410
      dxy     :     0.263364
      f0      :     0.019548  f :     0.336673
      f+1     :     0.022858
      f-1     :     0.027889
      f+2     :     0.046942
      f-2     :     0.026016
      f+3     :     0.133801
      f-3     :     0.059620

  1 C s       :     2.490023  s :     2.490023
      pz      :     0.600899  p :     2.290990
      px      :     0.858219
      py      :     0.831871
      dz2     :     0.067784  d :     0.703609
      dxz     :     0.135135
      dyz     :     0.038306
      dx2y2   :     0.292083
      dxy     :     0.170301
      f0      :     0.018961  f :     0.335711
      f+1     :     0.030858
      f-1     :     0.019724
      f+2     :     0.011820
      f-2     :     0.061380
      f+3     :     0.136262
      f-3     :     0.056708

  2 C s       :     2.481482  s :     2.481482
      pz      :     0.614209  p :     2.291964
      px      :     0.832933
      py      :     0.844822
      dz2     :     0.068512  d :     0.696392
      dxz     :     0.062367
      dyz     :     0.101074
      dx2y2   :     0.200502
      dxy     :     0.263936
      f0      :     0.019355  f :     0.336691
      f+1     :     0.022977
      f-1     :     0.028215
      f+2     :     0.047105
      f-2     :     0.025407
      f+3     :     0.133484
      f-3     :     0.060148

  3 C s       :     2.462331  s :     2.462331
      pz      :     0.591263  p :     2.249017
      px      :     0.812560
      py      :     0.845194
      dz2     :     0.083804  d :     0.940286
      dxz     :     0.138804
      dyz     :     0.138543
      dx2y2   :     0.276602
      dxy     :     0.302532
      f0      :     0.032552  f :     0.498500
      f+1     :     0.031619
      f-1     :     0.031624
      f+2     :     0.057665
      f-2     :     0.064510
      f+3     :     0.210958
      f-3     :     0.069572

  4 C s       :     2.451112  s :     2.451112
      pz      :     0.775074  p :     2.293397
      px      :     0.750779
      py      :     0.767545
      dz2     :     0.083949  d :     0.505402
      dxz     :     0.082659
      dyz     :     0.091447
      dx2y2   :     0.123180
      dxy     :     0.124167
      f0      :     0.022584  f :     0.183804
      f+1     :     0.018520
      f-1     :     0.013126
      f+2     :     0.020515
      f-2     :     0.023706
      f+3     :     0.054287
      f-3     :     0.031065

  5 H s       :     0.621725  s :     0.621725
      pz      :     0.108761  p :     0.314319
      px      :     0.082706
      py      :     0.122852
      dz2     :     0.066647  d :     0.223796
      dxz     :     0.018715
      dyz     :     0.041848
      dx2y2   :     0.031303
      dxy     :     0.065283

  6 H s       :     0.621661  s :     0.621661
      pz      :     0.094127  p :     0.317467
      px      :     0.111889
      py      :     0.111451
      dz2     :     0.036016  d :     0.227369
      dxz     :     0.036004
      dyz     :     0.037151
      dx2y2   :     0.068039
      dxy     :     0.050158

  7 H s       :     0.622157  s :     0.622157
      pz      :     0.140145  p :     0.308317
      px      :     0.080303
      py      :     0.087869
      dz2     :     0.063358  d :     0.219689
      dxz     :     0.057829
      dyz     :     0.071279
      dx2y2   :     0.006698
      dxy     :     0.020526

  8 C s       :     2.472929  s :     2.472929
      pz      :     0.609349  p :     2.277503
      px      :     0.850496
      py      :     0.817658
      dz2     :     0.068013  d :     0.693480
      dxz     :     0.125307
      dyz     :     0.039324
      dx2y2   :     0.270573
      dxy     :     0.190263
      f0      :     0.019899  f :     0.340772
      f+1     :     0.031516
      f-1     :     0.019875
      f+2     :     0.016457
      f-2     :     0.059047
      f+3     :     0.129098
      f-3     :     0.064880

  9 C s       :     2.462302  s :     2.462302
      pz      :     0.591101  p :     2.249150
      px      :     0.813756
      py      :     0.844293
      dz2     :     0.083164  d :     0.940394
      dxz     :     0.148633
      dyz     :     0.129261
      dx2y2   :     0.279646
      dxy     :     0.299690
      f0      :     0.032856  f :     0.498468
      f+1     :     0.029525
      f-1     :     0.032802
      f+2     :     0.066265
      f-2     :     0.056467
      f+3     :     0.210593
      f-3     :     0.069960

 10 C s       :     2.451165  s :     2.451165
      pz      :     0.775049  p :     2.293484
      px      :     0.750911
      py      :     0.767524
      dz2     :     0.081923  d :     0.505421
      dxz     :     0.121561
      dyz     :     0.055070
      dx2y2   :     0.140374
      dxy     :     0.106492
      f0      :     0.023057  f :     0.183765
      f+1     :     0.021601
      f-1     :     0.009322
      f+2     :     0.016525
      f-2     :     0.027824
      f+3     :     0.054697
      f-3     :     0.030738

 11 H s       :     0.621419  s :     0.621419
      pz      :     0.095845  p :     0.317123
      px      :     0.086666
      py      :     0.134612
      dz2     :     0.040222  d :     0.227017
      dxz     :     0.013491
      dyz     :     0.057464
      dx2y2   :     0.040728
      dxy     :     0.075112

 12 H s       :     0.622229  s :     0.622229
      pz      :     0.140262  p :     0.308126
      px      :     0.084863
      py      :     0.083002
      dz2     :     0.062619  d :     0.219581
      dxz     :     0.059800
      dyz     :     0.070393
      dx2y2   :     0.010943
      dxy     :     0.015826

 13 H s       :     0.621909  s :     0.621909
      pz      :     0.106989  p :     0.314830
      px      :     0.105876
      py      :     0.101964
      dz2     :     0.063477  d :     0.224254
      dxz     :     0.034270
      dyz     :     0.027120
      dx2y2   :     0.055289
      dxy     :     0.044097

 14 H s       :     0.639021  s :     0.639021
      pz      :     0.079073  p :     0.300432
      px      :     0.082423
      py      :     0.138936
      dz2     :     0.024123  d :     0.218518
      dxz     :     0.003733
      dyz     :     0.059939
      dx2y2   :     0.049749
      dxy     :     0.080973

 15 H s       :     0.650454  s :     0.650454
      pz      :     0.082445  p :     0.301574
      px      :     0.126889
      py      :     0.092239
      dz2     :     0.023512  d :     0.215597
      dxz     :     0.046267
      dyz     :     0.017338
      dx2y2   :     0.071720
      dxy     :     0.056760

 16 H s       :     0.660318  s :     0.660318
      pz      :     0.081753  p :     0.298241
      px      :     0.076518
      py      :     0.139970
      dz2     :     0.022546  d :     0.211218
      dxz     :     0.003956
      dyz     :     0.058647
      dx2y2   :     0.044586
      dxy     :     0.081483

 17 H s       :     0.651340  s :     0.651340
      pz      :     0.082039  p :     0.299440
      px      :     0.125889
      py      :     0.091512
      dz2     :     0.022962  d :     0.213760
      dxz     :     0.046662
      dyz     :     0.016971
      dx2y2   :     0.071720
      dxy     :     0.055445



                      *****************************
                      * MAYER POPULATION ANALYSIS *
                      *****************************

  NA   - Mulliken gross atomic population
  ZA   - Total nuclear charge
  QA   - Mulliken gross atomic charge
  VA   - Mayer's total valence
  BVA  - Mayer's bonded valence
  FA   - Mayer's free valence

  ATOM       NA         ZA         QA         VA         BVA        FA
  0 C      6.8832     6.0000    -0.8832     2.9557     2.9557    -0.0000
  1 C      6.6272     6.0000    -0.6272     2.9034     2.9034    -0.0000
  2 C      6.8103     6.0000    -0.8103     2.8960     2.8960    -0.0000
  3 C      5.1535     6.0000     0.8465     2.3097     2.3097     0.0000
  4 C      6.6807     6.0000    -0.6807     3.5520     3.5520     0.0000
  5 H      0.7439     1.0000     0.2561     0.9428     0.9428     0.0000
  6 H      0.7471     1.0000     0.2529     0.9735     0.9735     0.0000
  7 H      0.7376     1.0000     0.2624     0.9406     0.9406     0.0000
  8 C      7.1949     6.0000    -1.1949     2.5605     2.5605     0.0000
  9 C      5.1294     6.0000     0.8706     2.3495     2.3495    -0.0000
 10 C      6.7262     6.0000    -0.7262     3.5775     3.5775    -0.0000
 11 H      0.7466     1.0000     0.2534     0.9610     0.9610    -0.0000
 12 H      0.7394     1.0000     0.2606     0.9460     0.9460    -0.0000
 13 H      0.7402     1.0000     0.2598     0.9524     0.9524    -0.0000
 14 H      0.7226     1.0000     0.2774     1.0083     1.0083    -0.0000
 15 H      0.6628     1.0000     0.3372     1.0163     1.0163    -0.0000
 16 H      0.3155     1.0000     0.6845     0.3241     0.3241     0.0000
 17 H      0.6391     1.0000     0.3609     0.9324     0.9324    -0.0000

  Mayer bond orders larger than 0.100000
B(  0-C ,  1-C ) :   1.2743 B(  0-C ,  9-C ) :   0.7530 B(  0-C , 17-H ) :   0.8185 
B(  1-C ,  2-C ) :   1.2710 B(  1-C ,  3-C ) :   0.1070 B(  1-C ,  9-C ) :   0.1220 
B(  1-C , 16-H ) :   0.2270 B(  2-C ,  3-C ) :   0.7558 B(  2-C , 15-H ) :   0.8983 
B(  3-C ,  4-C ) :   0.5684 B(  3-C ,  8-C ) :   0.7851 B(  3-C ,  9-C ) :   0.2525 
B(  4-C ,  5-H ) :   0.9369 B(  4-C ,  6-H ) :   0.9263 B(  4-C ,  7-H ) :   0.9423 
B(  4-C ,  8-C ) :   0.1154 B(  8-C ,  9-C ) :   0.7550 B(  8-C , 14-H ) :   0.8751 
B(  9-C , 10-C ) :   0.5845 B( 10-C , 11-H ) :   0.9360 B( 10-C , 12-H ) :   0.9412 
B( 10-C , 13-H ) :   0.9247 

-------
TIMINGS
-------

Total SCF time: 0 days 0 hours 4 min 12 sec 

Total time                  ....     252.534 sec
Sum of individual times     ....     252.012 sec  ( 99.8%)

SCF preparation             ....       0.882 sec  (  0.3%)
Fock matrix formation       ....     240.603 sec  ( 95.3%)
  Startup                   ....       0.663 sec  (  0.3% of F)
  Split-RI-J                ....      15.311 sec  (  6.4% of F)
  Chain of spheres X        ....     166.986 sec  ( 69.4% of F)
  XC integration            ....      47.508 sec  ( 19.7% of F)
    XC Preparation          ....       0.000 sec  (  0.0% of XC)
    Basis function eval.    ....       8.004 sec  ( 16.8% of XC)
    Density eval.           ....      14.599 sec  ( 30.7% of XC)
    XC-Functional eval.     ....       0.511 sec  (  1.1% of XC)
    XC-Potential eval.      ....      21.951 sec  ( 46.2% of XC)
  CPCM terms                ....       7.935 sec  (  3.3% of F)
Diagonalization             ....       0.000 sec  (  0.0%)
Density matrix formation    ....       1.553 sec  (  0.6%)
Total Energy calculation    ....       0.823 sec  (  0.3%)
Population analysis         ....       0.261 sec  (  0.1%)
Orbital Transformation      ....       0.660 sec  (  0.3%)
Orbital Orthonormalization  ....       0.000 sec  (  0.0%)
DIIS solution               ....       6.016 sec  (  2.4%)
SOSCF solution              ....       1.214 sec  (  0.5%)
Finished LeanSCF after 252.7 sec

Maximum memory used throughout the entire LEANSCF-calculation: 85.3 MB


-------------------------------------------------------------------------------
                          DFT DISPERSION CORRECTION                            
                                                                               
                              DFTD3 V3.1  Rev 1                                
                          USING Becke-Johnson damping                          
-------------------------------------------------------------------------------
The PBE0 functional is recognized
Active option DFTDOPT                   ...         4   

molecular C6(AA) [au] = 3160.956435 


            DFT-D V3
 parameters
 s6 scaling factor         :     1.0000 
 a1 scaling factor         :     0.4145 
 s8 scaling factor         :     1.2177 
 a2 scaling factor         :     4.8593 
 ad hoc parameters k1-k3   :    16.0000     1.3333    -4.0000 

 Edisp/kcal,au: -9.427114099722  -0.015023060980 
 E6   /kcal   :  -5.932731986 
 E8   /kcal   :  -3.494382114 
 % E8         :  37.067357803 

-------------------------   ----------------
Dispersion correction           -0.015023061
-------------------------   ----------------


-------------------------   --------------------
FINAL SINGLE POINT ENERGY      -310.629864832182
-------------------------   --------------------



           ************************************************************
           *        Program running with 4 parallel MPI-processes     *
           *              working on a common directory               *
           ************************************************************

------------------------------------------------------------------------------
                              ORCA PROPERTY CALCULATIONS
------------------------------------------------------------------------------

GBWName                                 ... cs_rporg_005_red_solv_04.gbw
Number of atoms                         ...     18
Number of basis functions               ...    646
Max core memory                         ...   3000 MB

Electric properties:
Dipole moment                           ... YES
Quadrupole moment                       ...  NO
Static polarizability (Dipole/Dipole)   ...  NO
Static polarizability (Dipole/Quad.)    ...  NO
Static polarizability (Quad./Quad.)     ...  NO
Static polarizability (Velocity)        ...  NO

Atomic electric properties:
Dipole moment                           ...  NO
Quadrupole moment                       ...  NO
Static polarizability                   ...  NO

Choice of electric origin               ... Center of mass
Position of electric origin             ...     0.004914    -0.004395     0.009697

General magnetic properties:
Magnetizability                         ...  NO

EPR properties:
g-Tensor (aka g-matrix)                 ...  NO
Zero-Field splitting spin-orbit         ...  NO
Zero-field splitting spin-spin          ...  NO
Hyperfine couplings                     ...  NO (   0 nuclei)
Quadrupole couplings                    ...  NO (   0 nuclei)
Contact density                         ...  NO (   0 nuclei)

NMR properties:
Chemical shifts                         ...  NO (   0 nuclei)
Spin-rotation constants                 ...  NO (   0 nuclei)
Spin-spin couplings                     ...  NO (   0 nuclei,    0 pairs)

Choice of magnetic origin               ... GIAO
Position of magnetic origin             ...     0.000000     0.000000     0.000000

Properties with geometric perturbations:
SCF Hessian                             ...  NO
IR spectrum                             ...  NO
VCD spectrum                            ...  NO
X-ray spectroscopy properties:
SCF XES/XAS/RIXS spectra                ...  NO


-------------
DIPOLE MOMENT
-------------

Method             : SCF
Type of density    : Electron Density
Multiplicity       :   1
Irrep              :   0
Energy             :  -310.6148417712026344 Eh
Relativity type    : 
Basis              : AO
                                X                 Y                 Z
Electronic contribution:      0.002649730      -3.014763611       0.050870401
Nuclear contribution   :     -0.014413012       3.246643755      -0.053120895
                        -----------------------------------------
Total Dipole Moment    :     -0.011763282       0.231880144      -0.002250495
                        -----------------------------------------
Magnitude (a.u.)       :      0.232189235
Magnitude (Debye)      :      0.590178133



--------------------
Rotational spectrum 
--------------------
 
Rotational constants in cm-1:             0.119041             0.058741             0.039927 
Rotational constants in MHz :          3568.763708          1760.997706          1196.993882 

Dipole components along the rotational axes: 
x,y,z [a.u.] :    -0.011543     0.231895     0.001816 
x,y,z [Debye]:    -0.029339     0.589430     0.004615 

 

Dipole moment calculation done in   0.1 sec 

Maximum memory used throughout the entire PROP-calculation: 50.1 MB

--------------------------------
SUGGESTED CITATIONS FOR THIS RUN
--------------------------------

Below you find a list of papers that are relevant to this ORCA run
We neither can nor want to force you to cite these papers, but we appreciate if you do
You receive ORCA, which is the product of decades of hard work by many enthusiastic individuals, for free
The only thing we kindly ask in return is that you cite our papers,
We deeply appreciate it, if you show your appreciation for ORCA by not just citing the generic ORCA reference.

Please note that relegating all ORCA citations to the supporting information does *not* help us.
SI sections are not indexed - citations you put there will not count into any citation statistics
But we need these citations in order to attract the funding resources that allow us to do what we are doing

Therefore, if you are a happy ORCA user, please consider citing a few of the papers listed below in the main body of your paper

In addition to the list printed below, the program has created the file cs_rporg_005_red_solv_04.bibtex that contains the list in bibtex format
You can import this file easily into all common literature databanks and citation aid programs


List of essential papers. We consider these as the minimum necessary citations

  1. Neese,F.
     Software update: the ORCA program system, version 5.0
     WIRES Comput. Molec. Sci., 2022 12(1)e1606
     doi.org/10.1002/wcms.1606

List of papers to cite with high priority. The work reported in these papers was absolutely
necessary for this run to complete.
Our perspective: the developers of density functionals and basis sets usually get cited in chemistry papers
Good! But without the algorithms to do something with them, the functionals or basis sets would not do anything.
Hence, in our opinion, the algorithm design and method developments papers are equally worthy of getting cited

  1. Neese,F.
     An improvement of the resolution of the identity approximation for the formation of the Coulomb matrix
     J. Comp. Chem., 2003 24(14)1740-1747
     doi.org/10.1002/jcc.10318
  2. Neese,F.; Wennmohs,F.; Hansen,A.; Becker,U.
     Efficient, approximate and parallel Hartree-Fock and hybrid DFT calculations. A 'chain-of-spheres' algorithm for the Hartree-Fock exchange
     Chem. Phys., 2009 356(1-3)98-109
     doi.org/10.1016/j.chemphys.2008.10.036
  3. Garcia-Rates,M.; Neese,F.
     Effect of the Solute Cavity on the Solvation Energy and its Derivatives within the Framework of the Gaussian Charge Scheme
     J. Comput. Chem., 2020 41 922-939
     doi.org/10.1002/jcc.26139
  4. Helmich-Paris,B.; de Souza,B.; Neese,F.; Izsák,R.
     An improved chain of spheres for exchange algorithm
     J. Chem. Phys., 2021 155 104109
     doi.org/doi: 10.1063/5.0058766.
  5. Neese,F.
     The SHARK Integral Generation and Digestion System
     J. Comp. Chem., 2022  1-16
     doi.org/10.1002/jcc.26942
  6. Grimme,S.; Antony,J.; Ehrlich,S.; Krieg,H.
     A consistent and accurate ab initio parametrization of density functional dispersion correction (DFT-D) for the 94 elements H-Pu
     J. Chem. Phys., 2010 132 154104-XXXX
     doi.org/10.1063/1.3382344
  7. Grimme,S.; Ehrlich,S.; Goerigk,L.
     Effect of the damping function in dispersion corrected density functional theory
     J. Comput. Chem., 2011 32(7)1456-1465
     doi.org/10.1002/jcc.21759

List of suggested additional citations. These are papers that are important in the 'surrounding' of 
of this run, or papers that preceded the highly important papers. If you like your results we are grateful for a citation.

  1. Izsak,R.; Neese,F.
     An overlap fitted chain of spheres exchange method
     J. Chem. Phys., 2011 135 144105
     doi.org/10.1063/1.3646921
  2. Izsak,R.; Hansen,A.; Neese,F.
     The resolution of identity and chain of spheres approximations for the LPNO-CCSD singles Fock term
     Molec. Phys., 2012 110 2413-2417
     doi.org/10.1080/00268976.2012.687466
  3. Neese,F.
     The ORCA program system
     WIRES Comput. Molec. Sci., 2012 2(1)73-78
     doi.org/10.1002/wcms.81
  4. Izsak,R.; Neese,F.; Klopper,W.
     Robust fitting techniques in the chain of spheres approximation to the Fock exchange: The role of the complementary space
     J. Chem. Phys., 2013 139 
     doi.org/10.1063/1.4819264
  5. Neese,F.
     Software update: the ORCA program system, version 4.0
     WIRES Comput. Molec. Sci., 2018 8(1)1-6
     doi.org/10.1002/wcms.1327
  6. Neese,F.; Wennmohs,F.; Becker,U.; Riplinger,C.
     The ORCA quantum chemistry program package
     J. Chem. Phys., 2020 152 Art. No. L224108
     doi.org/10.1063/5.0004608

List of optional additional citations

  1. Neese,F.
     Approximate second-order SCF convergence for spin unrestricted wavefunctions
     Chem. Phys. Lett., 2000 325(1-3)93-98
     doi.org/10.1016/s0009-2614(00)00662-x

Timings for individual modules:

Sum of individual times          ...      273.456 sec (=   4.558 min)
Startup calculation              ...       13.446 sec (=   0.224 min)   4.9 %
SCF iterations                   ...      258.101 sec (=   4.302 min)  94.4 %
Property calculations            ...        1.909 sec (=   0.032 min)   0.7 %
                             ****ORCA TERMINATED NORMALLY****
TOTAL RUN TIME: 0 days 0 hours 4 minutes 37 seconds 482 msec
