
                                 *****************
                                 * O   R   C   A *
                                 *****************

                                            #,                                       
                                            ###                                      
                                            ####                                     
                                            #####                                    
                                            ######                                   
                                           ########,                                 
                                     ,,################,,,,,                         
                               ,,#################################,,                 
                          ,,##########################################,,             
                       ,#########################################, ''#####,          
                    ,#############################################,,   '####,        
                  ,##################################################,,,,####,       
                ,###########''''           ''''###############################       
              ,#####''   ,,,,##########,,,,          '''####'''          '####       
            ,##' ,,,,###########################,,,                        '##       
           ' ,,###''''                  '''############,,,                           
         ,,##''                                '''############,,,,        ,,,,,,###''
      ,#''                                            '''#######################'''  
     '                                                          ''''####''''         
             ,#######,   #######,   ,#######,      ##                                
            ,#'     '#,  ##    ##  ,#'     '#,    #''#        ,####,   ,####,        
            ##       ##  ##   ,#'  ##            #'  '#       #'       #'  '#        
            ##       ##  #######   ##           ,######,      #####,   #    #        
            '#,     ,#'  ##    ##  '#,     ,#' ,#      #,     #,   #   #,  ,#        
             '#######'   ##     ##  '#######'  #'      '#     '####' # '####'        



                #########################################################
                #                        -***-                          #
                #          Department of theory and spectroscopy        #
                #                                                       #
                #                      Frank Neese                      #
                #                                                       #
                #     Directorship, Architecture, Infrastructure        #
                #                    SHARK, DRIVERS                     #
                #        Core code/Algorithms in most modules           #
                #                                                       #
                #        Max Planck Institute fuer Kohlenforschung      #
                #                Kaiser Wilhelm Platz 1                 #
                #                 D-45470 Muelheim/Ruhr                 #
                #                      Germany                          #
                #                                                       #
                #                  All rights reserved                  #
                #                        -***-                          #
                #########################################################


                         Program Version 6.0.0  -   RELEASE  -


 With contributions from (in alphabetic order):
   Daniel Aravena         : Magnetic Suceptibility
   Michael Atanasov       : Ab Initio Ligand Field Theory (pilot matlab implementation)
   Alexander A. Auer      : GIAO ZORA, VPT2 properties, NMR spectrum
   Ute Becker             : All parallelization in ORCA, NUMFREQ, NUMCALC
   Giovanni Bistoni       : ED, misc. LED, open-shell LED, HFLD
   Martin Brehm           : Molecular dynamics
   Dmytro Bykov           : pre 5.0 version of the SCF Hessian
   Marcos Casanova-Páez   : Triplet and SCS-CIS(D). UHF-(DLPNO)-IP/EA/STEOM-CCSD. UHF-CVS-IP/STEOM-CCSD
   Vijay G. Chilkuri      : MRCI spin determinant printing, contributions to CSF-ICE
   Pauline Colinet        : FMM embedding
   Dipayan Datta          : RHF DLPNO-CCSD density
   Achintya Kumar Dutta   : EOM-CC, STEOM-CC
   Nicolas Foglia         : Exact transition moments, OPA infrastructure, MCD improvements
   Dmitry Ganyushin       : Spin-Orbit,Spin-Spin,Magnetic field MRCI
   Miquel Garcia          : C-PCM and meta-GGA Hessian, CCSD/C-PCM, Gaussian charge scheme
   Tiago L. C. Gouveia    : GS-ROHF, GS-ROCIS
   Yang Guo               : DLPNO-NEVPT2, F12-NEVPT2, CIM, IAO-localization
   Andreas Hansen         : Spin unrestricted coupled pair/coupled cluster methods
   Ingolf Harden          : AUTO-CI MPn and infrastructure 
   Benjamin Helmich-Paris : MC-RPA, TRAH-(SCF,CASSCF), AVAS, COSX integrals, SCF dyn. polar.
   Lee Huntington         : MR-EOM, pCC
   Robert Izsak           : Overlap fitted RIJCOSX, COSX-SCS-MP3, EOM
   Riya Kayal             : Wick's Theorem for AUTO-CI, AUTO-CI UHF-CCSDT
   Emily Kempfer          : AUTO-CI, RHF CISDT and CCSDT
   Christian Kollmar      : KDIIS, OOCD, Brueckner-CCSD(T), CCSD density, CASPT2, CASPT2-K, improved NEVPT2
   Axel Koslowski         : Symmetry handling
   Simone Kossmann        : Meta GGA functionals, TD-DFT gradient, OOMP2, (MP2 Hessian; deprecated post 5.0)
   Lucas Lang             : DCDCAS
   Marvin Lechner         : AUTO-CI (C++ implementation), FIC-MRCC
   Spencer Leger          : CASSCF response
   Dagmar Lenk            : GEPOL surface, SMD, ORCA-2-JSON
   Dimitrios Liakos       : Extrapolation schemes; Compound Job, initial MDCI parallelization
   Dimitrios Manganas     : Further ROCIS development; embedding schemes. LFT, Crystal Embedding
   Dimitrios Pantazis     : SARC Basis sets
   Anastasios Papadopoulos: AUTO-CI, single reference methods and gradients
   Taras Petrenko         : pre 6.0 DFT Hessian and TD-DFT gradient, (ASA, deprecated), ECA, 1-Electron XAS/XES, NRVS
   Peter Pinski           : DLPNO-MP2, DLPNO-MP2 Gradient
   Christoph Reimann      : Effective Core Potentials
   Marius Retegan         : Local ZFS, SOC
   Christoph Riplinger    : Optimizer, TS searches, QM/MM, DLPNO-CCSD(T), (RO)-DLPNO pert. Triples
   Michael Roemelt        : Original ROCIS implementation
   Masaaki Saitow         : Open-shell DLPNO-CCSD energy and density
   Barbara Sandhoefer     : DKH picture change effects
   Kantharuban Sivalingam : CASSCF convergence/infrastructure, NEVPT2 and variants, FIC-MRCI
   Bernardo de Souza      : ESD, SOC TD-DFT
   Georgi Stoychev        : AutoAux, RI-MP2 NMR, DLPNO-MP2 response, X2C
   Van Anh Tran           : RI-MP2 g-tensors
   Willem Van den Heuvel  : Paramagnetic NMR
   Zikuan Wang            : NOTCH, Electric field optimization 
   Frank Wennmohs         : Technical directorship and infrastructure
   Hang Xu                : AUTO-CI-Response properties 


 We gratefully acknowledge several colleagues who have allowed us to
 interface, adapt or use parts of their codes:
   Stefan Grimme, W. Hujo, H. Kruse, P. Pracht,  : VdW corrections, initial TS optimization,
                  C. Bannwarth, S. Ehlert,         DFT functionals, gCP, sTDA/sTD-DF
                  L. Wittmann, M. Mueller
   Ed Valeev, F. Pavosevic, A. Kumar             : LibInt (2-el integral package), F12 methods
   Garnet Chan, S. Sharma, J. Yang, R. Olivares  : DMRG
   Ulf Ekstrom                                   : XCFun DFT Library
   Mihaly Kallay                                 : mrcc  (arbitrary order and MRCC methods)
   Frank Weinhold                                : gennbo (NPA and NBO analysis)
   Simon Mueller                                 : openCOSMO-RS
   Christopher J. Cramer and Donald G. Truhlar   : smd solvation model
   Lars Goerigk                                  : TD-DFT with DH, B97 family of functionals
   V. Asgeirsson, H. Jonsson                     : NEB implementation
   FAccTs GmbH                                   : IRC, NEB, NEB-TS, DLPNO-Multilevel, CI-OPT
                                                   MM, QMMM, 2- and 3-layer-ONIOM, Crystal-QMMM,
                                                   LR-CPCM, SF, NACMEs, symmetry and pop. for TD-DFT,
                                                   nearIR, NL-DFT gradient (VV10), updates on ESD,
                                                   ML-optimized integration grids, MBIS, APM,
                                                   GOAT, DOCKER, SOLVATOR, interface openCOSMO-RS
   S Lehtola, MJT Oliveira, MAL Marques          : LibXC Library
   Liviu Ungur et al                             : ANISO software


 Your calculation uses the libint2 library for the computation of 2-el integrals
 For citations please refer to: http://libint.valeyev.net

 Your ORCA version has been built with support for libXC version: 6.2.2
 For citations please refer to: https://libxc.gitlab.io

 This ORCA versions uses:
   CBLAS   interface :  Fast vector & matrix operations
   LAPACKE interface :  Fast linear algebra routines
   SCALAPACK package :  Parallel linear algebra routines
   Shared memory     :  Shared parallel matrices
   BLAS/LAPACK       :  OpenBLAS 0.3.27  USE64BITINT DYNAMIC_ARCH NO_AFFINITY Sandybridge SINGLE_THREADED
        Core in use  :  Sandybridge
   Copyright (c) 2011-2014, The OpenBLAS Project


NOTE: MaxCore=3500 MB was set to SCF,MP2,MDCI,CIPSI,MRCI and CIS
      => If you want to overwrite this, your respective input block should be placed after the MaxCore statement
Your calculation utilizes the atom-pairwise dispersion correction
with the Becke-Johnson damping scheme (D3BJ)


Your calculation utilizes the SMD solvation module
Please cite in your paper:
A.V. Marenich, C.J. Cramer, D.G. Truhlar J. Phys. Chem. B, 113, (2009), 6378 

Warning: RI is on but no J-basis has been assigned. Assigning Def2/J (nothing to worry about!)
================================================================================

----- Orbital basis set information -----
Your calculation utilizes the basis: aug-cc-pVTZ 
    H, B-Ne : Obtained from the ccRepo (grant-hill.group.shef.ac.uk/ccrepo) Feb. 2017
              R. A. Kendall, T. H. Dunning, Jr., R. J. Harrison, J. Chem. Phys. 96, 6796 (1992)
         He : Obtained from the ccRepo (grant-hill.group.shef.ac.uk/ccrepo) Feb. 2017
              D. E. Woon, T. H. Dunning, Jr., J. Chem. Phys. 100, 2975 (1994)
  Li-Be, Na : Obtained from the ccRepo (grant-hill.group.shef.ac.uk/ccrepo) Feb. 2017
              B. P. Prascher, D. E. Woon, K. A. Peterson, T. H. Dunning, Jr., A. K. Wilson, Theor. Chem. Acc. 128, 69 (2011)
         Mg : Obtained from the Peterson Research Group Website (tyr0.chem.wsu.edu/~kipeters) Feb. 2017
              B. P. Prascher, D. E. Woon, K. A. Peterson, T. H. Dunning, Jr., A. K. Wilson, Theor. Chem. Acc. 128, 69 (2011)
      Al-Ar : Obtained from the ccRepo (grant-hill.group.shef.ac.uk/ccrepo) Feb. 2017
              D. E. Woon, T. H. Dunning, Jr., J. Chem. Phys. 98, 1358 (1993)
      Sc-Zn : Obtained from the ccRepo (grant-hill.group.shef.ac.uk/ccrepo) Feb. 2017
              N. B. Balabanov, K. A. Peterson, J. Chem. Phys. 123, 064107 (2005)
              N. B. Balabanov, K. A. Peterson, J. Chem. Phys. 125, 074110 (2006)
      Ga-Kr : Obtained from the ccRepo (grant-hill.group.shef.ac.uk/ccrepo) Feb. 2017
              A. K. Wilson, D. E. Woon, K. A. Peterson, T. H. Dunning, Jr., J. Chem. Phys. 110, 7667 (1999)
     Ag, Au : Obtained from the Peterson Research Group Website (tyr0.chem.wsu.edu/~kipeters) Feb. 2017
              K. A. Peterson, C. Puzzarini, Theor. Chem. Acc. 114, 283 (2005)

----- AuxJ basis set information -----
Your calculation utilizes the auxiliary basis: def2/J
   F. Weigend, Phys. Chem. Chem. Phys. 8, 1057 (2006).

================================================================================
                                        WARNINGS
                       Please study these warnings very carefully!
================================================================================

Using LibXC functional ID 497 : Re-regularized SCAN exchange by Furness et al
[ 1]  J. W. Furness, A. D. Kaplan, J. Ning, J. P. Perdew, and J. Sun.,  J. Phys. Chem. Lett. 11, 8208-8215 (2020)
[ 2]  J. W. Furness, A. D. Kaplan, J. Ning, J. P. Perdew, and J. Sun.,  J. Phys. Chem. Lett. 11, 9248-9248 (2020)
Using LibXC functional ID 498 : Re-regularized SCAN correlation by Furness et al
[ 1]  J. W. Furness, A. D. Kaplan, J. Ning, J. P. Perdew, and J. Sun.,  J. Phys. Chem. Lett. 11, 8208-8215 (2020)
[ 2]  J. W. Furness, A. D. Kaplan, J. Ning, J. P. Perdew, and J. Sun.,  J. Phys. Chem. Lett. 11, 9248-9248 (2020)
Using LibXC functional ID 497 : Re-regularized SCAN exchange by Furness et al
[ 1]  J. W. Furness, A. D. Kaplan, J. Ning, J. P. Perdew, and J. Sun.,  J. Phys. Chem. Lett. 11, 8208-8215 (2020)
[ 2]  J. W. Furness, A. D. Kaplan, J. Ning, J. P. Perdew, and J. Sun.,  J. Phys. Chem. Lett. 11, 9248-9248 (2020)
Using LibXC functional ID 498 : Re-regularized SCAN correlation by Furness et al
[ 1]  J. W. Furness, A. D. Kaplan, J. Ning, J. P. Perdew, and J. Sun.,  J. Phys. Chem. Lett. 11, 8208-8215 (2020)
[ 2]  J. W. Furness, A. D. Kaplan, J. Ning, J. P. Perdew, and J. Sun.,  J. Phys. Chem. Lett. 11, 9248-9248 (2020)

WARNING: your system is open-shell and RHF/RKS was chosen
  ===> : WILL SWITCH to UHF/UKS


================================================================================
                                       INPUT FILE
================================================================================
NAME = cs_rporg_w09_red_solv_04.inp
|  1> !r2SCANh aug-cc-pVTZ d3 TightSCF SlowConv RIJCOSX defgrid2
|  2> 
|  3> %pal
|  4> nprocs 15
|  5> end
|  6> 
|  7> %scf
|  8> MaxIter 1500
|  9> end
| 10> 
| 11> %maxcore 3500
| 12> 
| 13> !CPCM
| 14> %cpcm smd true
| 15> SMDsolvent "WATER"
| 16> surfacetype gepol_ses
| 17> rsolv 1.40
| 18> end
| 19> 
| 20> * xyz -1 2
| 21> C          -0.06058974015319     -0.02786640637996     -0.06636687374245
| 22> C          -0.02915253757207      1.41200889322469      0.08669635331984
| 23> C           0.02798442423532      2.03233434330205      1.32981811902407
| 24> C           0.05891841826264      1.28851377532912      2.57222906271290
| 25> C           0.02788466230184     -0.17442785622153      2.44488354658359
| 26> C          -0.02912762559812     -0.80604792656199      1.17894588306731
| 27> C          -0.05600083532212     -2.21190043304611      1.11490808218194
| 28> C          -0.02778223638882     -2.97912152092029      2.26676120872945
| 29> C           0.02864253401367     -2.35043181295908      3.52692854346035
| 30> C           0.05574276936416     -0.96875665770795      3.60660845784379
| 31> H           0.09961725693663     -0.44137362844551      4.56397519772263
| 32> H           0.05097367878843     -2.95610213708649      4.44040440744309
| 33> H          -0.04909796692647     -4.07320599895043      2.20123731713864
| 34> H          -0.09984497496410     -2.65971392423461      0.11785465933687
| 35> C           0.06118565181994      3.52761243856941      1.44630550499102
| 36> H          -0.83631875455019      3.99924775120952      0.99973118694746
| 37> H           0.10955815705607      3.79661097587730      2.51364550587021
| 38> H           0.93630443757164      3.96465252836867      0.92646488630537
| 39> C          -0.06070223464566      2.21802482702039     -1.17830606330920
| 40> H           0.83706819273596      2.85838996312933     -1.28473705482212
| 41> H          -0.10791860033235      1.52690469530484     -2.03502370536211
| 42> H          -0.93579834377862      2.89621056380490     -1.21654993473529
| 43> O           0.10927738480662      1.83885022543947      3.69657300623271
| 44> O          -0.11082371766120     -0.59470609206575     -1.18250068694010
| 45> *
| 46> 
| 47>                          ****END OF INPUT****
================================================================================

                       ****************************
                       * Single Point Calculation *
                       ****************************

---------------------------------
CARTESIAN COORDINATES (ANGSTROEM)
---------------------------------
  C     -0.060590   -0.027866   -0.066367
  C     -0.029153    1.412009    0.086696
  C      0.027984    2.032334    1.329818
  C      0.058918    1.288514    2.572229
  C      0.027885   -0.174428    2.444884
  C     -0.029128   -0.806048    1.178946
  C     -0.056001   -2.211900    1.114908
  C     -0.027782   -2.979122    2.266761
  C      0.028643   -2.350432    3.526929
  C      0.055743   -0.968757    3.606608
  H      0.099617   -0.441374    4.563975
  H      0.050974   -2.956102    4.440404
  H     -0.049098   -4.073206    2.201237
  H     -0.099845   -2.659714    0.117855
  C      0.061186    3.527612    1.446306
  H     -0.836319    3.999248    0.999731
  H      0.109558    3.796611    2.513646
  H      0.936304    3.964653    0.926465
  C     -0.060702    2.218025   -1.178306
  H      0.837068    2.858390   -1.284737
  H     -0.107919    1.526905   -2.035024
  H     -0.935798    2.896211   -1.216550
  O      0.109277    1.838850    3.696573
  O     -0.110824   -0.594706   -1.182501

----------------------------
CARTESIAN COORDINATES (A.U.)
----------------------------
  NO LB      ZA    FRAG     MASS         X           Y           Z
   0 C     6.0000    0    12.011   -0.114498   -0.052660   -0.125415
   1 C     6.0000    0    12.011   -0.055090    2.668310    0.163832
   2 C     6.0000    0    12.011    0.052883    3.840555    2.512992
   3 C     6.0000    0    12.011    0.111340    2.434938    4.860808
   4 C     6.0000    0    12.011    0.052694   -0.329621    4.620160
   5 C     6.0000    0    12.011   -0.055043   -1.523210    2.227885
   6 C     6.0000    0    12.011   -0.105826   -4.179886    2.106871
   7 C     6.0000    0    12.011   -0.052501   -5.629724    4.283558
   8 C     6.0000    0    12.011    0.054127   -4.441672    6.664929
   9 C     6.0000    0    12.011    0.105339   -1.830685    6.815502
  10 H     1.0000    0     1.008    0.188249   -0.834075    8.624663
  11 H     1.0000    0     1.008    0.096326   -5.586223    8.391148
  12 H     1.0000    0     1.008   -0.092782   -7.697244    4.159736
  13 H     1.0000    0     1.008   -0.188680   -5.026131    0.222713
  14 C     6.0000    0    12.011    0.115624    6.666221    2.733121
  15 H     1.0000    0     1.008   -1.580413    7.557483    1.889218
  16 H     1.0000    0     1.008    0.207035    7.174555    4.750102
  17 H     1.0000    0     1.008    1.769359    7.492107    1.750765
  18 C     6.0000    0    12.011   -0.114711    4.191459   -2.226676
  19 H     1.0000    0     1.008    1.581830    5.401574   -2.427801
  20 H     1.0000    0     1.008   -0.203937    2.885432   -3.845637
  21 H     1.0000    0     1.008   -1.768403    5.473045   -2.298946
  22 O     8.0000    0    15.999    0.206504    3.474923    6.985511
  23 O     8.0000    0    15.999   -0.209426   -1.123832   -2.234602

--------------------------------
INTERNAL COORDINATES (ANGSTROEM)
--------------------------------
 C      0   0   0     0.000000000000     0.00000000     0.00000000
 C      1   0   0     1.448329219341     0.00000000     0.00000000
 C      2   1   0     1.390474746547   122.60851115     0.00000000
 C      3   2   1     1.448382167221   122.59234565   359.91729432
 C      4   3   2     1.468801617582   115.89235289     0.07247685
 C      5   4   3     1.415906946850   121.51198582     0.00000000
 C      6   5   4     1.407566793915   119.14298502   179.96049191
 C      7   6   5     1.384265188518   121.01905865     0.00000000
 C      8   7   6     1.409416977028   119.83981694     0.00000000
 C      9   8   7     1.384236087577   119.83401399     0.00000000
 H     10   9   8     1.093896203869   122.16678317   180.00835962
 H      9   8   7     1.096254247716   119.96036143   179.99422178
 H      8   7   6     1.096252063079   120.19976933   180.00995856
 H      7   6   5     1.093880596536   116.81527632   180.01124999
 C      3   2   1     1.500176061264   120.99733519   179.90531135
 H     15   3   2     1.107873029331   112.03010326    60.03223112
 H     15   3   2     1.101778012947   108.63547743   180.24252074
 H     15   3   2     1.107732457818   111.98058032   300.53375704
 C      2   1   3     1.500296031787   116.39374242   179.96290654
 H     19   2   1     1.107874904391   111.99281940   239.97516484
 H     19   2   1     1.101744770741   108.63526221     0.19887516
 H     19   2   1     1.107786842086   112.00062783   120.48182468
 O      4   3   2     1.252819036079   123.03098487   180.06066282
 O      1   2   3     1.252830942597   123.01290911   180.06774257

---------------------------
INTERNAL COORDINATES (A.U.)
---------------------------
 C      0   0   0     0.000000000000     0.00000000     0.00000000
 C      1   0   0     2.736945576310     0.00000000     0.00000000
 C      2   1   0     2.627616467108   122.60851115     0.00000000
 C      3   2   1     2.737045633303   122.59234565   359.91729432
 C      4   3   2     2.775632802290   115.89235289     0.07247685
 C      5   4   3     2.675676360663   121.51198582     0.00000000
 C      6   5   4     2.659915755700   119.14298502   179.96049191
 C      7   6   5     2.615882103019   121.01905865     0.00000000
 C      8   7   6     2.663412095082   119.83981694     0.00000000
 C      9   8   7     2.615827110211   119.83401399     0.00000000
 H     10   9   8     2.067164244249   122.16678317   180.00835962
 H      9   8   7     2.071620301330   119.96036143   179.99422178
 H      8   7   6     2.071616172965   120.19976933   180.00995856
 H      7   6   5     2.067134750664   116.81527632   180.01124999
 C      3   2   1     2.834921908453   120.99733519   179.90531135
 H     15   3   2     2.093576616593   112.03010326    60.03223112
 H     15   3   2     2.082058704846   108.63547743   180.24252074
 H     15   3   2     2.093310974931   111.98058032   300.53375704
 C      2   1   3     2.835148619886   116.39374242   179.96290654
 H     19   2   1     2.093580159943   111.99281940   239.97516484
 H     19   2   1     2.081995886181   108.63526221     0.19887516
 H     19   2   1     2.093413746304   112.00062783   120.48182468
 O      4   3   2     2.367484873552   123.03098487   180.06066282
 O      1   2   3     2.367507373610   123.01290911   180.06774257

---------------------
BASIS SET INFORMATION
---------------------
There are 3 groups of distinct atoms

 Group   1 Type C   : 19s6p3d2f contracted to 5s4p3d2f pattern {88111/3111/111/11}
 Group   2 Type H   : 6s3p2d contracted to 4s3p2d pattern {3111/111/11}
 Group   3 Type O   : 19s6p3d2f contracted to 5s4p3d2f pattern {88111/3111/111/11}

Atom   0C    basis set group =>   1
Atom   1C    basis set group =>   1
Atom   2C    basis set group =>   1
Atom   3C    basis set group =>   1
Atom   4C    basis set group =>   1
Atom   5C    basis set group =>   1
Atom   6C    basis set group =>   1
Atom   7C    basis set group =>   1
Atom   8C    basis set group =>   1
Atom   9C    basis set group =>   1
Atom  10H    basis set group =>   2
Atom  11H    basis set group =>   2
Atom  12H    basis set group =>   2
Atom  13H    basis set group =>   2
Atom  14C    basis set group =>   1
Atom  15H    basis set group =>   2
Atom  16H    basis set group =>   2
Atom  17H    basis set group =>   2
Atom  18C    basis set group =>   1
Atom  19H    basis set group =>   2
Atom  20H    basis set group =>   2
Atom  21H    basis set group =>   2
Atom  22O    basis set group =>   3
Atom  23O    basis set group =>   3
---------------------------------
AUXILIARY/J BASIS SET INFORMATION
---------------------------------
There are 3 groups of distinct atoms

 Group   1 Type C   : 12s5p4d2f1g contracted to 6s4p3d1f1g pattern {711111/2111/211/2/1}
 Group   2 Type H   : 5s2p1d contracted to 3s1p1d pattern {311/2/1}
 Group   3 Type O   : 12s5p4d2f1g contracted to 6s4p3d1f1g pattern {711111/2111/211/2/1}

Atom   0C    basis set group =>   1
Atom   1C    basis set group =>   1
Atom   2C    basis set group =>   1
Atom   3C    basis set group =>   1
Atom   4C    basis set group =>   1
Atom   5C    basis set group =>   1
Atom   6C    basis set group =>   1
Atom   7C    basis set group =>   1
Atom   8C    basis set group =>   1
Atom   9C    basis set group =>   1
Atom  10H    basis set group =>   2
Atom  11H    basis set group =>   2
Atom  12H    basis set group =>   2
Atom  13H    basis set group =>   2
Atom  14C    basis set group =>   1
Atom  15H    basis set group =>   2
Atom  16H    basis set group =>   2
Atom  17H    basis set group =>   2
Atom  18C    basis set group =>   1
Atom  19H    basis set group =>   2
Atom  20H    basis set group =>   2
Atom  21H    basis set group =>   2
Atom  22O    basis set group =>   3
Atom  23O    basis set group =>   3


           ************************************************************
           *        Program running with 15 parallel MPI-processes    *
           *              working on a common directory               *
           ************************************************************
------------------------------------------------------------------------------
                             ORCA STARTUP CALCULATIONS
                           -- RI-GTO INTEGRALS CHOSEN --
------------------------------------------------------------------------------
------------------------------------------------------------------------------
                   ___                                                        
                  /   \      - P O W E R E D   B Y -                         
                 /     \                                                     
                 |  |  |   _    _      __       _____    __    __             
                 |  |  |  | |  | |    /  \     |  _  \  |  |  /  |          
                  \  \/   | |  | |   /    \    | | | |  |  | /  /          
                 / \  \   | |__| |  /  /\  \   | |_| |  |  |/  /          
                |  |  |   |  __  | /  /__\  \  |    /   |      \           
                |  |  |   | |  | | |   __   |  |    \   |  |\   \          
                \     /   | |  | | |  |  |  |  | |\  \  |  | \   \       
                 \___/    |_|  |_| |__|  |__|  |_| \__\ |__|  \__/        
                                                                              
                      - O R C A' S   B I G   F R I E N D -                    
                                      &                                       
                       - I N T E G R A L  F E E D E R -                       
                                                                              
 v1 FN, 2020, v2 2021, v3 2022-2024                                           
------------------------------------------------------------------------------


----------------------
SHARK INTEGRAL PACKAGE
----------------------

Number of atoms                             ...     24
Number of basis functions                   ...    958
Number of shells                            ...    370
Maximum angular momentum                    ...      3
Integral batch strategy                     ... SHARK/LIBINT Hybrid
RI-J (if used) integral strategy            ... SPLIT-RIJ (Revised 2003 algorithm where possible)
Printlevel                                  ...      1
Contraction scheme used                     ... PARTIAL GENERAL contraction
Prescreening option                         ... SCHWARTZ
   Thresh                                   ... 2.500e-11
   Tcut                                     ... 2.500e-12
   Tpresel                                  ... 2.500e-12 
Coulomb Range Separation                    ... NOT USED
Exchange Range Separation                   ... NOT USED
Multipole approximations                    ... NOT USED
Finite Nucleus Model                        ... NOT USED
CABS basis                                  ... NOT available
Auxiliary Coulomb fitting basis             ... AVAILABLE
   # of basis functions in Aux-J            ...    796
   # of shells in Aux-J                     ...    260
   Maximum angular momentum in Aux-J        ...      4
Auxiliary J/K fitting basis                 ... NOT available
Auxiliary Correlation fitting basis         ... NOT available
Auxiliary 'external' fitting basis          ... NOT available

Checking pre-screening integrals            ... done (  0.1 sec) Dimension = 370
Save PGC pre-screening integrals            ... done (  0.1 sec) Dimension = 370
Calculate PGC overlap integrals             ... done (  0.2 sec) Dimension = 286
Calculating pre-screening integrals (ORCA)  ... done (  0.3 sec) Dimension = 286
Check shell pair data                       ... done (  0.0 sec)
Shell pair information
Shell pair cut-off parameter TPreSel        ...   2.5e-12
Total number of shell pairs                 ...     68635
Shell pairs after pre-screening             ...     53642
Total number of primitive shell pairs       ...     87643
Primitive shell pairs kept                  ...     63261
          la=0 lb=0:  11989 shell pairs
          la=1 lb=0:  13599 shell pairs
          la=1 lb=1:   3393 shell pairs
          la=2 lb=0:   9503 shell pairs
          la=2 lb=1:   4750 shell pairs
          la=2 lb=2:   1720 shell pairs
          la=3 lb=0:   4481 shell pairs
          la=3 lb=1:   2220 shell pairs
          la=3 lb=2:   1596 shell pairs
          la=3 lb=3:    391 shell pairs

Calculating one electron integrals          ... done (  0.1 sec)
Calculating RI/J V-Matrix + Cholesky decomp.... done (  0.1 sec)
Calculating Nuclear repulsion               ... done (  0.0 sec) ENN=    831.497838093691 Eh

Diagonalization of the overlap matrix:
Smallest eigenvalue                        ... 1.664e-07
Time for diagonalization                   ...    0.270 sec
Threshold for overlap eigenvalues          ... 1.000e-07
Number of eigenvalues below threshold      ... 0

IMPORTANT:
Smallest eigenvalue of S below the DiffSThresh (1.000e-06) while
Thresh>1e-12 and/or TCut>1e-13! In order to avoid SCF convergence issues,
Thresh will be set to at least 1e-12 and TCut to at least 1e-13.
This can be turned off by adding %SCF DiffSThresh -1 END to the input.

Time for construction of square roots      ...    0.187 sec
Total time needed                          ...    0.528 sec

-------------------
DFT GRID GENERATION
-------------------

General Integration Accuracy     IntAcc      ... 4.388
Radial Grid Type                 RadialGrid  ... OptM3 with GC (2021)
Angular Grid (max. ang.)         AngularGrid ... 4 (Lebedev-302)
Angular grid pruning method      GridPruning ... 4 (adaptive)
Weight generation scheme         WeightScheme... mBecke (2022)
Basis function cutoff            BFCut       ... 1.0000e-11
Integration weight cutoff        WCut        ... 1.0000e-14
Partially contracted basis set               ... off
Rotationally invariant grid construction     ... off
Angular grids for H and He will be reduced by one unit
Diffuse basis detected: some atoms will have their outermost
                        angular grid increased by 1.

Total number of grid points                  ...   121177
Total number of batches                      ...     1907
Average number of points per batch           ...       63
Average number of grid points per atom       ...     5049

---------------------
SHARK GRID GENERATION
---------------------

General Integration Accuracy     IntAcc      ... 4.388
Radial Grid Type                 RadialGrid  ... OptM3 with GC (2021)
Angular Grid (max. ang.)         AngularGrid ... 4 (Lebedev-302)
Angular grid pruning method      GridPruning ... 4 (adaptive)
Weight generation scheme         WeightScheme... mBecke (2022)
Basis function cutoff            BFCut       ... 1.0000e-11
Integration weight cutoff        WCut        ... 1.0000e-14
Partially contracted basis set               ... off
Rotationally invariant grid construction     ... off
Angular grids for H and He will be reduced by one unit
Diffuse basis detected: some atoms will have their outermost
                        angular grid increased by 1.
Steep s-basis detected: some atoms will have their radial
                        grid points doubled.

Total number of grid points                  ...   208913
Total number of batches                      ...     3275
Average number of points per batch           ...       63
Average number of grid points per atom       ...     8705

--------------------
COSX GRID GENERATION
--------------------

GRIDX 1
-------
General Integration Accuracy     IntAcc      ... 3.816
Radial Grid Type                 RadialGrid  ... OptM3 with GC (2021)
Angular Grid (max. ang.)         AngularGrid ... 1 (Lebedev-50)
Angular grid pruning method      GridPruning ... 4 (adaptive)
Weight generation scheme         WeightScheme... mBecke (2022)
Basis function cutoff            BFCut       ... 1.0000e-11
Integration weight cutoff        WCut        ... 1.0000e-14
Partially contracted basis set               ... on
Rotationally invariant grid construction     ... off
Angular grids for H and He will be reduced by one unit
Diffuse basis detected: some atoms will have their outermost
                        angular grid increased by 1.

Total number of grid points                  ...    15203
Total number of batches                      ...      130
Average number of points per batch           ...      116
Average number of grid points per atom       ...      633
UseSFitting                                  ... on

GRIDX 2
-------
General Integration Accuracy     IntAcc      ... 4.020
Radial Grid Type                 RadialGrid  ... OptM3 with GC (2021)
Angular Grid (max. ang.)         AngularGrid ... 2 (Lebedev-110)
Angular grid pruning method      GridPruning ... 4 (adaptive)
Weight generation scheme         WeightScheme... mBecke (2022)
Basis function cutoff            BFCut       ... 1.0000e-11
Integration weight cutoff        WCut        ... 1.0000e-14
Partially contracted basis set               ... on
Rotationally invariant grid construction     ... off
Angular grids for H and He will be reduced by one unit
Diffuse basis detected: some atoms will have their outermost
                        angular grid increased by 1.

Total number of grid points                  ...    36951
Total number of batches                      ...      304
Average number of points per batch           ...      121
Average number of grid points per atom       ...     1540
UseSFitting                                  ... on

GRIDX 3
-------
General Integration Accuracy     IntAcc      ... 4.338
Radial Grid Type                 RadialGrid  ... OptM3 with GC (2021)
Angular Grid (max. ang.)         AngularGrid ... 3 (Lebedev-194)
Angular grid pruning method      GridPruning ... 4 (adaptive)
Weight generation scheme         WeightScheme... mBecke (2022)
Basis function cutoff            BFCut       ... 1.0000e-11
Integration weight cutoff        WCut        ... 1.0000e-14
Partially contracted basis set               ... on
Rotationally invariant grid construction     ... off
Angular grids for H and He will be reduced by one unit
Diffuse basis detected: some atoms will have their outermost
                        angular grid increased by 1.

Total number of grid points                  ...    81820
Total number of batches                      ...      654
Average number of points per batch           ...      125
Average number of grid points per atom       ...     3409
UseSFitting                                  ... on
Initializing property integral containers    ... done (  0.1 sec)

SHARK setup successfully completed in  10.1 seconds

Maximum memory used throughout the entire STARTUP-calculation: 103.1 MB


           ************************************************************
           *        Program running with 15 parallel MPI-processes    *
           *              working on a common directory               *
           ************************************************************
-------------------------------------------------------------------------------
                                 ORCA GUESS
                   Start orbitals & Density for SCF / CASSCF
-------------------------------------------------------------------------------

------------
SCF SETTINGS
------------
Hamiltonian:
 Density Functional     Method          .... DFT(GTOs)
  Functional kind                       .... Exchange
  Functional name                       .... Re-regularized SCAN exchange by Furness et al
  Functional family                     .... MGGA
  Functional refs                              
    [ 0] J. W. Furness, A. D. Kaplan, J. Ning, J. P. Perdew, and J. Sun.,  J. Phys. Chem. Lett. 11, 8208-8215 (2020), doi: 10.1021/acs.jpclett.0c02405
    [ 1] J. W. Furness, A. D. Kaplan, J. Ning, J. P. Perdew, and J. Sun.,  J. Phys. Chem. Lett. 11, 9248-9248 (2020), doi: 10.1021/acs.jpclett.0c03077
  Functional external parameters        .... 6
    Parameter  0 _c1        =  6.670000e-01 : c1 parameter        
    Parameter  1 _c2        =  8.000000e-01 : c2 parameter        
    Parameter  2 _d         =  1.240000e+00 : d parameter         
    Parameter  3 _k1        =  6.500000e-02 : k1 parameter        
    Parameter  4 _eta       =  1.000000e-03 : eta parameter       
    Parameter  5 _dp2       =  3.610000e-01 : dp2 parameter       
  Functional kind                       .... Correlation
  Functional name                       .... Re-regularized SCAN correlation by Furness et al
  Functional family                     .... MGGA
  Functional refs                              
    [ 0] J. W. Furness, A. D. Kaplan, J. Ning, J. P. Perdew, and J. Sun.,  J. Phys. Chem. Lett. 11, 8208-8215 (2020), doi: 10.1021/acs.jpclett.0c02405
    [ 1] J. W. Furness, A. D. Kaplan, J. Ning, J. P. Perdew, and J. Sun.,  J. Phys. Chem. Lett. 11, 9248-9248 (2020), doi: 10.1021/acs.jpclett.0c03077
  Functional external parameters        .... 1
    Parameter  0 _eta       =  1.000000e-03 : Regularization parameter
 Gradients option       PostSCFGGA      .... off
 Hybrid DFT is turned on
   Fraction HF Exchange ScalHFX         ....  0.100000
   Scaling of DF-GGA-X  ScalDFX         ....  0.900000
   Scaling of DF-GGA-C  ScalDFC         ....  1.000000
   Scaling of DF-LDA-C  ScalLDAC        ....  1.000000
   Perturbative correction              ....  0.000000
   NL short-range parameter             .... 11.900000
 RI-approximation to the Coulomb term is turned on
   Number of AuxJ basis functions       .... 796
   RIJ-COSX (HFX calculated with COS-X)).... on


General Settings:
 Integral files         IntName         .... cs_rporg_w09_red_solv_04
 Hartree-Fock type      HFTyp           .... UHF
 Total Charge           Charge          ....   -1
 Multiplicity           Mult            ....    2
 Number of Electrons    NEL             ....   99
 Basis Dimension        Dim             ....  874
 Nuclear Repulsion      ENuc            ....    831.4978380937 Eh

Convergence Acceleration:
 AO-DIIS                CNVDIIS         .... on
   Start iteration      DIISMaxIt       ....     0
   Startup error        DIISStart       ....  0.200000
   # of expansion vecs  DIISMaxEq       ....     5
   Bias factor          DIISBfac        ....   1.050
   Max. coefficient     DIISMaxC        ....  10.000
 MO-DIIS                CNVKDIIS        .... off
 Trust-Rad. Augm. Hess. CNVTRAH         .... auto
   Auto Start mean grad. ratio tolernc. ....  1.125000
   Auto Start start iteration           ....    50
   Auto Start num. interpolation iter.  ....    10
   Max. Number of Micro iterations      ....    24
   Max. Number of Macro iterations      .... Maxiter - #DIIS iter
   Number of Davidson start vectors     ....     2
   Converg. threshold    (grad. norm)   ....   1.000e-05
   Grad. Scal. Fac. for Micro threshold ....   0.100
   Minimum threshold for Micro iter.    ....   1.000e-02
   NR start threshold (gradient norm)   ....   1.000e-04
   Initial trust radius                 ....   0.400
   Minimum AH scaling param. (alpha)    ....   1.000
   Maximum AH scaling param. (alpha)    .... 1000.000
   Quad. conv. algorithm                .... NR
   White noise on init. David. guess    .... on
   Maximum white noise                  ....   0.010
   Pseudo random numbers                .... off
   Inactive MOs                         .... canonical
   Orbital update algorithm             .... Taylor
   Preconditioner                       .... Diag
   Full preconditioner red. dimension   ....   250
 SOSCF                  CNVSOSCF        .... on
   Start iteration      SOSCFMaxIt      ....   150
   Startup grad/error   SOSCFStart      ....  0.001000
   Hessian update       SOSCFHessUp     .... L-BFGS
 Level Shifting         CNVShift        .... on
   Level shift para.    LevelShift      ....    0.2500
   Turn off err/grad.   ShiftErr        ....    0.0000
 Zerner damping         CNVZerner       .... off
 Static damping         CNVDamp         .... on
   Fraction old density DampFac         ....    0.8500
   Max. Damping (<1)    DampMax         ....    0.9800
   Min. Damping (>=0)   DampMin         ....    0.0000
   Turn off err/grad.   DampErr         ....    0.0300

SCF Procedure:
 Maximum # iterations   MaxIter         ....  1500
 SCF integral mode      SCFMode         .... Direct
   Integral package                     .... SHARK and LIBINT hybrid scheme
 Reset frequency        DirectResetFreq ....    20
 Integral Threshold     Thresh          ....  1.000e-12 Eh
 Primitive CutOff       TCut            ....  1.000e-13 Eh

Convergence Tolerance:
 Convergence Check Mode ConvCheckMode   .... Total+1el-Energy
 Convergence forced     ConvForced      .... 0
 Energy Change          TolE            ....  1.000e-08 Eh
 1-El. energy change                    ....  1.000e-05 Eh
 Orbital Gradient       TolG            ....  1.000e-05
 Orbital Rotation angle TolX            ....  1.000e-05
 DIIS Error             TolErr          ....  5.000e-07

------------------------------
INITIAL GUESS: MODEL POTENTIAL
------------------------------
Loading Hartree-Fock densities                     ... done
Calculating cut-offs                               ... done
Initializing the effective Hamiltonian             ... done
Setting up the integral package (SHARK)            ... done
Starting the Coulomb interaction                   ... done (   0.6 sec)
Making the grid                                    ... done (   0.5 sec)
Mapping shells                                     ... done
Starting the XC term evaluation                    ... done (   0.5 sec)
  promolecular density results
     # of electrons  =     97.994929216
     EX              =    -80.571899758
     EC              =     -3.275306493
     EX+EC           =    -83.847206252
Transforming the Hamiltonian                       ... done (   0.2 sec)
Diagonalizing the Hamiltonian                      ... done (   0.3 sec)
Back transforming the eigenvectors                 ... done (   0.3 sec)
Now organizing SCF variables                       ... done
                      ------------------
                      INITIAL GUESS DONE (   3.1 sec)
                      ------------------
             **** ENERGY FILE WAS UPDATED (cs_rporg_w09_red_solv_04.en.tmp) ****
Finished Guess after   5.2 sec
Maximum memory used throughout the entire GUESS-calculation: 80.2 MB


           ************************************************************
           *        Program running with 15 parallel MPI-processes    *
           *              working on a common directory               *
           ************************************************************

-------------------------------------------------------------------------------------------
                                      ORCA LEAN-SCF
                              memory conserving SCF solver
-------------------------------------------------------------------------------------------

--------------------
CPCM SOLVATION MODEL
--------------------
CPCM parameters:
  Epsilon                                         ...      78.3550
  Refrac                                          ...       1.3328
  Rsolv                                           ...       1.4000
  Surface type                                    ...    GEPOL SES
  Discretization scheme                           ... Constant num. charges
  Epsilon function type                           ...         CPCM
Solvent:                                          ... WATER
SMD-CDS solvent descriptors:
  Soln                                            ...       1.3328
  Soln25                                          ...       1.3323
  Sola                                            ...       0.0000
  Solb                                            ...       0.0000
  Solg                                            ...       0.0000
  Solc                                            ...       0.0000
  Solh                                            ...       0.0000
Radii:
  Scheme                                          ... Element-dependent radii
  Radius for C  used is    3.4960 Bohr (=   1.8500 Ang.)
  Radius for H  used is    2.2677 Bohr (=   1.2000 Ang.)
  Radius for O  used is    2.8724 Bohr (=   1.5200 Ang.)
Calculating surface                               ...        done! (  0.1s)
Cavity surface points                             ...          847
Cavity Volume                                     ...    1291.1026
Cavity Surface-area                               ...     719.7723
Calculating surface distance matrix               ...        done! (  0.0s)
Performing Cholesky decomposition & store         ...        done! (  0.0s)
Overall time for CPCM initialization              ...                 0.1s

----------------------------------------D-I-I-S--------------------------------------------
Iteration    Energy (Eh)           Delta-E    RMSDP     MaxDP     DIISErr   Damp  Time(sec)
-------------------------------------------------------------------------------------------
               ***  Starting incremental Fock matrix formation  ***
    1    -613.3751677729636640     0.00e+00  1.34e-03  7.94e-02  1.53e-01  0.850  29.2
Warning: op=0 Small HOMO/LUMO gap (   0.081) - skipping pre-diagonalization
         Will do a full diagonalization
    2    -613.4749416957025687    -9.98e-02  1.31e-03  7.76e-02  1.10e-01  0.850  23.0
                               ***Turning on AO-DIIS***
    3    -613.5402562732055003    -6.53e-02  8.61e-04  5.15e-02  7.25e-02  0.850  23.1
    4    -613.5824542818103282    -4.22e-02  6.85e-04  4.11e-02  6.01e-02  0.850  20.2
    5    -613.6134297061640837    -3.10e-02  5.70e-04  3.42e-02  5.24e-02  0.850  21.5
    6    -613.6382472210269725    -2.48e-02  4.84e-04  2.91e-02  4.52e-02  0.850  20.6
    7    -613.6588039256431557    -2.06e-02  4.13e-04  2.51e-02  3.79e-02  0.850  21.5
    8    -613.6757780198407772    -1.70e-02  3.46e-04  2.13e-02  3.11e-02  0.850  21.4
    9    -613.6896531956643912    -1.39e-02  2.92e-04  1.82e-02  2.62e-02  0.850  19.7
   10    -613.7010983912035726    -1.14e-02  1.66e-03  1.04e-01  2.25e-02  0.000  20.1
   11    -613.7615526689390890    -6.05e-02  6.02e-05  3.62e-03  1.04e-03  0.000  23.3
   12    -613.7615789631796588    -2.63e-05  3.84e-05  1.97e-03  2.06e-03  0.000  19.9
                              *** Initializing SOSCF ***
---------------------------------------S-O-S-C-F--------------------------------------
Iteration    Energy (Eh)           Delta-E    RMSDP     MaxDP     MaxGrad    Time(sec)
--------------------------------------------------------------------------------------
   13    -613.7616093028233308    -3.03e-05  2.15e-05  1.66e-03  3.43e-04    20.8
               *** Restarting incremental Fock matrix formation ***
   14    -613.7616100745730137    -7.72e-07  6.36e-04  5.12e-02  1.63e-04    28.2
   15    -613.7616113484122025    -1.27e-06  4.24e-04  3.18e-02  1.57e-04    24.3
   16    -613.7616114841240460    -1.36e-07  3.78e-04  2.81e-02  1.16e-04    24.5
   17    -613.7616118904385303    -4.06e-07  9.10e-05  7.13e-03  2.14e-05    23.4
   18    -613.7616118752961256     1.51e-08  4.75e-05  3.62e-03  3.04e-05    24.0
   19    -613.7616119231109906    -4.78e-08  9.51e-06  1.25e-03  3.23e-06    21.8
   20    -613.7616119305508846    -7.44e-09  4.21e-06  3.06e-04  4.15e-06    20.2
                 **** Energy Check signals convergence ****

               *****************************************************
               *                     SUCCESS                       *
               *           SCF CONVERGED AFTER  20 CYCLES          *
               *****************************************************

Recomputing exchange energy using gridx3       ... done (   26.465 sec)
Old exchange energy                            :     -8.246948599 Eh
New exchange energy                            :     -8.246942838 Eh
Exchange energy change after final integration :      0.000005761 Eh
Total energy after final integration           :   -613.761606170 Eh

SMD CDS free energy correction energy :                 5.43463     Kcal/mol
Total Energy after SMD CDS correction =              -613.752945531 Eh
             **** ENERGY FILE WAS UPDATED (cs_rporg_w09_red_solv_04.en.tmp) ****

----------------
TOTAL SCF ENERGY
----------------

Total Energy       :       -613.75294553138838 Eh          -16701.06671 eV

Components:
Nuclear Repulsion  :        831.49783809369148 Eh           22626.20647 eV
Electronic Energy  :      -1445.15870710367540 Eh          -39324.76765 eV
One Electron Energy:      -2499.30809864017556 Eh          -68009.63091 eV
Two Electron Energy:       1054.14939153650016 Eh           28684.86325 eV
CPCM Dielectric    :         -0.10074292056698 Eh              -2.74135 eV
SMD CDS (Gcds)     :          0.00866063863905 Eh               0.23567 eV

Virial components:
Potential Energy   :      -1224.01760239268719 Eh          -33307.21227 eV
Kinetic Energy     :        610.26465686129882 Eh           16606.14555 eV
Virial Ratio       :          2.00571602604029

DFT components:
N(Alpha)           :       50.000003174525 electrons
N(Beta)            :       49.000002357618 electrons
N(Total)           :       99.000005532143 electrons
E(X)               :      -74.520249196123 Eh       
E(C)               :       -3.236096083495 Eh       
E(XC)              :      -77.756345279618 Eh       

CPCM Solvation Model Properties:
Surface-charge          :          0.93707556942585
Corrected charge        :          1.00000000000000
Outlying charge corr.   :          0.00026616781769 Eh               0.00724 eV
Free-energy (cav+disp)  :          0.00866063863905 Eh               0.23567 eV

---------------
SCF CONVERGENCE
---------------

  Last Energy change         ...    7.4399e-09  Tolerance :   1.0000e-08
  Last MAX-Density change    ...    3.0618e-04  Tolerance :   1.0000e-07
  Last RMS-Density change    ...    4.2128e-06  Tolerance :   5.0000e-09
  Last DIIS Error            ...    3.4347e-04  Tolerance :   5.0000e-07
  Last Orbital Gradient      ...    4.1517e-06  Tolerance :   1.0000e-05
  Last Orbital Rotation      ...    7.2804e-06  Tolerance :   1.0000e-05


----------------------
UHF SPIN CONTAMINATION
----------------------

Warning: in a DFT calculation there is little theoretical justification to 
         calculate <S**2> as in Hartree-Fock theory. We will do it anyways
         but you should keep in mind that the values have only limited relevance

Expectation value of <S**2>     :     0.758502
Ideal value S*(S+1) for S=0.5   :     0.750000
Deviation                       :     0.008502

----------------
ORBITAL ENERGIES
----------------
                 SPIN UP ORBITALS
  NO   OCC          E(Eh)            E(eV) 
   0   1.0000     -19.075485      -519.0703 
   1   1.0000     -19.075433      -519.0689 
   2   1.0000     -10.207173      -277.7513 
   3   1.0000     -10.207135      -277.7503 
   4   1.0000     -10.158299      -276.4214 
   5   1.0000     -10.157838      -276.4088 
   6   1.0000     -10.157734      -276.4060 
   7   1.0000     -10.157290      -276.3939 
   8   1.0000     -10.155257      -276.3386 
   9   1.0000     -10.155182      -276.3365 
  10   1.0000     -10.155170      -276.3362 
  11   1.0000     -10.154716      -276.3239 
  12   1.0000     -10.137842      -275.8647 
  13   1.0000     -10.137828      -275.8643 
  14   1.0000      -1.012654       -27.5557 
  15   1.0000      -1.010357       -27.4932 
  16   1.0000      -0.857233       -23.3265 
  17   1.0000      -0.816104       -22.2073 
  18   1.0000      -0.754480       -20.5305 
  19   1.0000      -0.747181       -20.3318 
  20   1.0000      -0.721597       -19.6357 
  21   1.0000      -0.665907       -18.1203 
  22   1.0000      -0.649648       -17.6778 
  23   1.0000      -0.590783       -16.0760 
  24   1.0000      -0.578469       -15.7409 
  25   1.0000      -0.544522       -14.8172 
  26   1.0000      -0.504326       -13.7234 
  27   1.0000      -0.478412       -13.0183 
  28   1.0000      -0.457276       -12.4431 
  29   1.0000      -0.435354       -11.8466 
  30   1.0000      -0.430047       -11.7022 
  31   1.0000      -0.413866       -11.2619 
  32   1.0000      -0.408633       -11.1195 
  33   1.0000      -0.408473       -11.1151 
  34   1.0000      -0.389055       -10.5867 
  35   1.0000      -0.388977       -10.5846 
  36   1.0000      -0.372398       -10.1335 
  37   1.0000      -0.370607       -10.0847 
  38   1.0000      -0.361667        -9.8415 
  39   1.0000      -0.361608        -9.8398 
  40   1.0000      -0.344123        -9.3641 
  41   1.0000      -0.341922        -9.3042 
  42   1.0000      -0.324233        -8.8228 
  43   1.0000      -0.320055        -8.7091 
  44   1.0000      -0.264842        -7.2067 
  45   1.0000      -0.252130        -6.8608 
  46   1.0000      -0.241830        -6.5805 
  47   1.0000      -0.234432        -6.3792 
  48   1.0000      -0.226502        -6.1634 
  49   1.0000      -0.149993        -4.0815 
  50   0.0000      -0.043455        -1.1825 
  51   0.0000      -0.024440        -0.6650 
  52   0.0000       0.006788         0.1847 
  53   0.0000       0.019965         0.5433 
  54   0.0000       0.022941         0.6242 
  55   0.0000       0.034969         0.9516 
  56   0.0000       0.036047         0.9809 
  57   0.0000       0.038216         1.0399 
  58   0.0000       0.043683         1.1887 
  59   0.0000       0.045000         1.2245 
  60   0.0000       0.056276         1.5314 

                 SPIN DOWN ORBITALS
  NO   OCC          E(Eh)            E(eV) 
   0   1.0000     -19.068625      -518.8837 
   1   1.0000     -19.068565      -518.8820 
   2   1.0000     -10.204714      -277.6844 
   3   1.0000     -10.204683      -277.6835 
   4   1.0000     -10.157879      -276.4099 
   5   1.0000     -10.157417      -276.3974 
   6   1.0000     -10.157170      -276.3907 
   7   1.0000     -10.156726      -276.3786 
   8   1.0000     -10.155073      -276.3336 
   9   1.0000     -10.155064      -276.3333 
  10   1.0000     -10.153734      -276.2972 
  11   1.0000     -10.153188      -276.2823 
  12   1.0000     -10.137972      -275.8682 
  13   1.0000     -10.137958      -275.8679 
  14   1.0000      -1.001792       -27.2601 
  15   1.0000      -0.999348       -27.1936 
  16   1.0000      -0.854847       -23.2616 
  17   1.0000      -0.811332       -22.0775 
  18   1.0000      -0.752172       -20.4676 
  19   1.0000      -0.744845       -20.2683 
  20   1.0000      -0.717517       -19.5246 
  21   1.0000      -0.663785       -18.0625 
  22   1.0000      -0.641723       -17.4622 
  23   1.0000      -0.589823       -16.0499 
  24   1.0000      -0.574415       -15.6306 
  25   1.0000      -0.540870       -14.7178 
  26   1.0000      -0.502519       -13.6742 
  27   1.0000      -0.475583       -12.9413 
  28   1.0000      -0.454675       -12.3723 
  29   1.0000      -0.434473       -11.8226 
  30   1.0000      -0.418388       -11.3849 
  31   1.0000      -0.410356       -11.1664 
  32   1.0000      -0.406726       -11.0676 
  33   1.0000      -0.405760       -11.0413 
  34   1.0000      -0.381682       -10.3861 
  35   1.0000      -0.377312       -10.2672 
  36   1.0000      -0.371093       -10.0979 
  37   1.0000      -0.369624       -10.0580 
  38   1.0000      -0.360485        -9.8093 
  39   1.0000      -0.343729        -9.3533 
  40   1.0000      -0.341061        -9.2807 
  41   1.0000      -0.331426        -9.0186 
  42   1.0000      -0.322814        -8.7842 
  43   1.0000      -0.318672        -8.6715 
  44   1.0000      -0.245392        -6.6775 
  45   1.0000      -0.245138        -6.6705 
  46   1.0000      -0.236484        -6.4351 
  47   1.0000      -0.223740        -6.0883 
  48   1.0000      -0.221233        -6.0201 
  49   0.0000      -0.097333        -2.6486 
  50   0.0000      -0.034515        -0.9392 
  51   0.0000      -0.011690        -0.3181 
  52   0.0000       0.007678         0.2089 
  53   0.0000       0.020499         0.5578 
  54   0.0000       0.023531         0.6403 
  55   0.0000       0.036545         0.9944 
  56   0.0000       0.037447         1.0190 
  57   0.0000       0.038754         1.0545 
  58   0.0000       0.045722         1.2442 
  59   0.0000       0.056846         1.5469 
*Only the first 10 virtual orbitals were printed.

                    ********************************
                    * MULLIKEN POPULATION ANALYSIS *
                    ********************************

--------------------------------------------
MULLIKEN ATOMIC CHARGES AND SPIN POPULATIONS
--------------------------------------------
   0 C :    1.213330    0.134678
   1 C :    0.145991    0.085510
   2 C :    0.136347    0.084890
   3 C :    1.213180    0.135166
   4 C :    1.170844    0.023903
   5 C :    1.167664    0.025112
   6 C :   -1.230021    0.016135
   7 C :   -0.443710    0.025320
   8 C :   -0.430453    0.025044
   9 C :   -1.223375    0.016259
  10 H :   -0.035067   -0.009307
  11 H :    0.629132   -0.000413
  12 H :    0.632850   -0.000361
  13 H :   -0.037153   -0.009453
  14 C :   -1.010507   -0.003727
  15 H :    0.165345    0.006171
  16 H :    0.200915   -0.004951
  17 H :    0.164197    0.006102
  18 C :   -1.012578   -0.003841
  19 H :    0.167322    0.006219
  20 H :    0.199483   -0.004835
  21 H :    0.167326    0.006126
  22 O :   -1.478304    0.219995
  23 O :   -1.472758    0.220257
Sum of atomic charges         :   -1.0000000
Sum of atomic spin populations:    1.0000000

-----------------------------------------------------
MULLIKEN REDUCED ORBITAL CHARGES AND SPIN POPULATIONS
-----------------------------------------------------
CHARGE
  0 C s       :     3.293843  s :     3.293843
      pz      :     0.347699  p :     1.377650
      px      :     0.771179
      py      :     0.258772
      dz2     :    -0.021799  d :     0.167200
      dxz     :     0.037390
      dyz     :     0.085527
      dx2y2   :     0.041670
      dxy     :     0.024414
      f0      :    -0.029032  f :    -0.052023
      f+1     :     0.000885
      f-1     :    -0.006333
      f+2     :    -0.018251
      f-2     :     0.000282
      f+3     :     0.000823
      f-3     :    -0.000398

  1 C s       :     3.293925  s :     3.293925
      pz      :     0.782912  p :     2.385755
      px      :     0.973885
      py      :     0.628958
      dz2     :    -0.012849  d :     0.275045
      dxz     :     0.022366
      dyz     :     0.196478
      dx2y2   :     0.044878
      dxy     :     0.024173
      f0      :    -0.052826  f :    -0.100717
      f+1     :    -0.001197
      f-1     :    -0.005641
      f+2     :    -0.029772
      f-2     :    -0.008818
      f+3     :    -0.001914
      f-3     :    -0.000548

  2 C s       :     3.302424  s :     3.302424
      pz      :     0.868582  p :     2.401861
      px      :     0.974369
      py      :     0.558910
      dz2     :     0.045794  d :     0.260337
      dxz     :     0.048076
      dyz     :     0.192723
      dx2y2   :    -0.025759
      dxy     :    -0.000496
      f0      :    -0.054810  f :    -0.100970
      f+1     :    -0.006619
      f-1     :    -0.013297
      f+2     :    -0.021308
      f-2     :    -0.001311
      f+3     :    -0.003987
      f-3     :     0.000362

  3 C s       :     3.284612  s :     3.284612
      pz      :     0.590977  p :     1.386246
      px      :     0.771103
      py      :     0.024166
      dz2     :     0.010854  d :     0.168623
      dxz     :     0.055009
      dyz     :     0.049033
      dx2y2   :     0.047065
      dxy     :     0.006663
      f0      :    -0.027471  f :    -0.052661
      f+1     :     0.000898
      f-1     :    -0.009571
      f+2     :    -0.016660
      f-2     :    -0.000244
      f+3     :     0.001350
      f-3     :    -0.000962

  4 C s       :     3.350182  s :     3.350182
      pz      :     0.400462  p :     1.723628
      px      :     1.007021
      py      :     0.316146
      dz2     :    -0.205718  d :    -0.107479
      dxz     :    -0.035904
      dyz     :     0.117728
      dx2y2   :     0.008912
      dxy     :     0.007504
      f0      :    -0.066276  f :    -0.137176
      f+1     :    -0.000209
      f-1     :    -0.004827
      f+2     :    -0.055462
      f-2     :    -0.007195
      f+3     :    -0.000814
      f-3     :    -0.002393

  5 C s       :     3.344343  s :     3.344343
      pz      :     0.540886  p :     1.724705
      px      :     1.006968
      py      :     0.176851
      dz2     :     0.010116  d :    -0.099562
      dxz     :    -0.002279
      dyz     :    -0.033749
      dx2y2   :    -0.048256
      dxy     :    -0.025394
      f0      :    -0.081136  f :    -0.137150
      f+1     :    -0.006181
      f-1     :    -0.012733
      f+2     :    -0.031988
      f-2     :    -0.001247
      f+3     :    -0.000810
      f-3     :    -0.003054

  6 C s       :     4.312301  s :     4.312301
      pz      :     0.689387  p :     2.778276
      px      :     0.968426
      py      :     1.120463
      dz2     :     0.036976  d :     0.157850
      dxz     :     0.014718
      dyz     :     0.074439
      dx2y2   :     0.015057
      dxy     :     0.016660
      f0      :    -0.008788  f :    -0.018406
      f+1     :     0.000360
      f-1     :     0.000487
      f+2     :    -0.009975
      f-2     :    -0.000515
      f+3     :     0.000916
      f-3     :    -0.000890

  7 C s       :     3.676587  s :     3.676587
      pz      :     0.832164  p :     2.731372
      px      :     0.968675
      py      :     0.930533
      dz2     :     0.007882  d :     0.036573
      dxz     :     0.039828
      dyz     :     0.004131
      dx2y2   :    -0.025315
      dxy     :     0.010048
      f0      :    -0.003183  f :    -0.000822
      f+1     :     0.000438
      f-1     :     0.000022
      f+2     :    -0.002158
      f-2     :     0.000436
      f+3     :     0.000512
      f-3     :     0.003111

  8 C s       :     3.670891  s :     3.670891
      pz      :     0.801002  p :     2.727283
      px      :     0.968158
      py      :     0.958123
      dz2     :    -0.041436  d :     0.033542
      dxz     :     0.020296
      dyz     :     0.031613
      dx2y2   :    -0.006223
      dxy     :     0.029292
      f0      :    -0.005067  f :    -0.001262
      f+1     :     0.000709
      f-1     :     0.005001
      f+2     :    -0.002384
      f-2     :     0.000436
      f+3     :     0.000237
      f-3     :    -0.000196

  9 C s       :     4.307586  s :     4.307586
      pz      :     1.151670  p :     2.776674
      px      :     0.968607
      py      :     0.656397
      dz2     :    -0.005411  d :     0.157391
      dxz     :     0.013879
      dyz     :     0.105670
      dx2y2   :     0.025803
      dxy     :     0.017451
      f0      :    -0.013395  f :    -0.018276
      f+1     :     0.000569
      f-1     :     0.004403
      f+2     :    -0.007956
      f-2     :     0.000413
      f+3     :    -0.000196
      f-3     :    -0.002114

 10 H s       :     1.005888  s :     1.005888
      pz      :     0.006798  p :     0.021707
      px      :     0.024854
      py      :    -0.009946
      dz2     :     0.004131  d :     0.007472
      dxz     :     0.004476
      dyz     :    -0.001402
      dx2y2   :    -0.000477
      dxy     :     0.000744

 11 H s       :     0.376600  s :     0.376600
      pz      :    -0.009336  p :    -0.013835
      px      :     0.018228
      py      :    -0.022726
      dz2     :     0.000775  d :     0.008102
      dxz     :     0.003841
      dyz     :     0.001653
      dx2y2   :     0.000495
      dxy     :     0.001338

 12 H s       :     0.374541  s :     0.374541
      pz      :     0.007015  p :    -0.015459
      px      :     0.018330
      py      :    -0.040805
      dz2     :     0.001005  d :     0.008068
      dxz     :    -0.000357
      dyz     :     0.001829
      dx2y2   :     0.000066
      dxy     :     0.005526

 13 H s       :     1.006274  s :     1.006274
      pz      :    -0.023077  p :     0.023416
      px      :     0.024773
      py      :     0.021720
      dz2     :    -0.001021  d :     0.007464
      dxz     :     0.004442
      dyz     :     0.003596
      dx2y2   :    -0.000320
      dxy     :     0.000769

 14 C s       :     3.733122  s :     3.733122
      pz      :     1.138468  p :     3.217851
      px      :     1.121315
      py      :     0.958068
      dz2     :     0.004129  d :     0.048421
      dxz     :     0.016521
      dyz     :    -0.001029
      dx2y2   :     0.011485
      dxy     :     0.017313
      f0      :     0.007140  f :     0.011113
      f+1     :     0.000317
      f-1     :     0.003617
      f+2     :    -0.002497
      f-2     :     0.000574
      f+3     :     0.003348
      f-3     :    -0.001386

 15 H s       :     0.775962  s :     0.775962
      pz      :     0.010450  p :     0.051095
      px      :     0.013887
      py      :     0.026758
      dz2     :     0.002024  d :     0.007599
      dxz     :     0.000752
      dyz     :     0.000074
      dx2y2   :     0.002663
      dxy     :     0.002086

 16 H s       :     0.767434  s :     0.767434
      pz      :    -0.004092  p :     0.024191
      px      :     0.017350
      py      :     0.010932
      dz2     :    -0.000845  d :     0.007460
      dxz     :     0.003398
      dyz     :     0.002894
      dx2y2   :     0.001836
      dxy     :     0.000176

 17 H s       :     0.777882  s :     0.777882
      pz      :     0.009262  p :     0.050351
      px      :     0.014922
      py      :     0.026167
      dz2     :     0.002383  d :     0.007570
      dxz     :     0.000284
      dyz     :     0.000232
      dx2y2   :     0.002422
      dxy     :     0.002249

 18 C s       :     3.730979  s :     3.730979
      pz      :     0.990604  p :     3.221559
      px      :     1.120678
      py      :     1.110278
      dz2     :    -0.001200  d :     0.048950
      dxz     :     0.000031
      dyz     :     0.007234
      dx2y2   :     0.009262
      dxy     :     0.033622
      f0      :     0.000949  f :     0.011090
      f+1     :     0.003130
      f-1     :     0.003760
      f+2     :     0.001685
      f-2     :     0.000596
      f+3     :     0.000526
      f-3     :     0.000444

 19 H s       :     0.775184  s :     0.775184
      pz      :     0.015258  p :     0.049934
      px      :     0.013128
      py      :     0.021548
      dz2     :    -0.000366  d :     0.007561
      dxz     :     0.002332
      dyz     :     0.002717
      dx2y2   :     0.002417
      dxy     :     0.000460

 20 H s       :     0.767221  s :     0.767221
      pz      :     0.009709  p :     0.025877
      px      :     0.017125
      py      :    -0.000957
      dz2     :     0.005319  d :     0.007418
      dxz     :     0.001677
      dyz     :    -0.000517
      dx2y2   :    -0.000937
      dxy     :     0.001877

 21 H s       :     0.775280  s :     0.775280
      pz      :     0.013677  p :     0.049831
      px      :     0.014603
      py      :     0.021551
      dz2     :    -0.000402  d :     0.007564
      dxz     :     0.002181
      dyz     :     0.002783
      dx2y2   :     0.002668
      dxy     :     0.000334

 22 O s       :     4.381993  s :     4.381993
      pz      :     1.557138  p :     5.044595
      px      :     1.584889
      py      :     1.902568
      dz2     :     0.007386  d :     0.045817
      dxz     :     0.019793
      dyz     :     0.009819
      dx2y2   :     0.003212
      dxy     :     0.005608
      f0      :     0.001853  f :     0.005899
      f+1     :     0.001203
      f-1     :     0.000942
      f+2     :     0.000800
      f-2     :     0.000779
      f+3     :     0.000129
      f-3     :     0.000193

 23 O s       :     4.378069  s :     4.378069
      pz      :     1.589058  p :     5.043123
      px      :     1.584555
      py      :     1.869510
      dz2     :     0.011110  d :     0.045661
      dxz     :     0.019575
      dyz     :     0.008432
      dx2y2   :     0.000727
      dxy     :     0.005818
      f0      :     0.001949  f :     0.005904
      f+1     :     0.001128
      f-1     :     0.000892
      f+2     :     0.000793
      f-2     :     0.000858
      f+3     :     0.000125
      f-3     :     0.000160


SPIN
  0 C s       :     0.002312  s :     0.002312
      pz      :    -0.009162  p :     0.117605
      px      :     0.136735
      py      :    -0.009967
      dz2     :     0.002962  d :     0.018504
      dxz     :     0.008412
      dyz     :     0.002014
      dx2y2   :    -0.000365
      dxy     :     0.005480
      f0      :    -0.000858  f :    -0.003743
      f+1     :    -0.000061
      f-1     :    -0.000664
      f+2     :    -0.000867
      f-2     :    -0.000981
      f+3     :    -0.000189
      f-3     :    -0.000124

  1 C s       :     0.021843  s :     0.021843
      pz      :    -0.022264  p :     0.064339
      px      :     0.077902
      py      :     0.008701
      dz2     :    -0.002755  d :     0.002596
      dxz     :    -0.001703
      dyz     :     0.001950
      dx2y2   :    -0.001866
      dxy     :     0.006970
      f0      :    -0.000352  f :    -0.003268
      f+1     :    -0.000180
      f-1     :    -0.000527
      f+2     :    -0.000616
      f-2     :    -0.001045
      f+3     :    -0.000456
      f-3     :    -0.000092

  2 C s       :     0.021939  s :     0.021939
      pz      :    -0.015623  p :     0.063747
      px      :     0.077403
      py      :     0.001966
      dz2     :     0.005852  d :     0.002437
      dxz     :     0.006944
      dyz     :    -0.007128
      dx2y2   :    -0.001468
      dxy     :    -0.001763
      f0      :    -0.000604  f :    -0.003232
      f+1     :    -0.001057
      f-1     :    -0.000779
      f+2     :    -0.000102
      f-2     :    -0.000853
      f+3     :     0.000238
      f-3     :    -0.000075

  3 C s       :     0.002591  s :     0.002591
      pz      :    -0.023199  p :     0.118018
      px      :     0.137100
      py      :     0.004116
      dz2     :     0.000516  d :     0.018317
      dxz     :     0.013151
      dyz     :     0.005875
      dx2y2   :    -0.001917
      dxy     :     0.000692
      f0      :    -0.000873  f :    -0.003760
      f+1     :    -0.000578
      f-1     :    -0.000721
      f+2     :    -0.000815
      f-2     :    -0.000443
      f+3     :    -0.000216
      f-3     :    -0.000114

  4 C s       :    -0.005840  s :    -0.005840
      pz      :     0.001224  p :     0.033469
      px      :     0.029209
      py      :     0.003036
      dz2     :     0.006862  d :    -0.002028
      dxz     :    -0.002381
      dyz     :    -0.004341
      dx2y2   :    -0.000570
      dxy     :    -0.001598
      f0      :     0.000155  f :    -0.001698
      f+1     :    -0.000406
      f-1     :    -0.000230
      f+2     :     0.000103
      f-2     :    -0.000661
      f+3     :    -0.000464
      f-3     :    -0.000194

  5 C s       :    -0.005574  s :    -0.005574
      pz      :     0.019234  p :     0.034142
      px      :     0.029358
      py      :    -0.014450
      dz2     :    -0.001930  d :    -0.001728
      dxz     :     0.001271
      dyz     :     0.004204
      dx2y2   :    -0.000087
      dxy     :    -0.005185
      f0      :     0.000452  f :    -0.001728
      f+1     :    -0.000811
      f-1     :    -0.000637
      f+2     :     0.000053
      f-2     :    -0.000500
      f+3     :    -0.000233
      f-3     :    -0.000052

  6 C s       :     0.003117  s :     0.003117
      pz      :     0.002585  p :     0.014489
      px      :     0.012643
      py      :    -0.000738
      dz2     :     0.001138  d :    -0.001719
      dxz     :     0.001597
      dyz     :    -0.001783
      dx2y2   :    -0.001387
      dxy     :    -0.001284
      f0      :    -0.000007  f :     0.000247
      f+1     :    -0.000090
      f-1     :     0.000302
      f+2     :    -0.000034
      f-2     :    -0.000070
      f+3     :     0.000040
      f-3     :     0.000106

  7 C s       :    -0.003075  s :    -0.003075
      pz      :     0.002131  p :     0.023025
      px      :     0.021965
      py      :    -0.001071
      dz2     :     0.000881  d :     0.005768
      dxz     :     0.004857
      dyz     :     0.000326
      dx2y2   :     0.000059
      dxy     :    -0.000355
      f0      :    -0.000211  f :    -0.000398
      f+1     :    -0.000089
      f-1     :     0.000103
      f+2     :    -0.000052
      f-2     :    -0.000079
      f+3     :     0.000001
      f-3     :    -0.000072

  8 C s       :    -0.003184  s :    -0.003184
      pz      :    -0.000836  p :     0.022908
      px      :     0.021880
      py      :     0.001864
      dz2     :     0.000810  d :     0.005711
      dxz     :     0.002113
      dyz     :     0.000401
      dx2y2   :     0.000015
      dxy     :     0.002373
      f0      :    -0.000081  f :    -0.000392
      f+1     :     0.000026
      f-1     :     0.000061
      f+2     :    -0.000205
      f-2     :    -0.000160
      f+3     :    -0.000030
      f-3     :    -0.000003

  9 C s       :     0.003296  s :     0.003296
      pz      :    -0.000520  p :     0.014494
      px      :     0.012735
      py      :     0.002279
      dz2     :    -0.000655  d :    -0.001779
      dxz     :    -0.000655
      dyz     :    -0.001680
      dx2y2   :     0.000294
      dxy     :     0.000918
      f0      :     0.000082  f :     0.000248
      f+1     :    -0.000068
      f-1     :     0.000374
      f+2     :    -0.000041
      f-2     :    -0.000083
      f+3     :     0.000032
      f-3     :    -0.000048

 10 H s       :    -0.007452  s :    -0.007452
      pz      :    -0.001128  p :    -0.001534
      px      :     0.000152
      py      :    -0.000558
      dz2     :     0.000034  d :    -0.000321
      dxz     :    -0.000089
      dyz     :    -0.000101
      dx2y2   :    -0.000071
      dxy     :    -0.000094

 11 H s       :    -0.000760  s :    -0.000760
      pz      :     0.000030  p :     0.000400
      px      :     0.000121
      py      :     0.000249
      dz2     :    -0.000009  d :    -0.000052
      dxz     :     0.000018
      dyz     :    -0.000015
      dx2y2   :    -0.000016
      dxy     :    -0.000030

 12 H s       :    -0.000706  s :    -0.000706
      pz      :    -0.000154  p :     0.000398
      px      :     0.000113
      py      :     0.000439
      dz2     :    -0.000004  d :    -0.000053
      dxz     :    -0.000068
      dyz     :    -0.000054
      dx2y2   :     0.000017
      dxy     :     0.000056

 13 H s       :    -0.007558  s :    -0.007558
      pz      :     0.000678  p :    -0.001569
      px      :     0.000138
      py      :    -0.002384
      dz2     :    -0.000061  d :    -0.000326
      dxz     :    -0.000053
      dyz     :    -0.000023
      dx2y2   :    -0.000056
      dxy     :    -0.000134

 14 C s       :    -0.003309  s :    -0.003309
      pz      :    -0.002049  p :    -0.003799
      px      :    -0.000912
      py      :    -0.000838
      dz2     :     0.000563  d :     0.002852
      dxz     :     0.001668
      dyz     :    -0.001607
      dx2y2   :    -0.000176
      dxy     :     0.002405
      f0      :     0.000027  f :     0.000528
      f+1     :     0.000058
      f-1     :    -0.000168
      f+2     :     0.000102
      f-2     :    -0.000266
      f+3     :     0.000498
      f-3     :     0.000278

 15 H s       :     0.005140  s :     0.005140
      pz      :     0.000151  p :     0.000940
      px      :     0.000329
      py      :     0.000461
      dz2     :     0.000045  d :     0.000091
      dxz     :     0.000013
      dyz     :     0.000013
      dx2y2   :     0.000043
      dxy     :    -0.000023

 16 H s       :    -0.004205  s :    -0.004205
      pz      :    -0.000348  p :    -0.000470
      px      :    -0.000169
      py      :     0.000047
      dz2     :    -0.000034  d :    -0.000275
      dxz     :    -0.000003
      dyz     :    -0.000051
      dx2y2   :    -0.000035
      dxy     :    -0.000153

 17 H s       :     0.005097  s :     0.005097
      pz      :     0.000173  p :     0.000913
      px      :     0.000301
      py      :     0.000440
      dz2     :     0.000047  d :     0.000092
      dxz     :     0.000013
      dyz     :     0.000017
      dx2y2   :     0.000036
      dxy     :    -0.000021

 18 C s       :    -0.003333  s :    -0.003333
      pz      :    -0.003161  p :    -0.003856
      px      :    -0.000928
      py      :     0.000233
      dz2     :    -0.001508  d :     0.002814
      dxz     :    -0.000131
      dyz     :     0.001014
      dx2y2   :    -0.000731
      dxy     :     0.004169
      f0      :     0.000128  f :     0.000535
      f+1     :    -0.000175
      f-1     :     0.000013
      f+2     :    -0.000047
      f-2     :     0.000378
      f+3     :     0.000091
      f-3     :     0.000147

 19 H s       :     0.005202  s :     0.005202
      pz      :     0.000393  p :     0.000926
      px      :     0.000317
      py      :     0.000216
      dz2     :     0.000016  d :     0.000092
      dxz     :    -0.000013
      dyz     :     0.000054
      dx2y2   :     0.000031
      dxy     :     0.000004

 20 H s       :    -0.004098  s :    -0.004098
      pz      :    -0.000176  p :    -0.000462
      px      :    -0.000172
      py      :    -0.000114
      dz2     :     0.000069  d :    -0.000275
      dxz     :    -0.000056
      dyz     :    -0.000085
      dx2y2   :    -0.000101
      dxy     :    -0.000101

 21 H s       :     0.005116  s :     0.005116
      pz      :     0.000406  p :     0.000919
      px      :     0.000301
      py      :     0.000212
      dz2     :     0.000015  d :     0.000091
      dxz     :    -0.000011
      dyz     :     0.000054
      dx2y2   :     0.000031
      dxy     :     0.000002

 22 O s       :     0.008509  s :     0.008509
      pz      :     0.008892  p :     0.206742
      px      :     0.192101
      py      :     0.005750
      dz2     :     0.000302  d :     0.004818
      dxz     :     0.003623
      dyz     :     0.000249
      dx2y2   :     0.000069
      dxy     :     0.000574
      f0      :    -0.000016  f :    -0.000075
      f+1     :    -0.000024
      f-1     :    -0.000008
[...]
      f+3     :     0.003957
      f-3     :     0.000044

 15 H s       :     0.002615  s :     0.002615
      pz      :    -0.000034  p :     0.000084
      px      :     0.000009
      py      :     0.000109
      dz2     :    -0.000022  d :    -0.000092
      dxz     :    -0.000021
      dyz     :     0.000090
      dx2y2   :    -0.000055
      dxy     :    -0.000084

 16 H s       :    -0.000083  s :    -0.000083
      pz      :    -0.000381  p :    -0.000701
      px      :    -0.000059
      py      :    -0.000260
      dz2     :    -0.000050  d :    -0.000439
      dxz     :    -0.000158
      dyz     :    -0.000316
      dx2y2   :    -0.000038
      dxy     :     0.000122

 17 H s       :     0.002585  s :     0.002585
      pz      :    -0.000031  p :     0.000075
      px      :     0.000020
      py      :     0.000086
      dz2     :    -0.000024  d :    -0.000092
      dxz     :    -0.000024
      dyz     :     0.000081
      dx2y2   :    -0.000051
      dxy     :    -0.000072

 18 C s       :    -0.000325  s :    -0.000325
      pz      :    -0.001111  p :    -0.002291
      px      :    -0.000351
      py      :    -0.000829
      dz2     :    -0.000062  d :     0.010680
      dxz     :     0.002945
      dyz     :     0.000247
      dx2y2   :    -0.000098
      dxy     :     0.007649
      f0      :    -0.000026  f :     0.003966
      f+1     :     0.000203
      f-1     :     0.000128
      f+2     :    -0.000127
      f-2     :     0.003299
      f+3     :     0.000465
      f-3     :     0.000025

 19 H s       :     0.002620  s :     0.002620
      pz      :     0.000079  p :     0.000084
      px      :     0.000010
      py      :    -0.000005
      dz2     :     0.000046  d :    -0.000092
      dxz     :    -0.000082
      dyz     :     0.000018
      dx2y2   :    -0.000051
      dxy     :    -0.000023

 20 H s       :    -0.000082  s :    -0.000082
      pz      :    -0.000123  p :    -0.000702
      px      :    -0.000059
      py      :    -0.000520
      dz2     :    -0.000172  d :    -0.000441
      dxz     :     0.000153
      dyz     :    -0.000053
      dx2y2   :    -0.000181
      dxy     :    -0.000188

 21 H s       :     0.002596  s :     0.002596
      pz      :     0.000055  p :     0.000078
      px      :     0.000020
      py      :     0.000002
      dz2     :     0.000040  d :    -0.000091
      dxz     :    -0.000071
      dyz     :     0.000018
      dx2y2   :    -0.000052
      dxy     :    -0.000026

 22 O s       :     0.003660  s :     0.003660
      pz      :     0.002190  p :     0.156589
      px      :     0.150837
      py      :     0.003561
      dz2     :     0.000118  d :     0.024370
      dxz     :     0.020270
      dyz     :     0.000151
      dx2y2   :     0.000092
      dxy     :     0.003738
      f0      :    -0.000060  f :     0.004835
      f+1     :     0.002989
      f-1     :     0.000072
      f+2     :    -0.000029
      f-2     :     0.001738
      f+3     :     0.000102
      f-3     :     0.000022

 23 O s       :     0.003664  s :     0.003664
      pz      :     0.002369  p :     0.156777
      px      :     0.151015
      py      :     0.003393
      dz2     :     0.000182  d :     0.024342
      dxz     :     0.018044
      dyz     :     0.000122
      dx2y2   :     0.000053
      dxy     :     0.005940
      f0      :    -0.000043  f :     0.004826
      f+1     :     0.002388
      f-1     :     0.000074
      f+2     :    -0.000046
      f-2     :     0.002217
      f+3     :     0.000217
      f-3     :     0.000020



                      *****************************
                      * MAYER POPULATION ANALYSIS *
                      *****************************

  NA   - Mulliken gross atomic population
  ZA   - Total nuclear charge
  QA   - Mulliken gross atomic charge
  VA   - Mayer's total valence
  BVA  - Mayer's bonded valence
  FA   - Mayer's free valence

  ATOM       NA         ZA         QA         VA         BVA        FA
  0 C      4.7867     6.0000     1.2133     2.3656     2.3327     0.0330
  1 C      5.8540     6.0000     0.1460     2.9846     2.9712     0.0134
  2 C      5.8637     6.0000     0.1363     3.0122     2.9988     0.0133
  3 C      4.7868     6.0000     1.2132     2.3696     2.3366     0.0331
  4 C      4.8292     6.0000     1.1708     0.5798     0.5772     0.0026
  5 C      4.8323     6.0000     1.1677     0.5812     0.5786     0.0026
  6 C      7.2300     6.0000    -1.2300     1.7284     1.7283     0.0001
  7 C      6.4437     6.0000    -0.4437     2.3011     2.3001     0.0010
  8 C      6.4305     6.0000    -0.4305     2.2856     2.2845     0.0010
  9 C      7.2234     6.0000    -1.2234     1.7298     1.7297     0.0001
 10 H      1.0351     1.0000    -0.0351     1.2643     1.2642     0.0001
 11 H      0.3709     1.0000     0.6291     0.3495     0.3495    -0.0000
 12 H      0.3671     1.0000     0.6329     0.3361     0.3361    -0.0000
 13 H      1.0372     1.0000    -0.0372     1.2686     1.2685     0.0001
 14 C      7.0105     6.0000    -1.0105     3.4571     3.4570     0.0001
 15 H      0.8347     1.0000     0.1653     1.0526     1.0525     0.0000
 16 H      0.7991     1.0000     0.2009     0.9724     0.9724     0.0000
 17 H      0.8358     1.0000     0.1642     1.0519     1.0519     0.0000
 18 C      7.0126     6.0000    -1.0126     3.4645     3.4644     0.0001
 19 H      0.8327     1.0000     0.1673     1.0485     1.0484     0.0000
 20 H      0.8005     1.0000     0.1995     0.9797     0.9797     0.0000
 21 H      0.8327     1.0000     0.1673     1.0490     1.0490     0.0000
 22 O      9.4783     8.0000    -1.4783     0.8420     0.8013     0.0407
 23 O      9.4728     8.0000    -1.4728     0.8478     0.8070     0.0408

  Mayer bond orders larger than 0.100000
B(  0-C ,  1-C ) :   1.3048 B(  0-C ,  2-C ) :  -0.5423 B(  0-C ,  3-C ) :   1.0190 
B(  0-C ,  4-C ) :  -0.4857 B(  0-C ,  5-C ) :   0.7461 B(  0-C ,  6-C ) :   0.6219 
B(  0-C ,  9-C ) :  -0.1317 B(  0-C , 20-H ) :  -0.1027 B(  0-C , 23-O ) :  -0.3162 
B(  1-C ,  2-C ) :   1.0577 B(  1-C ,  3-C ) :  -0.5384 B(  1-C ,  4-C ) :  -0.1457 
B(  1-C ,  5-C ) :   0.6925 B(  1-C , 18-C ) :   0.1761 B(  1-C , 19-H ) :  -0.1753 
B(  1-C , 21-H ) :  -0.1764 B(  1-C , 22-O ) :   0.1005 B(  1-C , 23-O ) :   0.3435 
B(  2-C ,  3-C ) :   1.3134 B(  2-C ,  4-C ) :   0.6831 B(  2-C ,  5-C ) :  -0.1299 
B(  2-C , 14-C ) :   0.1668 B(  2-C , 15-H ) :  -0.1778 B(  2-C , 17-H ) :  -0.1820 
B(  2-C , 22-O ) :   0.3520 B(  2-C , 23-O ) :   0.1036 B(  3-C ,  4-C ) :   0.7366 
B(  3-C ,  5-C ) :  -0.4647 B(  3-C ,  6-C ) :  -0.1493 B(  3-C ,  9-C ) :   0.6272 
B(  3-C , 16-H ) :  -0.1012 B(  3-C , 22-O ) :  -0.3201 B(  4-C ,  5-C ) :   0.7723 
B(  4-C ,  6-C ) :  -0.6605 B(  4-C ,  7-C ) :  -0.2069 B(  4-C ,  9-C ) :  -0.4358 
B(  4-C , 10-H ) :  -0.1672 B(  4-C , 22-O ) :   0.3396 B(  5-C ,  6-C ) :  -0.4562 
B(  5-C ,  8-C ) :  -0.2009 B(  5-C ,  9-C ) :  -0.6838 B(  5-C , 13-H ) :  -0.1696 
B(  5-C , 23-O ) :   0.3497 B(  6-C ,  7-C ) :   1.1529 B(  6-C , 12-H ) :  -0.1411 
B(  6-C , 13-H ) :   1.2682 B(  7-C ,  8-C ) :   0.9905 B(  7-C , 12-H ) :   0.3002 
B(  8-C ,  9-C ) :   1.1316 B(  8-C , 11-H ) :   0.3112 B(  9-C , 10-H ) :   1.2613 
B(  9-C , 11-H ) :  -0.1433 B( 10-H , 22-O ) :   0.2138 B( 13-H , 23-O ) :   0.2143 
B( 14-C , 15-H ) :   1.1193 B( 14-C , 16-H ) :   0.9110 B( 14-C , 17-H ) :   1.1218 
B( 18-C , 19-H ) :   1.1145 B( 18-C , 20-H ) :   0.9189 B( 18-C , 21-H ) :   1.1146 


-------
TIMINGS
-------

Total SCF time: 0 days 0 hours 8 min 5 sec 

Total time                  ....     485.694 sec
Sum of individual times     ....     482.920 sec  ( 99.4%)

SCF preparation             ....       2.050 sec  (  0.4%)
Fock matrix formation       ....     397.989 sec  ( 81.9%)
  Startup                   ....       9.975 sec  (  2.5% of F)
  Split-RI-J                ....      25.620 sec  (  6.4% of F)
  Chain of spheres X        ....     194.220 sec  ( 48.8% of F)
  XC integration            ....     143.451 sec  ( 36.0% of F)
    XC Preparation          ....       0.000 sec  (  0.0% of XC)
    Basis function eval.    ....       5.067 sec  (  3.5% of XC)
    Density eval.           ....      54.842 sec  ( 38.2% of XC)
    XC-Functional eval.     ....       0.715 sec  (  0.5% of XC)
    XC-Potential eval.      ....      66.832 sec  ( 46.6% of XC)
  CPCM terms                ....      10.032 sec  (  2.5% of F)
Diagonalization             ....       0.000 sec  (  0.0%)
Density matrix formation    ....      18.744 sec  (  3.9%)
Total Energy calculation    ....       9.277 sec  (  1.9%)
Population analysis         ....       2.070 sec  (  0.4%)
Orbital Transformation      ....       5.272 sec  (  1.1%)
Orbital Orthonormalization  ....       0.000 sec  (  0.0%)
DIIS solution               ....      35.943 sec  (  7.4%)
SOSCF solution              ....      11.577 sec  (  2.4%)
Finished LeanSCF after 486.7 sec

Maximum memory used throughout the entire LEANSCF-calculation: 165.1 MB


-------------------------------------------------------------------------------
                          DFT DISPERSION CORRECTION                            
                                                                               
                              DFTD3 V3.1  Rev 1                                
                          USING Becke-Johnson damping                          
-------------------------------------------------------------------------------
The R2SCANh functional is recognized
Active option DFTDOPT                   ...         4   

molecular C6(AA) [au] = 6928.734298 


            DFT-D V3
 parameters
 s6 scaling factor         :     1.0000 
 a1 scaling factor         :     0.4709 
 s8 scaling factor         :     1.1236 
 a2 scaling factor         :     5.9157 
 ad hoc parameters k1-k3   :    16.0000     1.3333    -4.0000 

 Edisp/kcal,au: -6.112250565154  -0.009740490249 
 E6   /kcal   :  -4.373607653 
 E8   /kcal   :  -1.738642912 
 % E8         :  28.445216595 

-------------------------   ----------------
Dispersion correction           -0.009740490
-------------------------   ----------------


-------------------------   --------------------
FINAL SINGLE POINT ENERGY      -613.762686021637
-------------------------   --------------------



           ************************************************************
           *        Program running with 15 parallel MPI-processes    *
           *              working on a common directory               *
           ************************************************************

------------------------------------------------------------------------------
                              ORCA PROPERTY CALCULATIONS
------------------------------------------------------------------------------

GBWName                                 ... cs_rporg_w09_red_solv_04.gbw
Number of atoms                         ...     24
Number of basis functions               ...    958
Max core memory                         ...   3500 MB

Electric properties:
Dipole moment                           ... YES
Quadrupole moment                       ...  NO
Static polarizability (Dipole/Dipole)   ...  NO
Static polarizability (Dipole/Quad.)    ...  NO
Static polarizability (Quad./Quad.)     ...  NO
Static polarizability (Velocity)        ...  NO

Atomic electric properties:
Dipole moment                           ...  NO
Quadrupole moment                       ...  NO
Static polarizability                   ...  NO

Choice of electric origin               ... Center of mass
Position of electric origin             ...    -0.000570     0.410175     2.757249

General magnetic properties:
Magnetizability                         ...  NO

EPR properties:
g-Tensor (aka g-matrix)                 ...  NO
Zero-Field splitting spin-orbit         ...  NO
Zero-field splitting spin-spin          ...  NO
Hyperfine couplings                     ...  NO (   0 nuclei)
Quadrupole couplings                    ...  NO (   0 nuclei)
Contact density                         ...  NO (   0 nuclei)

NMR properties:
Chemical shifts                         ...  NO (   0 nuclei)
Spin-rotation constants                 ...  NO (   0 nuclei)
Spin-spin couplings                     ...  NO (   0 nuclei,    0 pairs)

Choice of magnetic origin               ... GIAO
Position of magnetic origin             ...     0.000000     0.000000     0.000000

Properties with geometric perturbations:
SCF Hessian                             ...  NO
IR spectrum                             ...  NO
VCD spectrum                            ...  NO
X-ray spectroscopy properties:
SCF XES/XAS/RIXS spectra                ...  NO


-------------
DIPOLE MOMENT
-------------

Method             : SCF
Type of density    : Electron Density
Multiplicity       :   2
Irrep              :   0
Energy             :  -613.7529455313883773 Eh
Relativity type    : 
Basis              : AO
                                X                 Y                 Z
Electronic contribution:     -0.006352889      -6.771173380       3.375251635
Nuclear contribution   :      0.007077470       6.336292283      -3.161748014
                        -----------------------------------------
Total Dipole Moment    :      0.000724581      -0.434881098       0.213503621
                        -----------------------------------------
Magnitude (a.u.)       :      0.484464540
Magnitude (Debye)      :      1.231410998



--------------------
Rotational spectrum 
--------------------
 
Rotational constants in cm-1:             0.036449             0.021992             0.013787 
Rotational constants in MHz :          1092.703549           659.301071           413.332938 

Dipole components along the rotational axes: 
x,y,z [a.u.] :    -0.484454    -0.003103    -0.000823 
x,y,z [Debye]:    -1.231384    -0.007888    -0.002091 

 

Dipole moment calculation done in   0.3 sec 

Maximum memory used throughout the entire PROP-calculation: 88.5 MB

--------------------------------
SUGGESTED CITATIONS FOR THIS RUN
--------------------------------

Below you find a list of papers that are relevant to this ORCA run
We neither can nor want to force you to cite these papers, but we appreciate if you do
You receive ORCA, which is the product of decades of hard work by many enthusiastic individuals, for free
The only thing we kindly ask in return is that you cite our papers,
We deeply appreciate it, if you show your appreciation for ORCA by not just citing the generic ORCA reference.

Please note that relegating all ORCA citations to the supporting information does *not* help us.
SI sections are not indexed - citations you put there will not count into any citation statistics
But we need these citations in order to attract the funding resources that allow us to do what we are doing

Therefore, if you are a happy ORCA user, please consider citing a few of the papers listed below in the main body of your paper

In addition to the list printed below, the program has created the file cs_rporg_w09_red_solv_04.bibtex that contains the list in bibtex format
You can import this file easily into all common literature databanks and citation aid programs


List of essential papers. We consider these as the minimum necessary citations

  1. Neese,F.
     Software update: the ORCA program system, version 5.0
     WIRES Comput. Molec. Sci., 2022 12(1)e1606
     doi.org/10.1002/wcms.1606

List of papers to cite with high priority. The work reported in these papers was absolutely
necessary for this run to complete.
Our perspective: the developers of density functionals and basis sets usually get cited in chemistry papers
Good! But without the algorithms to do something with them, the functionals or basis sets would not do anything.
Hence, in our opinion, the algorithm design and method developments papers are equally worthy of getting cited

  1. Neese,F.
     An improvement of the resolution of the identity approximation for the formation of the Coulomb matrix
     J. Comp. Chem., 2003 24(14)1740-1747
     doi.org/10.1002/jcc.10318
  2. Neese,F.; Wennmohs,F.; Hansen,A.; Becker,U.
     Efficient, approximate and parallel Hartree-Fock and hybrid DFT calculations. A 'chain-of-spheres' algorithm for the Hartree-Fock exchange
     Chem. Phys., 2009 356(1-3)98-109
     doi.org/10.1016/j.chemphys.2008.10.036
  3. Garcia-Rates,M.; Neese,F.
     Effect of the Solute Cavity on the Solvation Energy and its Derivatives within the Framework of the Gaussian Charge Scheme
     J. Comput. Chem., 2020 41 922-939
     doi.org/10.1002/jcc.26139
  4. Helmich-Paris,B.; de Souza,B.; Neese,F.; Izsák,R.
     An improved chain of spheres for exchange algorithm
     J. Chem. Phys., 2021 155 104109
     doi.org/doi: 10.1063/5.0058766.
  5. Neese,F.
     The SHARK Integral Generation and Digestion System
     J. Comp. Chem., 2022  1-16
     doi.org/10.1002/jcc.26942
  6. Lehtola,S.; Steigemann,C.; Oliveira,M.; Marques,M.
     Recent developments in Libxc - A comprehensive library of functionals for density functional theory
     Software X, 2018 7 
     doi.org/10.1016/j.softx.2017.11.002
  7. Grimme,S.; Antony,J.; Ehrlich,S.; Krieg,H.
     A consistent and accurate ab initio parametrization of density functional dispersion correction (DFT-D) for the 94 elements H-Pu
     J. Chem. Phys., 2010 132 154104-XXXX
     doi.org/10.1063/1.3382344
  8. Grimme,S.; Ehrlich,S.; Goerigk,L.
     Effect of the damping function in dispersion corrected density functional theory
     J. Comput. Chem., 2011 32(7)1456-1465
     doi.org/10.1002/jcc.21759
  9. Bursch,M.; Neugebauer,H.; Ehlert,S.; Grimme,S.
     Dispersion corrected r2SCAN based global hybrid functionals: r2SCANh, r2SCAN0, and r2SCAN50
     J. Phys. Chem., 2022 156(13)134105
     doi.org/10.1063/5.0086040

List of suggested additional citations. These are papers that are important in the 'surrounding' of 
of this run, or papers that preceded the highly important papers. If you like your results we are grateful for a citation.

  1. Izsak,R.; Neese,F.
     An overlap fitted chain of spheres exchange method
     J. Chem. Phys., 2011 135 144105
     doi.org/10.1063/1.3646921
  2. Izsak,R.; Hansen,A.; Neese,F.
     The resolution of identity and chain of spheres approximations for the LPNO-CCSD singles Fock term
     Molec. Phys., 2012 110 2413-2417
     doi.org/10.1080/00268976.2012.687466
  3. Neese,F.
     The ORCA program system
     WIRES Comput. Molec. Sci., 2012 2(1)73-78
     doi.org/10.1002/wcms.81
  4. Izsak,R.; Neese,F.; Klopper,W.
     Robust fitting techniques in the chain of spheres approximation to the Fock exchange: The role of the complementary space
     J. Chem. Phys., 2013 139 
     doi.org/10.1063/1.4819264
  5. Neese,F.
     Software update: the ORCA program system, version 4.0
     WIRES Comput. Molec. Sci., 2018 8(1)1-6
     doi.org/10.1002/wcms.1327
  6. Neese,F.; Wennmohs,F.; Becker,U.; Riplinger,C.
     The ORCA quantum chemistry program package
     J. Chem. Phys., 2020 152 Art. No. L224108
     doi.org/10.1063/5.0004608
  7. Wittmann,L.; Neugebauer,H.; Grimme,S.; Bursch,M.
     Dispersion-corrected r2SCAN based double-hybrid functionals
     J. Chem. Phys., 2023 159(22)224103
     doi.org/10.1063/5.0174988

List of optional additional citations

  1. Neese,F.
     Approximate second-order SCF convergence for spin unrestricted wavefunctions
     Chem. Phys. Lett., 2000 325(1-3)93-98
     doi.org/10.1016/s0009-2614(00)00662-x

Timings for individual modules:

Sum of individual times          ...      508.843 sec (=   8.481 min)
Startup calculation              ...       11.799 sec (=   0.197 min)   2.3 %
SCF iterations                   ...      494.488 sec (=   8.241 min)  97.2 %
Property calculations            ...        2.557 sec (=   0.043 min)   0.5 %
                             ****ORCA TERMINATED NORMALLY****
TOTAL RUN TIME: 0 days 0 hours 8 minutes 32 seconds 663 msec
