
                                 *****************
                                 * O   R   C   A *
                                 *****************

                                            #,                                       
                                            ###                                      
                                            ####                                     
                                            #####                                    
                                            ######                                   
                                           ########,                                 
                                     ,,################,,,,,                         
                               ,,#################################,,                 
                          ,,##########################################,,             
                       ,#########################################, ''#####,          
                    ,#############################################,,   '####,        
                  ,##################################################,,,,####,       
                ,###########''''           ''''###############################       
              ,#####''   ,,,,##########,,,,          '''####'''          '####       
            ,##' ,,,,###########################,,,                        '##       
           ' ,,###''''                  '''############,,,                           
         ,,##''                                '''############,,,,        ,,,,,,###''
      ,#''                                            '''#######################'''  
     '                                                          ''''####''''         
             ,#######,   #######,   ,#######,      ##                                
            ,#'     '#,  ##    ##  ,#'     '#,    #''#        ,####,   ,####,        
            ##       ##  ##   ,#'  ##            #'  '#       #'       #'  '#        
            ##       ##  #######   ##           ,######,      #####,   #    #        
            '#,     ,#'  ##    ##  '#,     ,#' ,#      #,     #,   #   #,  ,#        
             '#######'   ##     ##  '#######'  #'      '#     '####' # '####'        



                #########################################################
                #                        -***-                          #
                #          Department of theory and spectroscopy        #
                #                                                       #
                #                      Frank Neese                      #
                #                                                       #
                #     Directorship, Architecture, Infrastructure        #
                #                    SHARK, DRIVERS                     #
                #        Core code/Algorithms in most modules           #
                #                                                       #
                #        Max Planck Institute fuer Kohlenforschung      #
                #                Kaiser Wilhelm Platz 1                 #
                #                 D-45470 Muelheim/Ruhr                 #
                #                      Germany                          #
                #                                                       #
                #                  All rights reserved                  #
                #                        -***-                          #
                #########################################################


                         Program Version 6.0.0  -   RELEASE  -


 With contributions from (in alphabetic order):
   Daniel Aravena         : Magnetic Suceptibility
   Michael Atanasov       : Ab Initio Ligand Field Theory (pilot matlab implementation)
   Alexander A. Auer      : GIAO ZORA, VPT2 properties, NMR spectrum
   Ute Becker             : All parallelization in ORCA, NUMFREQ, NUMCALC
   Giovanni Bistoni       : ED, misc. LED, open-shell LED, HFLD
   Martin Brehm           : Molecular dynamics
   Dmytro Bykov           : pre 5.0 version of the SCF Hessian
   Marcos Casanova-Páez   : Triplet and SCS-CIS(D). UHF-(DLPNO)-IP/EA/STEOM-CCSD. UHF-CVS-IP/STEOM-CCSD
   Vijay G. Chilkuri      : MRCI spin determinant printing, contributions to CSF-ICE
   Pauline Colinet        : FMM embedding
   Dipayan Datta          : RHF DLPNO-CCSD density
   Achintya Kumar Dutta   : EOM-CC, STEOM-CC
   Nicolas Foglia         : Exact transition moments, OPA infrastructure, MCD improvements
   Dmitry Ganyushin       : Spin-Orbit,Spin-Spin,Magnetic field MRCI
   Miquel Garcia          : C-PCM and meta-GGA Hessian, CCSD/C-PCM, Gaussian charge scheme
   Tiago L. C. Gouveia    : GS-ROHF, GS-ROCIS
   Yang Guo               : DLPNO-NEVPT2, F12-NEVPT2, CIM, IAO-localization
   Andreas Hansen         : Spin unrestricted coupled pair/coupled cluster methods
   Ingolf Harden          : AUTO-CI MPn and infrastructure 
   Benjamin Helmich-Paris : MC-RPA, TRAH-(SCF,CASSCF), AVAS, COSX integrals, SCF dyn. polar.
   Lee Huntington         : MR-EOM, pCC
   Robert Izsak           : Overlap fitted RIJCOSX, COSX-SCS-MP3, EOM
   Riya Kayal             : Wick's Theorem for AUTO-CI, AUTO-CI UHF-CCSDT
   Emily Kempfer          : AUTO-CI, RHF CISDT and CCSDT
   Christian Kollmar      : KDIIS, OOCD, Brueckner-CCSD(T), CCSD density, CASPT2, CASPT2-K, improved NEVPT2
   Axel Koslowski         : Symmetry handling
   Simone Kossmann        : Meta GGA functionals, TD-DFT gradient, OOMP2, (MP2 Hessian; deprecated post 5.0)
   Lucas Lang             : DCDCAS
   Marvin Lechner         : AUTO-CI (C++ implementation), FIC-MRCC
   Spencer Leger          : CASSCF response
   Dagmar Lenk            : GEPOL surface, SMD, ORCA-2-JSON
   Dimitrios Liakos       : Extrapolation schemes; Compound Job, initial MDCI parallelization
   Dimitrios Manganas     : Further ROCIS development; embedding schemes. LFT, Crystal Embedding
   Dimitrios Pantazis     : SARC Basis sets
   Anastasios Papadopoulos: AUTO-CI, single reference methods and gradients
   Taras Petrenko         : pre 6.0 DFT Hessian and TD-DFT gradient, (ASA, deprecated), ECA, 1-Electron XAS/XES, NRVS
   Peter Pinski           : DLPNO-MP2, DLPNO-MP2 Gradient
   Christoph Reimann      : Effective Core Potentials
   Marius Retegan         : Local ZFS, SOC
   Christoph Riplinger    : Optimizer, TS searches, QM/MM, DLPNO-CCSD(T), (RO)-DLPNO pert. Triples
   Michael Roemelt        : Original ROCIS implementation
   Masaaki Saitow         : Open-shell DLPNO-CCSD energy and density
   Barbara Sandhoefer     : DKH picture change effects
   Kantharuban Sivalingam : CASSCF convergence/infrastructure, NEVPT2 and variants, FIC-MRCI
   Bernardo de Souza      : ESD, SOC TD-DFT
   Georgi Stoychev        : AutoAux, RI-MP2 NMR, DLPNO-MP2 response, X2C
   Van Anh Tran           : RI-MP2 g-tensors
   Willem Van den Heuvel  : Paramagnetic NMR
   Zikuan Wang            : NOTCH, Electric field optimization 
   Frank Wennmohs         : Technical directorship and infrastructure
   Hang Xu                : AUTO-CI-Response properties 


 We gratefully acknowledge several colleagues who have allowed us to
 interface, adapt or use parts of their codes:
   Stefan Grimme, W. Hujo, H. Kruse, P. Pracht,  : VdW corrections, initial TS optimization,
                  C. Bannwarth, S. Ehlert,         DFT functionals, gCP, sTDA/sTD-DF
                  L. Wittmann, M. Mueller
   Ed Valeev, F. Pavosevic, A. Kumar             : LibInt (2-el integral package), F12 methods
   Garnet Chan, S. Sharma, J. Yang, R. Olivares  : DMRG
   Ulf Ekstrom                                   : XCFun DFT Library
   Mihaly Kallay                                 : mrcc  (arbitrary order and MRCC methods)
   Frank Weinhold                                : gennbo (NPA and NBO analysis)
   Simon Mueller                                 : openCOSMO-RS
   Christopher J. Cramer and Donald G. Truhlar   : smd solvation model
   Lars Goerigk                                  : TD-DFT with DH, B97 family of functionals
   V. Asgeirsson, H. Jonsson                     : NEB implementation
   FAccTs GmbH                                   : IRC, NEB, NEB-TS, DLPNO-Multilevel, CI-OPT
                                                   MM, QMMM, 2- and 3-layer-ONIOM, Crystal-QMMM,
                                                   LR-CPCM, SF, NACMEs, symmetry and pop. for TD-DFT,
                                                   nearIR, NL-DFT gradient (VV10), updates on ESD,
                                                   ML-optimized integration grids, MBIS, APM,
                                                   GOAT, DOCKER, SOLVATOR, interface openCOSMO-RS
   S Lehtola, MJT Oliveira, MAL Marques          : LibXC Library
   Liviu Ungur et al                             : ANISO software


 Your calculation uses the libint2 library for the computation of 2-el integrals
 For citations please refer to: http://libint.valeyev.net

 Your ORCA version has been built with support for libXC version: 6.2.2
 For citations please refer to: https://libxc.gitlab.io

 This ORCA versions uses:
   CBLAS   interface :  Fast vector & matrix operations
   LAPACKE interface :  Fast linear algebra routines
   SCALAPACK package :  Parallel linear algebra routines
   Shared memory     :  Shared parallel matrices
   BLAS/LAPACK       :  OpenBLAS 0.3.27  USE64BITINT DYNAMIC_ARCH NO_AFFINITY SkylakeX SINGLE_THREADED
        Core in use  :  SkylakeX
   Copyright (c) 2011-2014, The OpenBLAS Project


NOTE: MaxCore=3000 MB was set to SCF,MP2,MDCI,CIPSI,MRCI and CIS
      => If you want to overwrite this, your respective input block should be placed after the MaxCore statement
Your calculation utilizes the atom-pairwise dispersion correction
with the Becke-Johnson damping scheme (D3BJ)


Warning: RI is on but no J-basis has been assigned. Assigning Def2/J (nothing to worry about!)
================================================================================

----- Orbital basis set information -----
Your calculation utilizes the basis: def2-SV(P)
   F. Weigend and R. Ahlrichs, Phys. Chem. Chem. Phys. 7, 3297 (2005).

----- AuxJ basis set information -----
Your calculation utilizes the auxiliary basis: def2/J
   F. Weigend, Phys. Chem. Chem. Phys. 8, 1057 (2006).

================================================================================
                                        WARNINGS
                       Please study these warnings very carefully!
================================================================================


WARNING: your system is open-shell and RHF/RKS was chosen
  ===> : WILL SWITCH to UHF/UKS


WARNING: Geometry Optimization
  ===> : Switching off AutoStart
         For restart on a previous wavefunction, please use MOREAD

================================================================================
                                       INPUT FILE
================================================================================
NAME = cs_rporg_015_ox_opt_01.inp
|  1> !PBE0 def2-SV(p) Opt Freq d3 TightSCF SlowConv RIJCOSX defgrid2
|  2>  
|  3> %pal
|  4> nprocs 4
|  5> end
|  6>  
|  7> %scf
|  8> MaxIter 1500
|  9> end
| 10>  
| 11> %maxcore 3000
| 12>  
| 13> 
| 14>  
| 15> * xyz 1 2
| 16> C     2.4075733   -0.8986009    0.6096982 
| 17> C     1.2460840   -0.4385363   -0.0362764 
| 18> C     1.2955827    0.7854846   -0.7368399 
| 19> C     2.4566385    1.5256573   -0.7728106 
| 20> C     3.5954887    1.0631331   -0.1190016 
| 21> C     3.5604870   -0.1460701    0.5775222 
| 22> H     4.4399977   -0.4858904    1.1021962 
| 23> H     4.5108528    1.6327448   -0.1621646 
| 24> H     2.4909801    2.4515101   -1.3251413 
| 25> H     0.4269640    1.1116772   -1.2895314 
| 26> C    -0.0000260   -1.1928574   -0.0000180 
| 27> C    -0.0000280   -2.5547578   -0.0000520 
| 28> H    -0.9194831   -3.1168483   -0.0073010 
| 29> H     0.9194348   -3.1168530    0.0071957 
| 30> C    -1.2461133   -0.4385191    0.0362617 
| 31> C    -2.4076103   -0.8985585   -0.6097241 
| 32> C    -3.5605072   -0.1460085   -0.5775422 
| 33> C    -3.5954871    1.0631955    0.1189925 
| 34> C    -2.4566315    1.5256852    0.7728200 
| 35> C    -1.2955889    0.7855029    0.7368381 
| 36> H    -0.4269758    1.1116608    1.2895570 
| 37> H    -2.4909638    2.4515168    1.3251755 
| 38> H    -4.5108411    1.6328238    0.1621570 
| 39> H    -4.4400139   -0.4857903   -1.1022410 
| 40> H    -2.3784505   -1.8120173   -1.1821558 
| 41> H     2.3784043   -1.8120782    1.1821099
| 42> *
| 43> 
| 44>                          ****END OF INPUT****
================================================================================

                       *****************************
                       * Geometry Optimization Run *
                       *****************************

Geometry optimization settings:
Update method            Update   .... BFGS
Choice of coordinates    CoordSys .... (2022) Redundant Internals
Initial Hessian          InHess   .... Almloef's Model
Max. no of cycles        MaxIter  .... 78

Convergence Tolerances:
Energy Change            TolE     ....  5.0000e-06 Eh
Max. Gradient            TolMAXG  ....  3.0000e-04 Eh/bohr
RMS Gradient             TolRMSG  ....  1.0000e-04 Eh/bohr
Max. Displacement        TolMAXD  ....  4.0000e-03 bohr
RMS Displacement         TolRMSD  ....  2.0000e-03 bohr
Strict Convergence                .... False

------------------------------------------------------------------------------
                        ORCA OPTIMIZATION COORDINATE SETUP
------------------------------------------------------------------------------

The optimization will be done in redundant internal coordinates (2022)
Making redundant internal coordinates   ...  (2022 redundants) done
Evaluating the initial hessian          ...  (Almloef) done
Evaluating the coordinates              ...  done
Calculating the B-matrix                .... done
Calculating the G-matrix                .... done
Diagonalizing the G-matrix              .... done
Small eigenvalue found = 6.124e-03
Small eigenvalue found = 2.381e-02
The first mode is                       ....   57
The number of degrees of freedom        ....   72

    -----------------------------------------------------------------
                    Redundant Internal Coordinates


    -----------------------------------------------------------------
         Definition                    Initial Value    Approx d2E/dq
    -----------------------------------------------------------------
      1. B(C   1,C   0)                  1.4064         0.588236   
      2. B(C   2,C   1)                  1.4112         0.577998   
      3. B(C   3,C   2)                  1.3774         0.654423   
      4. B(C   4,C   3)                  1.3923         0.619641   
      5. B(C   5,C   4)                  1.3959         0.611395   
      6. B(C   5,C   0)                  1.3772         0.654993   
      7. B(H   6,C   5)                  1.0790         0.374912   
      8. B(H   7,C   4)                  1.0790         0.374968   
      9. B(H   8,C   3)                  1.0786         0.375454   
     10. B(H   9,C   2)                  1.0800         0.373595   
     11. B(C  10,C   1)                  1.4571         0.488320   
     12. B(C  11,C  10)                  1.3619         0.692739   
     13. B(H  12,C  11)                  1.0777         0.376771   
     14. B(H  13,C  11)                  1.0777         0.376759   
     15. B(C  14,C  10)                  1.4571         0.488337   
     16. B(C  15,C  14)                  1.4064         0.588228   
     17. B(C  16,C  15)                  1.3771         0.655001   
     18. B(C  17,C  16)                  1.3959         0.611383   
     19. B(C  18,C  17)                  1.3923         0.619638   
     20. B(C  19,C  18)                  1.3774         0.654437   
     21. B(C  19,C  14)                  1.4112         0.577984   
     22. B(H  20,C  19)                  1.0800         0.373596   
     23. B(H  21,C  18)                  1.0786         0.375462   
     24. B(H  22,C  17)                  1.0790         0.374968   
     25. B(H  23,C  16)                  1.0790         0.374917   
     26. B(H  24,C  15)                  1.0784         0.375784   
     27. B(H  25,C   0)                  1.0784         0.375777   
     28. A(C   1,C   0,H  25)          119.9043         0.352314   
     29. A(C   5,C   0,H  25)          119.8623         0.358799   
     30. A(C   1,C   0,C   5)          120.1257         0.434247   
     31. A(C   2,C   1,C  10)          119.4312         0.410765   
     32. A(C   0,C   1,C  10)          121.7017         0.412046   
     33. A(C   0,C   1,C   2)          118.8671         0.424612   
     34. A(C   3,C   2,H   9)          120.1520         0.358390   
     35. A(C   1,C   2,C   3)          120.5727         0.432810   
     36. A(C   1,C   2,H   9)          119.1972         0.350924   
     37. A(C   4,C   3,H   8)          119.9723         0.355380   
     38. A(C   2,C   3,H   8)          120.0972         0.358693   
     39. A(C   2,C   3,C   4)          119.9160         0.438266   
     40. A(C   3,C   4,C   5)          120.1053         0.432931   
     41. A(C   3,C   4,H   7)          119.9855         0.355302   
     42. A(C   5,C   4,H   7)          119.9034         0.354496   
     43. A(C   0,C   5,H   6)          119.9288         0.358658   
     44. A(C   0,C   5,C   4)          120.3981         0.437277   
     45. A(C   4,C   5,H   6)          119.6697         0.354487   
     46. A(C  11,C  10,C  14)          121.1785         0.424229   
     47. A(C   1,C  10,C  14)          117.6440         0.398720   
     48. A(C   1,C  10,C  11)          121.1775         0.424226   
     49. A(C  10,C  11,H  13)          121.4378         0.362403   
     50. A(H  12,C  11,H  13)          117.1242         0.295015   
     51. A(C  10,C  11,H  12)          121.4380         0.362405   
     52. A(C  15,C  14,C  19)          118.8673         0.424609   
     53. A(C  10,C  14,C  19)          119.4315         0.410766   
     54. A(C  10,C  14,C  15)          121.7012         0.412048   
     55. A(C  14,C  15,C  16)          120.1255         0.434247   
     56. A(C  16,C  15,H  24)          119.8624         0.358801   
     57. A(C  14,C  15,H  24)          119.9043         0.352314   
     58. A(C  15,C  16,C  17)          120.3981         0.437277   
     59. A(C  17,C  16,H  23)          119.6695         0.354486   
     60. A(C  15,C  16,H  23)          119.9290         0.358660   
     61. A(C  16,C  17,C  18)          120.1052         0.432929   
     62. A(C  18,C  17,H  22)          119.9856         0.355301   
     63. A(C  16,C  17,H  22)          119.9033         0.354494   
     64. A(C  17,C  18,C  19)          119.9163         0.438268   
     65. A(C  19,C  18,H  21)          120.0970         0.358696   
     66. A(C  17,C  18,H  21)          119.9722         0.355381   
     67. A(C  14,C  19,H  20)          119.1973         0.350923   
     68. A(C  14,C  19,C  18)          120.5724         0.432809   
     69. A(C  18,C  19,H  20)          120.1521         0.358392   
     70. D(C   2,C   1,C   0,C   5)      1.3815         0.023805   
     71. D(C  10,C   1,C   0,C   5)   -178.6685         0.023805   
     72. D(C  10,C   1,C   0,H  25)     -2.4480         0.023805   
     73. D(C   2,C   1,C   0,H  25)    177.6019         0.023805   
     74. D(H   9,C   2,C   1,C   0)    175.9531         0.022945   
     75. D(H   9,C   2,C   1,C  10)     -3.9981         0.022945   
     76. D(C   3,C   2,C   1,C   0)     -0.8386         0.022945   
     77. D(C   3,C   2,C   1,C  10)    179.2102         0.022945   
     78. D(H   8,C   3,C   2,H   9)      2.1539         0.029848   
     79. D(H   8,C   3,C   2,C   1)    178.9150         0.029848   
     80. D(C   4,C   3,C   2,H   9)   -176.4610         0.029848   
     81. D(C   4,C   3,C   2,C   1)      0.3000         0.029848   
     82. D(C   5,C   4,C   3,H   8)   -178.9045         0.026567   
     83. D(C   5,C   4,C   3,C   2)     -0.2877         0.026567   
     84. D(H   7,C   4,C   3,C   2)    178.8353         0.026567   
     85. D(H   7,C   4,C   3,H   8)      0.2185         0.026567   
     86. D(H   6,C   5,C   4,H   7)      2.3922         0.025823   
     87. D(C   0,C   5,C   4,H   7)   -178.2840         0.025823   
     88. D(C   0,C   5,C   4,C   3)      0.8397         0.025823   
     89. D(H   6,C   5,C   0,H  25)      1.7080         0.029904   
     90. D(H   6,C   5,C   0,C   1)    177.9301         0.029904   
     91. D(H   6,C   5,C   4,C   3)   -178.4841         0.025823   
     92. D(C   4,C   5,C   0,H  25)   -177.6140         0.029904   
     93. D(C   4,C   5,C   0,C   1)     -1.3920         0.029904   
     94. D(C  14,C  10,C   1,C   2)    -34.6523         0.016236   
     95. D(C  14,C  10,C   1,C   0)    145.3980         0.016236   
     96. D(C  11,C  10,C   1,C   2)    145.3470         0.016236   
     97. D(C  11,C  10,C   1,C   0)    -34.6027         0.016236   
     98. D(H  13,C  11,C  10,C   1)      2.1200         0.033740   
     99. D(H  12,C  11,C  10,C  14)      2.1177         0.033740   
    100. D(H  12,C  11,C  10,C   1)   -177.8816         0.033740   
    101. D(H  13,C  11,C  10,C  14)   -177.8807         0.033740   
    102. D(C  19,C  14,C  10,C  11)    145.3497         0.016237   
    103. D(C  19,C  14,C  10,C   1)    -34.6510         0.016237   
    104. D(C  15,C  14,C  10,C  11)    -34.6009         0.016237   
    105. D(C  15,C  14,C  10,C   1)    145.3984         0.016237   
    106. D(H  24,C  15,C  14,C  19)    177.6007         0.023805   
    107. D(H  24,C  15,C  14,C  10)     -2.4484         0.023805   
    108. D(C  16,C  15,C  14,C  19)      1.3812         0.023805   
    109. D(C  16,C  15,C  14,C  10)   -178.6679         0.023805   
    110. D(H  23,C  16,C  15,H  24)      1.7074         0.029904   
    111. D(H  23,C  16,C  15,C  14)    177.9285         0.029904   
    112. D(C  17,C  16,C  15,H  24)   -177.6127         0.029904   
    113. D(C  17,C  16,C  15,C  14)     -1.3916         0.029904   
    114. D(H  22,C  17,C  16,H  23)      2.3939         0.025822   
    115. D(H  22,C  17,C  16,C  15)   -178.2842         0.025822   
    116. D(C  18,C  17,C  16,H  23)   -178.4831         0.025822   
    117. D(C  18,C  17,C  16,C  15)      0.8388         0.025822   
    118. D(H  21,C  18,C  17,H  22)      0.2194         0.026566   
    119. D(H  21,C  18,C  17,C  16)   -178.9029         0.026566   
    120. D(C  19,C  18,C  17,H  22)    178.8359         0.026566   
    121. D(C  19,C  18,C  17,C  16)     -0.2864         0.026566   
    122. D(H  20,C  19,C  18,H  21)      2.1548         0.029849   
    123. D(C  14,C  19,C  18,H  21)    178.9134         0.029849   
    124. D(C  14,C  19,C  18,C  17)      0.2987         0.029849   
    125. D(H  20,C  19,C  14,C  15)    175.9515         0.022944   
    126. D(H  20,C  19,C  14,C  10)     -4.0006         0.022944   
    127. D(H  20,C  19,C  18,C  17)   -176.4600         0.029849   
    128. D(C  18,C  19,C  14,C  15)     -0.8378         0.022944   
    129. D(C  18,C  19,C  14,C  10)    179.2101         0.022944   
    -----------------------------------------------------------------

Number of atoms                         .... 26
Number of degrees of freedom            .... 129


         *************************************************************
         *                GEOMETRY OPTIMIZATION CYCLE   1            *
         *************************************************************
---------------------------------
CARTESIAN COORDINATES (ANGSTROEM)
---------------------------------
  C      2.407573   -0.898601    0.609698
  C      1.246084   -0.438536   -0.036276
  C      1.295583    0.785485   -0.736840
  C      2.456638    1.525657   -0.772811
  C      3.595489    1.063133   -0.119002
  C      3.560487   -0.146070    0.577522
  H      4.439998   -0.485890    1.102196
  H      4.510853    1.632745   -0.162165
  H      2.490980    2.451510   -1.325141
  H      0.426964    1.111677   -1.289531
  C     -0.000026   -1.192857   -0.000018
  C     -0.000028   -2.554758   -0.000052
  H     -0.919483   -3.116848   -0.007301
  H      0.919435   -3.116853    0.007196
  C     -1.246113   -0.438519    0.036262
  C     -2.407610   -0.898558   -0.609724
  C     -3.560507   -0.146009   -0.577542
  C     -3.595487    1.063195    0.118993
  C     -2.456631    1.525685    0.772820
  C     -1.295589    0.785503    0.736838
  H     -0.426976    1.111661    1.289557
  H     -2.490964    2.451517    1.325176
  H     -4.510841    1.632824    0.162157
  H     -4.440014   -0.485790   -1.102241
  H     -2.378451   -1.812017   -1.182156
  H      2.378404   -1.812078    1.182110

----------------------------
CARTESIAN COORDINATES (A.U.)
----------------------------
  NO LB      ZA    FRAG     MASS         X           Y           Z
   0 C     6.0000    0    12.011    4.549654   -1.698110    1.152163
   1 C     6.0000    0    12.011    2.354757   -0.828714   -0.068552
   2 C     6.0000    0    12.011    2.448296    1.484351   -1.392426
   3 C     6.0000    0    12.011    4.642374    2.883074   -1.460400
   4 C     6.0000    0    12.011    6.794489    2.009030   -0.224880
   5 C     6.0000    0    12.011    6.728345   -0.276032    1.091359
   6 H     1.0000    0     1.008    8.390380   -0.918200    2.082849
   7 H     1.0000    0     1.008    8.524276    3.085441   -0.306447
   8 H     1.0000    0     1.008    4.707270    4.632683   -2.504154
   9 H     1.0000    0     1.008    0.806845    2.100765   -2.436861
  10 C     6.0000    0    12.011   -0.000049   -2.254174   -0.000034
  11 C     6.0000    0    12.011   -0.000053   -4.827793   -0.000098
  12 H     1.0000    0     1.008   -1.737571   -5.889990   -0.013797
  13 H     1.0000    0     1.008    1.737480   -5.889999    0.013598
  14 C     6.0000    0    12.011   -2.354813   -0.828681    0.068525
  15 C     6.0000    0    12.011   -4.549724   -1.698029   -1.152212
  16 C     6.0000    0    12.011   -6.728384   -0.275916   -1.091397
  17 C     6.0000    0    12.011   -6.794486    2.009148    0.224863
  18 C     6.0000    0    12.011   -4.642361    2.883127    1.460418
  19 C     6.0000    0    12.011   -2.448308    1.484385    1.392422
  20 H     1.0000    0     1.008   -0.806867    2.100734    2.436910
  21 H     1.0000    0     1.008   -4.707239    4.632695    2.504219
  22 H     1.0000    0     1.008   -8.524254    3.085590    0.306432
  23 H     1.0000    0     1.008   -8.390410   -0.918011   -2.082934
  24 H     1.0000    0     1.008   -4.494620   -3.424216   -2.233951
  25 H     1.0000    0     1.008    4.494533   -3.424332    2.233864

--------------------------------
INTERNAL COORDINATES (ANGSTROEM)
--------------------------------
 C      0   0   0     0.000000000000     0.00000000     0.00000000
 C      1   0   0     1.406413884329     0.00000000     0.00000000
 C      2   1   0     1.411193290259   118.86708309     0.00000000
 C      3   2   1     1.377388865861   120.57267726   359.16141123
 C      4   3   2     1.392255228795   119.91600957     0.30000198
 C      1   2   3     1.377152097472   120.12565775     1.38147676
 H      6   1   2     1.079027207249   119.92881171   177.93007586
 H      5   4   3     1.078986547143   119.98549852   178.83525918
 H      4   3   2     1.078634300827   120.09720352   178.91497996
 H      3   2   1     1.079985163072   119.19721577   175.95308793
 C      2   1   3     1.457087892193   121.70172243   179.95003692
 C     11   2   1     1.361900400426   121.17752925   325.39726702
 H     12  11   2     1.077680824320   121.43799962   182.11838475
 H     12  11   2     1.077689836457   121.43780876     2.12004793
 C     11   2   1     1.457077913737   117.64399852   145.39796664
 C     15  11   2     1.406417144507   121.70123075   145.39838229
 C     16  15  11     1.377148662715   120.12550366   181.33212445
 C     17  16  15     1.395907767485   120.39810286   358.60839643
 C     18  17  16     1.392256872856   120.10523870     0.83880987
 C     19  18  17     1.377383190465   119.91625624   359.71362503
 H     20  19  18     1.079984201570   120.15207082   183.54004983
 H     19  18  17     1.078628507301   119.97221744   181.09714670
 H     18  17  16     1.078986802300   119.90333805   181.71581903
 H     17  16  15     1.079023881885   119.92895859   177.92851350
 H     16  15  11     1.078394790602   119.90426681   357.55162412
 H      1   2   3     1.078400093877   119.90425691   177.60192275

---------------------------
INTERNAL COORDINATES (A.U.)
---------------------------
 C      0   0   0     0.000000000000     0.00000000     0.00000000
 C      1   0   0     2.657737072326     0.00000000     0.00000000
 C      2   1   0     2.666768840616   118.86708309     0.00000000
 C      3   2   1     2.602887736389   120.57267726   359.16141123
 C      4   3   2     2.630981090942   119.91600957     0.30000198
 C      1   2   3     2.602440308978   120.12565775     1.38147676
 H      6   1   2     2.039065912750   119.92881171   177.93007586
 H      5   4   3     2.038989076285   119.98549852   178.83525918
 H      4   3   2     2.038323427217   120.09720352   178.91497996
 H      3   2   1     2.040876186905   119.19721577   175.95308793
 C      2   1   3     2.753497069298   121.70172243   179.95003692
 C     11   2   1     2.573618778483   121.17752925   325.39726702
 H     12  11   2     2.036521617743   121.43799962   182.11838475
 H     12  11   2     2.036538648214   121.43780876     2.12004793
 C     11   2   1     2.753478212748   117.64399852   145.39796664
 C     15  11   2     2.657743233170   121.70123075   145.39838229
 C     16  15  11     2.602433818227   120.12550366   181.33212445
 C     17  16  15     2.637883388759   120.39810286   358.60839643
 C     18  17  16     2.630984197767   120.10523870     0.83880987
 C     19  18  17     2.602877011446   119.91625624   359.71362503
 H     20  19  18     2.040874369929   120.15207082   183.54004983
 H     19  18  17     2.038312479039   119.97221744   181.09714670
 H     18  17  16     2.038989558462   119.90333805   181.71581903
 H     17  16  15     2.039059628723   119.92895859   177.92851350
 H     16  15  11     2.037870818486   119.90426681   357.55162412
 H      1   2   3     2.037880840222   119.90425691   177.60192275

---------------------
BASIS SET INFORMATION
---------------------
There are 2 groups of distinct atoms

 Group   1 Type C   : 7s4p1d contracted to 3s2p1d pattern {511/31/1}
 Group   2 Type H   : 4s contracted to 2s pattern {31}

Atom   0C    basis set group =>   1
Atom   1C    basis set group =>   1
Atom   2C    basis set group =>   1
Atom   3C    basis set group =>   1
Atom   4C    basis set group =>   1
Atom   5C    basis set group =>   1
Atom   6H    basis set group =>   2
Atom   7H    basis set group =>   2
Atom   8H    basis set group =>   2
Atom   9H    basis set group =>   2
Atom  10C    basis set group =>   1
Atom  11C    basis set group =>   1
Atom  12H    basis set group =>   2
Atom  13H    basis set group =>   2
Atom  14C    basis set group =>   1
Atom  15C    basis set group =>   1
Atom  16C    basis set group =>   1
Atom  17C    basis set group =>   1
Atom  18C    basis set group =>   1
Atom  19C    basis set group =>   1
Atom  20H    basis set group =>   2
Atom  21H    basis set group =>   2
Atom  22H    basis set group =>   2
Atom  23H    basis set group =>   2
Atom  24H    basis set group =>   2
Atom  25H    basis set group =>   2
---------------------------------
AUXILIARY/J BASIS SET INFORMATION
---------------------------------
There are 2 groups of distinct atoms

 Group   1 Type C   : 12s5p4d2f1g contracted to 6s4p3d1f1g pattern {711111/2111/211/2/1}
 Group   2 Type H   : 5s2p1d contracted to 3s1p1d pattern {311/2/1}

Atom   0C    basis set group =>   1
Atom   1C    basis set group =>   1
Atom   2C    basis set group =>   1
Atom   3C    basis set group =>   1
Atom   4C    basis set group =>   1
Atom   5C    basis set group =>   1
Atom   6H    basis set group =>   2
Atom   7H    basis set group =>   2
Atom   8H    basis set group =>   2
Atom   9H    basis set group =>   2
Atom  10C    basis set group =>   1
Atom  11C    basis set group =>   1
Atom  12H    basis set group =>   2
Atom  13H    basis set group =>   2
Atom  14C    basis set group =>   1
Atom  15C    basis set group =>   1
Atom  16C    basis set group =>   1
Atom  17C    basis set group =>   1
Atom  18C    basis set group =>   1
Atom  19C    basis set group =>   1
Atom  20H    basis set group =>   2
Atom  21H    basis set group =>   2
Atom  22H    basis set group =>   2
Atom  23H    basis set group =>   2
Atom  24H    basis set group =>   2
Atom  25H    basis set group =>   2


           ************************************************************
           *        Program running with 4 parallel MPI-processes     *
           *              working on a common directory               *
           ************************************************************
------------------------------------------------------------------------------
                             ORCA STARTUP CALCULATIONS
                           -- RI-GTO INTEGRALS CHOSEN --
------------------------------------------------------------------------------
------------------------------------------------------------------------------
                   ___                                                        
                  /   \      - P O W E R E D   B Y -                         
                 /     \                                                     
                 |  |  |   _    _      __       _____    __    __             
                 |  |  |  | |  | |    /  \     |  _  \  |  |  /  |          
                  \  \/   | |  | |   /    \    | | | |  |  | /  /          
                 / \  \   | |__| |  /  /\  \   | |_| |  |  |/  /          
                |  |  |   |  __  | /  /__\  \  |    /   |      \           
                |  |  |   | |  | | |   __   |  |    \   |  |\   \          
                \     /   | |  | | |  |  |  |  | |\  \  |  | \   \       
                 \___/    |_|  |_| |__|  |__|  |_| \__\ |__|  \__/        
                                                                              
                      - O R C A' S   B I G   F R I E N D -                    
                                      &                                       
                       - I N T E G R A L  F E E D E R -                       
                                                                              
 v1 FN, 2020, v2 2021, v3 2022-2024                                           
------------------------------------------------------------------------------


----------------------
SHARK INTEGRAL PACKAGE
----------------------

Number of atoms                             ...     26
Number of basis functions                   ...    220
Number of shells                            ...    108
Maximum angular momentum                    ...      2
Integral batch strategy                     ... SHARK/LIBINT Hybrid
RI-J (if used) integral strategy            ... SPLIT-RIJ (Revised 2003 algorithm where possible)
Printlevel                                  ...      1
Contraction scheme used                     ... SEGMENTED contraction
Prescreening option                         ... SCHWARTZ
   Thresh                                   ... 2.500e-11
   Tcut                                     ... 2.500e-12
   Tpresel                                  ... 2.500e-12 
Coulomb Range Separation                    ... NOT USED
Exchange Range Separation                   ... NOT USED
Multipole approximations                    ... NOT USED
Finite Nucleus Model                        ... NOT USED
CABS basis                                  ... NOT available
Auxiliary Coulomb fitting basis             ... AVAILABLE
   # of basis functions in Aux-J            ...    818
   # of shells in Aux-J                     ...    270
   Maximum angular momentum in Aux-J        ...      4
Auxiliary J/K fitting basis                 ... NOT available
Auxiliary Correlation fitting basis         ... NOT available
Auxiliary 'external' fitting basis          ... NOT available

Checking pre-screening integrals            ... done (  0.0 sec) Dimension = 108
Check shell pair data                       ... done (  0.0 sec)
Shell pair information
Shell pair cut-off parameter TPreSel        ...   2.5e-12
Total number of shell pairs                 ...      5886
Shell pairs after pre-screening             ...      5218
Total number of primitive shell pairs       ...     23654
Primitive shell pairs kept                  ...     14066
          la=0 lb=0:   1919 shell pairs
          la=1 lb=0:   1700 shell pairs
          la=1 lb=1:    394 shell pairs
          la=2 lb=0:    760 shell pairs
          la=2 lb=1:    364 shell pairs
          la=2 lb=2:     81 shell pairs

Calculating one electron integrals          ... done (  0.0 sec)
Calculating RI/J V-Matrix + Cholesky decomp.... done (  0.1 sec)
Calculating Nuclear repulsion               ... done (  0.0 sec) ENN=    781.556444183108 Eh

Diagonalization of the overlap matrix:
Smallest eigenvalue                        ... 2.894e-04
Time for diagonalization                   ...    0.004 sec
Threshold for overlap eigenvalues          ... 1.000e-07
Number of eigenvalues below threshold      ... 0
Time for construction of square roots      ...    0.041 sec
Total time needed                          ...    0.094 sec

-------------------
DFT GRID GENERATION
-------------------

General Integration Accuracy     IntAcc      ... 4.388
Radial Grid Type                 RadialGrid  ... OptM3 with GC (2021)
Angular Grid (max. ang.)         AngularGrid ... 4 (Lebedev-302)
Angular grid pruning method      GridPruning ... 4 (adaptive)
Weight generation scheme         WeightScheme... mBecke (2022)
Basis function cutoff            BFCut       ... 1.0000e-11
Integration weight cutoff        WCut        ... 1.0000e-14
Partially contracted basis set               ... off
Rotationally invariant grid construction     ... off
Angular grids for H and He will be reduced by one unit

Total number of grid points                  ...   122203
Total number of batches                      ...     1924
Average number of points per batch           ...       63
Average number of grid points per atom       ...     4700

--------------------
COSX GRID GENERATION
--------------------

GRIDX 1
-------
General Integration Accuracy     IntAcc      ... 3.816
Radial Grid Type                 RadialGrid  ... OptM3 with GC (2021)
Angular Grid (max. ang.)         AngularGrid ... 1 (Lebedev-50)
Angular grid pruning method      GridPruning ... 4 (adaptive)
Weight generation scheme         WeightScheme... mBecke (2022)
Basis function cutoff            BFCut       ... 1.0000e-11
Integration weight cutoff        WCut        ... 1.0000e-14
Partially contracted basis set               ... on
Rotationally invariant grid construction     ... off
Angular grids for H and He will be reduced by one unit

Total number of grid points                  ...    15589
Total number of batches                      ...      133
Average number of points per batch           ...      117
Average number of grid points per atom       ...      600
UseSFitting                                  ... on

GRIDX 2
-------
General Integration Accuracy     IntAcc      ... 4.020
Radial Grid Type                 RadialGrid  ... OptM3 with GC (2021)
Angular Grid (max. ang.)         AngularGrid ... 2 (Lebedev-110)
Angular grid pruning method      GridPruning ... 4 (adaptive)
Weight generation scheme         WeightScheme... mBecke (2022)
Basis function cutoff            BFCut       ... 1.0000e-11
Integration weight cutoff        WCut        ... 1.0000e-14
Partially contracted basis set               ... on
Rotationally invariant grid construction     ... off
Angular grids for H and He will be reduced by one unit

Total number of grid points                  ...    33737
Total number of batches                      ...      279
Average number of points per batch           ...      120
Average number of grid points per atom       ...     1298
UseSFitting                                  ... on

GRIDX 3
-------
General Integration Accuracy     IntAcc      ... 4.338
Radial Grid Type                 RadialGrid  ... OptM3 with GC (2021)
Angular Grid (max. ang.)         AngularGrid ... 3 (Lebedev-194)
Angular grid pruning method      GridPruning ... 4 (adaptive)
Weight generation scheme         WeightScheme... mBecke (2022)
Basis function cutoff            BFCut       ... 1.0000e-11
Integration weight cutoff        WCut        ... 1.0000e-14
Partially contracted basis set               ... on
Rotationally invariant grid construction     ... off
Angular grids for H and He will be reduced by one unit

Total number of grid points                  ...    73966
Total number of batches                      ...      591
Average number of points per batch           ...      125
Average number of grid points per atom       ...     2845
UseSFitting                                  ... on
Initializing property integral containers    ... done (  0.0 sec)

SHARK setup successfully completed in   2.9 seconds

Maximum memory used throughout the entire STARTUP-calculation: 32.3 MB


           ************************************************************
           *        Program running with 4 parallel MPI-processes     *
           *              working on a common directory               *
           ************************************************************
-------------------------------------------------------------------------------
                                 ORCA GUESS
                   Start orbitals & Density for SCF / CASSCF
-------------------------------------------------------------------------------

------------
SCF SETTINGS
------------
Hamiltonian:
 Density Functional     Method          .... DFT(GTOs)
 Exchange Functional    Exchange        .... PBE
   PBE kappa parameter   XKappa         ....  0.804000
   PBE mue parameter    XMuePBE         ....  0.219520
 Correlation Functional Correlation     .... PBE
   PBE beta parameter  CBetaPBE         ....  0.066725
 LDA part of GGA corr.  LDAOpt          .... PW91-LDA
 Gradients option       PostSCFGGA      .... off
 Hybrid DFT is turned on
   Fraction HF Exchange ScalHFX         ....  0.250000
   Scaling of DF-GGA-X  ScalDFX         ....  0.750000
   Scaling of DF-GGA-C  ScalDFC         ....  1.000000
   Scaling of DF-LDA-C  ScalLDAC        ....  1.000000
   Perturbative correction              ....  0.000000
   NL short-range parameter             ....  6.900000
 RI-approximation to the Coulomb term is turned on
   Number of AuxJ basis functions       .... 818
   RIJ-COSX (HFX calculated with COS-X)).... on


General Settings:
 Integral files         IntName         .... cs_rporg_015_ox_opt_01
 Hartree-Fock type      HFTyp           .... UHF
 Total Charge           Charge          ....    1
 Multiplicity           Mult            ....    2
 Number of Electrons    NEL             ....   95
 Basis Dimension        Dim             ....  220
 Nuclear Repulsion      ENuc            ....    781.5564441831 Eh

Convergence Acceleration:
 AO-DIIS                CNVDIIS         .... on
   Start iteration      DIISMaxIt       ....     0
   Startup error        DIISStart       ....  0.200000
   # of expansion vecs  DIISMaxEq       ....     5
   Bias factor          DIISBfac        ....   1.050
   Max. coefficient     DIISMaxC        ....  10.000
 MO-DIIS                CNVKDIIS        .... off
 Trust-Rad. Augm. Hess. CNVTRAH         .... auto
   Auto Start mean grad. ratio tolernc. ....  1.125000
   Auto Start start iteration           ....    50
   Auto Start num. interpolation iter.  ....    10
   Max. Number of Micro iterations      ....    24
   Max. Number of Macro iterations      .... Maxiter - #DIIS iter
   Number of Davidson start vectors     ....     2
   Converg. threshold    (grad. norm)   ....   1.000e-05
   Grad. Scal. Fac. for Micro threshold ....   0.100
   Minimum threshold for Micro iter.    ....   1.000e-02
   NR start threshold (gradient norm)   ....   1.000e-04
   Initial trust radius                 ....   0.400
   Minimum AH scaling param. (alpha)    ....   1.000
   Maximum AH scaling param. (alpha)    .... 1000.000
   Quad. conv. algorithm                .... NR
   White noise on init. David. guess    .... on
   Maximum white noise                  ....   0.010
   Pseudo random numbers                .... off
   Inactive MOs                         .... canonical
   Orbital update algorithm             .... Taylor
   Preconditioner                       .... Diag
   Full preconditioner red. dimension   ....   250
 SOSCF                  CNVSOSCF        .... on
   Start iteration      SOSCFMaxIt      ....   150
   Startup grad/error   SOSCFStart      ....  0.001000
   Hessian update       SOSCFHessUp     .... L-BFGS
 Level Shifting         CNVShift        .... on
   Level shift para.    LevelShift      ....    0.2500
   Turn off err/grad.   ShiftErr        ....    0.0000
 Zerner damping         CNVZerner       .... off
 Static damping         CNVDamp         .... on
   Fraction old density DampFac         ....    0.8500
   Max. Damping (<1)    DampMax         ....    0.9800
   Min. Damping (>=0)   DampMin         ....    0.0000
   Turn off err/grad.   DampErr         ....    0.0300

SCF Procedure:
 Maximum # iterations   MaxIter         ....  1500
 SCF integral mode      SCFMode         .... Direct
   Integral package                     .... SHARK and LIBINT hybrid scheme
 Reset frequency        DirectResetFreq ....    20
 Integral Threshold     Thresh          ....  2.500e-11 Eh
 Primitive CutOff       TCut            ....  2.500e-12 Eh

Convergence Tolerance:
 Convergence Check Mode ConvCheckMode   .... Total+1el-Energy
 Convergence forced     ConvForced      .... 0
 Energy Change          TolE            ....  1.000e-08 Eh
 1-El. energy change                    ....  1.000e-05 Eh
 Orbital Gradient       TolG            ....  1.000e-05
 Orbital Rotation angle TolX            ....  1.000e-05
 DIIS Error             TolErr          ....  5.000e-07

------------------------------
INITIAL GUESS: MODEL POTENTIAL
------------------------------
Loading Hartree-Fock densities                     ... done
Calculating cut-offs                               ... done
Initializing the effective Hamiltonian             ... done
Setting up the integral package (SHARK)            ... done
Starting the Coulomb interaction                   ... done (   0.1 sec)
Making the grid                                    ... done (   0.3 sec)
Mapping shells                                     ... done
Starting the XC term evaluation                    ... done (   0.1 sec)
  promolecular density results
     # of electrons  =     96.000283813
     EX              =    -75.144950649
     EC              =     -3.178186624
     EX+EC           =    -78.323137273
Transforming the Hamiltonian                       ... done (   0.0 sec)
Diagonalizing the Hamiltonian                      ... done (   0.0 sec)
Back transforming the eigenvectors                 ... done (   0.1 sec)
Now organizing SCF variables                       ... done
                      ------------------
                      INITIAL GUESS DONE (   1.0 sec)
                      ------------------
             **** ENERGY FILE WAS UPDATED (cs_rporg_015_ox_opt_01.en.tmp) ****
Finished Guess after   1.9 sec
Maximum memory used throughout the entire GUESS-calculation: 17.8 MB


           ************************************************************
           *        Program running with 4 parallel MPI-processes     *
           *              working on a common directory               *
           ************************************************************

-------------------------------------------------------------------------------------------
                                      ORCA LEAN-SCF
                              memory conserving SCF solver
-------------------------------------------------------------------------------------------

----------------------------------------D-I-I-S--------------------------------------------
Iteration    Energy (Eh)           Delta-E    RMSDP     MaxDP     DIISErr   Damp  Time(sec)
-------------------------------------------------------------------------------------------
               ***  Starting incremental Fock matrix formation  ***
    1    -539.1807506836502171     0.00e+00  7.42e-04  1.14e-02  4.62e-02  0.850   5.1
Warning: op=1 Small HOMO/LUMO gap (   0.049) - skipping pre-diagonalization
         Will do a full diagonalization
    2    -539.2213584141148885    -4.06e-02  7.26e-04  1.05e-02  3.65e-02  0.850   4.4
                               ***Turning on AO-DIIS***
    3    -539.2503000604050385    -2.89e-02  4.82e-04  6.27e-03  2.66e-02  0.850   3.9
    4    -539.2701918207225162    -1.99e-02  2.44e-03  3.42e-02  2.13e-02  0.000   4.1
    5    -539.3537051822382864    -8.35e-02  2.47e-04  7.50e-03  7.71e-03  0.000   4.1
    6    -539.3550443135721935    -1.34e-03  9.32e-05  3.51e-03  5.21e-03  0.000   4.2
    7    -539.3553532032059366    -3.09e-04  5.85e-05  3.42e-03  2.64e-03  0.000   3.8
    8    -539.3554850687756925    -1.32e-04  5.07e-05  3.95e-03  2.14e-03  0.000   3.3
    9    -539.3555604990800703    -7.54e-05  3.37e-05  2.17e-03  1.26e-03  0.000   3.0
                              *** Initializing SOSCF ***
---------------------------------------S-O-S-C-F--------------------------------------
Iteration    Energy (Eh)           Delta-E    RMSDP     MaxDP     MaxGrad    Time(sec)
--------------------------------------------------------------------------------------
   10    -539.3556005822928228    -4.01e-05  2.43e-05  1.70e-03  7.48e-04     3.1
               *** Restarting incremental Fock matrix formation ***
   11    -539.3555193424900835     8.12e-05  2.52e-05  9.31e-04  8.87e-04     4.0
   12    -539.3555289771474008    -9.63e-06  4.11e-05  1.85e-03  4.74e-04     3.4
   13    -539.3555329282431785    -3.95e-06  1.69e-05  3.34e-04  2.86e-04     3.3
   14    -539.3555349283568603    -2.00e-06  8.08e-06  1.82e-04  9.13e-05     3.0
   15    -539.3555349683045961    -3.99e-08  4.50e-06  1.68e-04  8.32e-05     3.3
   16    -539.3555352365775661    -2.68e-07  1.45e-06  4.77e-05  1.94e-05     3.0
   17    -539.3555352338890998     2.69e-09  7.93e-07  2.89e-05  1.74e-05     2.8
                 **** Energy Check signals convergence ****

               *****************************************************
               *                     SUCCESS                       *
               *           SCF CONVERGED AFTER  17 CYCLES          *
               *****************************************************

Recomputing exchange energy using gridx3       ... done (    4.144 sec)
Old exchange energy                            :    -19.117217046 Eh
New exchange energy                            :    -19.117131595 Eh
Exchange energy change after final integration :      0.000085451 Eh
Total energy after final integration           :   -539.355449783 Eh
             **** ENERGY FILE WAS UPDATED (cs_rporg_015_ox_opt_01.en.tmp) ****

----------------
TOTAL SCF ENERGY
----------------

Total Energy       :       -539.35544978318887 Eh          -14676.60793 eV

Components:
Nuclear Repulsion  :        781.55644418310806 Eh           21267.23205 eV
Electronic Energy  :      -1320.91197941699716 Eh          -35943.84231 eV
One Electron Energy:      -2261.98968179772328 Eh          -61551.86848 eV
Two Electron Energy:        941.07770238072612 Eh           25608.02617 eV

Virial components:
Potential Energy   :      -1073.89554572085763 Eh          -29222.18343 eV
Kinetic Energy     :        534.54009593766887 Eh           14545.57549 eV
Virial Ratio       :          2.00900840532285

DFT components:
N(Alpha)           :       47.999932291313 electrons
N(Beta)            :       46.999937714401 electrons
N(Total)           :       94.999870005714 electrons
E(X)               :      -57.161599260812 Eh       
E(C)               :       -3.153233793817 Eh       
E(XC)              :      -60.314833054629 Eh       

---------------
SCF CONVERGENCE
---------------

  Last Energy change         ...   -2.6885e-09  Tolerance :   1.0000e-08
  Last MAX-Density change    ...    2.8941e-05  Tolerance :   1.0000e-07
  Last RMS-Density change    ...    7.9266e-07  Tolerance :   5.0000e-09
  Last DIIS Error            ...    7.4761e-04  Tolerance :   5.0000e-07
  Last Orbital Gradient      ...    1.7391e-05  Tolerance :   1.0000e-05
  Last Orbital Rotation      ...    6.1563e-05  Tolerance :   1.0000e-05


----------------------
UHF SPIN CONTAMINATION
----------------------

Warning: in a DFT calculation there is little theoretical justification to 
         calculate <S**2> as in Hartree-Fock theory. We will do it anyways
         but you should keep in mind that the values have only limited relevance

Expectation value of <S**2>     :     0.772325
Ideal value S*(S+1) for S=0.5   :     0.750000
Deviation                       :     0.022325

----------------
ORBITAL ENERGIES
----------------
                 SPIN UP ORBITALS
  NO   OCC          E(Eh)            E(eV) 
   0   1.0000     -10.445039      -284.2240 
   1   1.0000     -10.434368      -283.9336 
   2   1.0000     -10.421790      -283.5913 
   3   1.0000     -10.421766      -283.5907 
   4   1.0000     -10.400596      -283.0146 
   5   1.0000     -10.400593      -283.0145 
   6   1.0000     -10.398414      -282.9552 
   7   1.0000     -10.398410      -282.9551 
   8   1.0000     -10.398059      -282.9456 
   9   1.0000     -10.398052      -282.9454 
  10   1.0000     -10.387288      -282.6525 
  11   1.0000     -10.387286      -282.6524 
  12   1.0000     -10.385072      -282.5922 
  13   1.0000     -10.385063      -282.5919 
  14   1.0000      -1.067793       -29.0561 
  15   1.0000      -1.039360       -28.2824 
  16   1.0000      -1.002256       -27.2728 
  17   1.0000      -0.932317       -25.3696 
  18   1.0000      -0.929885       -25.3035 
  19   1.0000      -0.920727       -25.0542 
  20   1.0000      -0.911739       -24.8097 
  21   1.0000      -0.824309       -22.4306 
  22   1.0000      -0.789069       -21.4717 
  23   1.0000      -0.779583       -21.2135 
  24   1.0000      -0.772554       -21.0223 
  25   1.0000      -0.733237       -19.9524 
  26   1.0000      -0.706527       -19.2256 
  27   1.0000      -0.684704       -18.6317 
  28   1.0000      -0.649438       -17.6721 
  29   1.0000      -0.647901       -17.6303 
  30   1.0000      -0.628025       -17.0894 
  31   1.0000      -0.618125       -16.8200 
  32   1.0000      -0.616068       -16.7641 
  33   1.0000      -0.599187       -16.3047 
  34   1.0000      -0.596802       -16.2398 
  35   1.0000      -0.594499       -16.1772 
  36   1.0000      -0.570029       -15.5113 
  37   1.0000      -0.555779       -15.1235 
  38   1.0000      -0.549072       -14.9410 
  39   1.0000      -0.529092       -14.3973 
  40   1.0000      -0.519052       -14.1241 
  41   1.0000      -0.513801       -13.9812 
  42   1.0000      -0.509784       -13.8719 
  43   1.0000      -0.496614       -13.5135 
  44   1.0000      -0.435118       -11.8402 
  45   1.0000      -0.429915       -11.6986 
  46   1.0000      -0.423140       -11.5142 
  47   1.0000      -0.415160       -11.2971 
  48   0.0000      -0.224871        -6.1191 
  49   0.0000      -0.176459        -4.8017 
  50   0.0000      -0.163872        -4.4592 
  51   0.0000      -0.147490        -4.0134 
  52   0.0000      -0.108292        -2.9468 
  53   0.0000      -0.057887        -1.5752 
  54   0.0000      -0.047154        -1.2831 
  55   0.0000      -0.032108        -0.8737 
  56   0.0000      -0.027878        -0.7586 
  57   0.0000      -0.011472        -0.3122 
  58   0.0000      -0.003670        -0.0999 

                 SPIN DOWN ORBITALS
  NO   OCC          E(Eh)            E(eV) 
   0   1.0000     -10.446134      -284.2537 
   1   1.0000     -10.425669      -283.6969 
   2   1.0000     -10.420176      -283.5474 
   3   1.0000     -10.420151      -283.5467 
   4   1.0000     -10.399422      -282.9827 
   5   1.0000     -10.399419      -282.9826 
   6   1.0000     -10.397518      -282.9308 
   7   1.0000     -10.397510      -282.9306 
   8   1.0000     -10.396169      -282.8942 
   9   1.0000     -10.396165      -282.8940 
  10   1.0000     -10.387521      -282.6588 
  11   1.0000     -10.387518      -282.6587 
  12   1.0000     -10.385733      -282.6102 
  13   1.0000     -10.385724      -282.6099 
  14   1.0000      -1.063412       -28.9369 
  15   1.0000      -1.035995       -28.1908 
  16   1.0000      -0.995906       -27.1000 
  17   1.0000      -0.928960       -25.2783 
  18   1.0000      -0.926959       -25.2238 
  19   1.0000      -0.917361       -24.9627 
  20   1.0000      -0.900302       -24.4985 
  21   1.0000      -0.818872       -22.2826 
  22   1.0000      -0.786828       -21.4107 
  23   1.0000      -0.776331       -21.1251 
  24   1.0000      -0.770708       -20.9720 
  25   1.0000      -0.730496       -19.8778 
  26   1.0000      -0.705159       -19.1884 
  27   1.0000      -0.681638       -18.5483 
  28   1.0000      -0.647020       -17.6063 
  29   1.0000      -0.645854       -17.5746 
  30   1.0000      -0.625171       -17.0118 
  31   1.0000      -0.615868       -16.7586 
  32   1.0000      -0.613952       -16.7065 
  33   1.0000      -0.596998       -16.2451 
  34   1.0000      -0.595817       -16.2130 
  35   1.0000      -0.593466       -16.1490 
  36   1.0000      -0.567491       -15.4422 
  37   1.0000      -0.545499       -14.8438 
  38   1.0000      -0.539821       -14.6893 
  39   1.0000      -0.528399       -14.3785 
  40   1.0000      -0.518344       -14.1049 
  41   1.0000      -0.510094       -13.8804 
  42   1.0000      -0.508457       -13.8358 
  43   1.0000      -0.474236       -12.9046 
  44   1.0000      -0.428942       -11.6721 
  45   1.0000      -0.420457       -11.4412 
  46   1.0000      -0.412635       -11.2284 
  47   0.0000      -0.334357        -9.0983 
  48   0.0000      -0.194826        -5.3015 
  49   0.0000      -0.166288        -4.5249 
  50   0.0000      -0.159217        -4.3325 
  51   0.0000      -0.141684        -3.8554 
  52   0.0000      -0.094313        -2.5664 
  53   0.0000      -0.056312        -1.5323 
  54   0.0000      -0.046484        -1.2649 
  55   0.0000      -0.029669        -0.8073 
  56   0.0000      -0.026046        -0.7087 
  57   0.0000      -0.010096        -0.2747 
*Only the first 10 virtual orbitals were printed.

                    ********************************
                    * MULLIKEN POPULATION ANALYSIS *
                    ********************************

--------------------------------------------
MULLIKEN ATOMIC CHARGES AND SPIN POPULATIONS
--------------------------------------------
   0 C :   -0.098984    0.032730
   1 C :    0.023991    0.107756
   2 C :   -0.096242    0.074287
   3 C :   -0.070431   -0.055088
   4 C :   -0.034462    0.158871
   5 C :   -0.070041   -0.023476
   6 H :    0.142242    0.000472
   7 H :    0.149699   -0.007434
   8 H :    0.140155    0.001969
   9 H :    0.146993   -0.003410
  10 C :    0.030336   -0.088132
  11 C :   -0.128062    0.575450
  12 H :    0.191681   -0.028329
  13 H :    0.191686   -0.028329
  14 C :    0.023994    0.107762
  15 C :   -0.098976    0.032734
  16 C :   -0.070041   -0.023481
  17 C :   -0.034457    0.158885
  18 C :   -0.070427   -0.055091
  19 C :   -0.096239    0.074289
  20 H :    0.146995   -0.003410
  21 H :    0.140153    0.001969
  22 H :    0.149701   -0.007435
  23 H :    0.142242    0.000472
  24 H :    0.124246   -0.002015
  25 H :    0.124247   -0.002015
Sum of atomic charges         :    1.0000000
Sum of atomic spin populations:    1.0000000

-----------------------------------------------------
MULLIKEN REDUCED ORBITAL CHARGES AND SPIN POPULATIONS
-----------------------------------------------------
CHARGE
  0 C s       :     3.235843  s :     3.235843
      pz      :     0.937853  p :     2.826024
      px      :     0.979882
      py      :     0.908290
      dz2     :     0.003521  d :     0.037116
      dxz     :     0.007399
      dyz     :     0.006531
      dx2y2   :     0.011199
      dxy     :     0.008466

  1 C s       :     3.005696  s :     3.005696
      pz      :     0.972754  p :     2.927443
      px      :     0.989301
      py      :     0.965388
      dz2     :     0.006669  d :     0.042869
      dxz     :     0.006793
      dyz     :     0.006234
      dx2y2   :     0.011138
      dxy     :     0.012036

  2 C s       :     3.244234  s :     3.244234
      pz      :     0.947049  p :     2.814547
      px      :     0.915676
      py      :     0.951822
      dz2     :     0.003778  d :     0.037461
      dxz     :     0.008032
      dyz     :     0.006034
      dx2y2   :     0.010887
      dxy     :     0.008730

  3 C s       :     3.191895  s :     3.191895
      pz      :     0.948160  p :     2.841488
      px      :     0.964401
      py      :     0.928927
      dz2     :     0.003776  d :     0.037049
      dxz     :     0.006879
      dyz     :     0.006523
      dx2y2   :     0.011107
      dxy     :     0.008764

  4 C s       :     3.202499  s :     3.202499
      pz      :     0.900905  p :     2.793875
      px      :     0.945978
      py      :     0.946991
      dz2     :     0.006374  d :     0.038089
      dxz     :     0.005432
      dyz     :     0.005531
      dx2y2   :     0.008949
      dxy     :     0.011803

  5 C s       :     3.193665  s :     3.193665
      pz      :     0.940521  p :     2.839177
      px      :     0.939017
      py      :     0.959640
      dz2     :     0.003854  d :     0.037198
      dxz     :     0.007618
      dyz     :     0.005770
      dx2y2   :     0.010061
      dxy     :     0.009895

  6 H s       :     0.857758  s :     0.857758

  7 H s       :     0.850301  s :     0.850301

  8 H s       :     0.859845  s :     0.859845

  9 H s       :     0.853007  s :     0.853007

 10 C s       :     3.055002  s :     3.055002
      pz      :     0.886752  p :     2.869791
      px      :     1.038396
      py      :     0.944643
      dz2     :     0.002977  d :     0.044870
      dxz     :     0.006071
      dyz     :     0.006494
      dx2y2   :     0.014274
      dxy     :     0.015055

 11 C s       :     3.258837  s :     3.258837
      pz      :     0.777812  p :     2.839581
      px      :     1.029082
      py      :     1.032687
      dz2     :     0.003854  d :     0.029644
      dxz     :     0.000110
      dyz     :     0.004594
      dx2y2   :     0.007952
      dxy     :     0.013134

 12 H s       :     0.808319  s :     0.808319

 13 H s       :     0.808314  s :     0.808314

 14 C s       :     3.005701  s :     3.005701
      pz      :     0.972750  p :     2.927435
      px      :     0.989299
      py      :     0.965386
      dz2     :     0.006668  d :     0.042869
      dxz     :     0.006793
      dyz     :     0.006234
      dx2y2   :     0.011138
      dxy     :     0.012036

 15 C s       :     3.235839  s :     3.235839
      pz      :     0.937849  p :     2.826022
      px      :     0.979884
      py      :     0.908289
      dz2     :     0.003521  d :     0.037116
      dxz     :     0.007399
      dyz     :     0.006531
      dx2y2   :     0.011199
      dxy     :     0.008465

 16 C s       :     3.193665  s :     3.193665
      pz      :     0.940522  p :     2.839177
      px      :     0.939016
      py      :     0.959640
      dz2     :     0.003853  d :     0.037198
      dxz     :     0.007619
      dyz     :     0.005770
      dx2y2   :     0.010061
      dxy     :     0.009895

 17 C s       :     3.202499  s :     3.202499
      pz      :     0.900901  p :     2.793870
      px      :     0.945981
      py      :     0.946988
      dz2     :     0.006374  d :     0.038089
      dxz     :     0.005432
      dyz     :     0.005531
      dx2y2   :     0.008949
      dxy     :     0.011803

 18 C s       :     3.191893  s :     3.191893
      pz      :     0.948156  p :     2.841486
      px      :     0.964401
      py      :     0.928929
      dz2     :     0.003776  d :     0.037049
      dxz     :     0.006879
      dyz     :     0.006523
      dx2y2   :     0.011106
      dxy     :     0.008764

 19 C s       :     3.244232  s :     3.244232
      pz      :     0.947045  p :     2.814546
      px      :     0.915677
      py      :     0.951823
      dz2     :     0.003778  d :     0.037461
      dxz     :     0.008032
      dyz     :     0.006034
      dx2y2   :     0.010887
      dxy     :     0.008730

 20 H s       :     0.853005  s :     0.853005

 21 H s       :     0.859847  s :     0.859847

 22 H s       :     0.850299  s :     0.850299

 23 H s       :     0.857758  s :     0.857758

 24 H s       :     0.875754  s :     0.875754

 25 H s       :     0.875753  s :     0.875753


SPIN
  0 C s       :     0.002564  s :     0.002564
      pz      :     0.022860  p :     0.029846
      px      :     0.002200
      py      :     0.004786
      dz2     :     0.000165  d :     0.000319
      dxz     :     0.000025
      dyz     :    -0.000100
      dx2y2   :    -0.000055
      dxy     :     0.000284

  1 C s       :     0.014242  s :     0.014242
      pz      :     0.064721  p :     0.093258
      px      :     0.015238
      py      :     0.013298
      dz2     :     0.000171  d :     0.000255
      dxz     :     0.000012
      dyz     :     0.000001
      dx2y2   :     0.000068
      dxy     :     0.000004

  2 C s       :     0.007006  s :     0.007006
      pz      :     0.028598  p :     0.067165
      px      :     0.012133
      py      :     0.026433
      dz2     :     0.000312  d :     0.000116
      dxz     :    -0.000208
      dyz     :    -0.000047
      dx2y2   :     0.000081
      dxy     :    -0.000022

  3 C s       :    -0.010908  s :    -0.010908
      pz      :    -0.024675  p :    -0.045467
      px      :    -0.009357
      py      :    -0.011435
      dz2     :     0.000254  d :     0.001287
      dxz     :     0.000396
      dyz     :     0.000056
      dx2y2   :     0.000213
      dxy     :     0.000367

  4 C s       :     0.021862  s :     0.021862
      pz      :     0.092572  p :     0.137545
      px      :     0.011368
      py      :     0.033605
      dz2     :    -0.000192  d :    -0.000536
      dxz     :    -0.000073
      dyz     :    -0.000210
      dx2y2   :    -0.000000
      dxy     :    -0.000060

  5 C s       :    -0.005949  s :    -0.005949
      pz      :    -0.009006  p :    -0.018510
      px      :    -0.000589
      py      :    -0.008916
      dz2     :     0.000339  d :     0.000983
      dxz     :     0.000102
      dyz     :     0.000273
      dx2y2   :     0.000258
      dxy     :     0.000011

  6 H s       :     0.000472  s :     0.000472

  7 H s       :    -0.007434  s :    -0.007434

  8 H s       :     0.001969  s :     0.001969

  9 H s       :    -0.003410  s :    -0.003410

 10 C s       :    -0.007949  s :    -0.007949
      pz      :    -0.042790  p :    -0.085301
      px      :    -0.007406
      py      :    -0.035105
      dz2     :     0.000066  d :     0.005118
      dxz     :    -0.000329
      dyz     :     0.005304
      dx2y2   :     0.000052
      dxy     :     0.000025

 11 C s       :     0.061649  s :     0.061649
      pz      :     0.484460  p :     0.515202
      px      :     0.025414
      py      :     0.005328
      dz2     :    -0.001801  d :    -0.001401
      dxz     :    -0.000012
      dyz     :     0.000363
      dx2y2   :     0.000043
      dxy     :     0.000006

 12 H s       :    -0.028329  s :    -0.028329

 13 H s       :    -0.028329  s :    -0.028329

 14 C s       :     0.014243  s :     0.014243
      pz      :     0.064725  p :     0.093264
      px      :     0.015240
      py      :     0.013298
      dz2     :     0.000171  d :     0.000255
      dxz     :     0.000012
      dyz     :     0.000001
      dx2y2   :     0.000068
      dxy     :     0.000004

 15 C s       :     0.002564  s :     0.002564
      pz      :     0.022861  p :     0.029851
      px      :     0.002200
      py      :     0.004789
      dz2     :     0.000165  d :     0.000319
      dxz     :     0.000025
      dyz     :    -0.000100
      dx2y2   :    -0.000055
      dxy     :     0.000284

 16 C s       :    -0.005950  s :    -0.005950
      pz      :    -0.009009  p :    -0.018514
      px      :    -0.000588
      py      :    -0.008916
      dz2     :     0.000339  d :     0.000983
      dxz     :     0.000102
      dyz     :     0.000273
      dx2y2   :     0.000258
      dxy     :     0.000011

 17 C s       :     0.021864  s :     0.021864
      pz      :     0.092578  p :     0.137556
      px      :     0.011368
      py      :     0.033610
      dz2     :    -0.000192  d :    -0.000536
      dxz     :    -0.000073
      dyz     :    -0.000210
      dx2y2   :    -0.000000
      dxy     :    -0.000060

 18 C s       :    -0.010909  s :    -0.010909
      pz      :    -0.024675  p :    -0.045469
      px      :    -0.009357
      py      :    -0.011436
      dz2     :     0.000254  d :     0.001287
      dxz     :     0.000396
      dyz     :     0.000056
      dx2y2   :     0.000213
      dxy     :     0.000367

 19 C s       :     0.007006  s :     0.007006
      pz      :     0.028600  p :     0.067167
      px      :     0.012134
      py      :     0.026433
      dz2     :     0.000312  d :     0.000116
      dxz     :    -0.000208
      dyz     :    -0.000047
      dx2y2   :     0.000081
      dxy     :    -0.000022

 20 H s       :    -0.003410  s :    -0.003410

 21 H s       :     0.001969  s :     0.001969

 22 H s       :    -0.007435  s :    -0.007435

 23 H s       :     0.000472  s :     0.000472

 24 H s       :    -0.002015  s :    -0.002015

 25 H s       :    -0.002015  s :    -0.002015



                     *******************************
                     * LOEWDIN POPULATION ANALYSIS *
                     *******************************

-------------------------------------------
LOEWDIN ATOMIC CHARGES AND SPIN POPULATIONS
-------------------------------------------
   0 C :   -0.083287    0.034574
   1 C :   -0.017357    0.086156
   2 C :   -0.073511    0.066815
   3 C :   -0.104483   -0.028724
   4 C :   -0.041920    0.126228
   5 C :   -0.093614   -0.006431
   6 H :    0.156450    0.000199
   7 H :    0.158433   -0.003521
   8 H :    0.155705    0.000990
   9 H :    0.153549   -0.001218
  10 C :    0.024314   -0.028428
  11 C :   -0.064037    0.506223
  12 H :    0.161332   -0.013056
  13 H :    0.161334   -0.013057
  14 C :   -0.017354    0.086160
  15 C :   -0.083284    0.034578
  16 C :   -0.093614   -0.006434
  17 C :   -0.041915    0.126239
  18 C :   -0.104483   -0.028725
  19 C :   -0.073509    0.066817
  20 H :    0.153551   -0.001218
  21 H :    0.155705    0.000990
  22 H :    0.158434   -0.003522
  23 H :    0.156451    0.000199
  24 H :    0.148556   -0.000917
  25 H :    0.148555   -0.000916

----------------------------------------------------
LOEWDIN REDUCED ORBITAL CHARGES AND SPIN POPULATIONS
----------------------------------------------------
CHARGE
  0 C s       :     2.894587  s :     2.894587
      pz      :     0.988162  p :     3.096490
      px      :     1.057561
      py      :     1.050767
      dz2     :     0.008194  d :     0.092210
      dxz     :     0.018199
      dyz     :     0.013161
      dx2y2   :     0.029193
      dxy     :     0.023464

  1 C s       :     2.847271  s :     2.847271
      pz      :     0.986270  p :     3.059931
      px      :     1.035330
      py      :     1.038331
      dz2     :     0.014309  d :     0.110156
      dxz     :     0.016646
      dyz     :     0.015976
      dx2y2   :     0.030574
      dxy     :     0.032650

  2 C s       :     2.899371  s :     2.899371
      pz      :     0.984480  p :     3.081907
      px      :     1.078838
      py      :     1.018589
      dz2     :     0.008558  d :     0.092233
      dxz     :     0.017119
      dyz     :     0.014746
      dx2y2   :     0.027781
      dxy     :     0.024030

  3 C s       :     2.892337  s :     2.892337
      pz      :     0.993965  p :     3.119588
      px      :     1.071668
      py      :     1.053955
      dz2     :     0.008392  d :     0.092559
      dxz     :     0.017528
      dyz     :     0.013165
      dx2y2   :     0.029022
      dxy     :     0.024451

  4 C s       :     2.904665  s :     2.904665
      pz      :     0.930915  p :     3.044961
      px      :     1.077037
      py      :     1.037010
      dz2     :     0.012670  d :     0.092294
      dxz     :     0.013419
      dyz     :     0.014563
      dx2y2   :     0.023245
      dxy     :     0.028396

  5 C s       :     2.894026  s :     2.894026
      pz      :     0.985585  p :     3.107195
      px      :     1.072552
      py      :     1.049058
      dz2     :     0.008455  d :     0.092394
      dxz     :     0.016242
      dyz     :     0.014464
      dx2y2   :     0.026214
      dxy     :     0.027018

  6 H s       :     0.843550  s :     0.843550

  7 H s       :     0.841567  s :     0.841567

  8 H s       :     0.844295  s :     0.844295

  9 H s       :     0.846451  s :     0.846451

 10 C s       :     2.857939  s :     2.857939
      pz      :     0.852618  p :     3.003714
      px      :     1.054867
      py      :     1.096229
      dz2     :     0.007599  d :     0.114033
      dxz     :     0.011802
      dyz     :     0.012911
      dx2y2   :     0.039123
      dxy     :     0.042599

 11 C s       :     2.981635  s :     2.981635
      pz      :     0.786126  p :     3.014215
      px      :     1.128516
      py      :     1.099573
      dz2     :     0.006954  d :     0.068187
      dxz     :     0.000122
      dyz     :     0.007978
      dx2y2   :     0.021126
      dxy     :     0.032007

 12 H s       :     0.838668  s :     0.838668

 13 H s       :     0.838666  s :     0.838666

 14 C s       :     2.847271  s :     2.847271
      pz      :     0.986268  p :     3.059927
      px      :     1.035332
      py      :     1.038327
      dz2     :     0.014309  d :     0.110155
      dxz     :     0.016646
      dyz     :     0.015976
      dx2y2   :     0.030574
      dxy     :     0.032651

 15 C s       :     2.894586  s :     2.894586
      pz      :     0.988162  p :     3.096488
      px      :     1.057559
      py      :     1.050767
      dz2     :     0.008194  d :     0.092210
      dxz     :     0.018199
      dyz     :     0.013162
      dx2y2   :     0.029192
      dxy     :     0.023464

 16 C s       :     2.894026  s :     2.894026
      pz      :     0.985587  p :     3.107194
      px      :     1.072551
      py      :     1.049056
      dz2     :     0.008455  d :     0.092394
      dxz     :     0.016243
      dyz     :     0.014464
      dx2y2   :     0.026215
      dxy     :     0.027017

 17 C s       :     2.904667  s :     2.904667
      pz      :     0.930913  p :     3.044955
      px      :     1.077035
      py      :     1.037007
      dz2     :     0.012670  d :     0.092293
      dxz     :     0.013420
      dyz     :     0.014563
      dx2y2   :     0.023245
      dxy     :     0.028396

 18 C s       :     2.892335  s :     2.892335
      pz      :     0.993967  p :     3.119589
      px      :     1.071668
      py      :     1.053953
      dz2     :     0.008393  d :     0.092559
      dxz     :     0.017529
      dyz     :     0.013166
      dx2y2   :     0.029021
      dxy     :     0.024450

 19 C s       :     2.899372  s :     2.899372
      pz      :     0.984481  p :     3.081904
      px      :     1.078838
      py      :     1.018586
      dz2     :     0.008558  d :     0.092233
      dxz     :     0.017120
      dyz     :     0.014746
      dx2y2   :     0.027781
      dxy     :     0.024029

 20 H s       :     0.846449  s :     0.846449

 21 H s       :     0.844295  s :     0.844295

 22 H s       :     0.841566  s :     0.841566

 23 H s       :     0.843549  s :     0.843549

 24 H s       :     0.851444  s :     0.851444

 25 H s       :     0.851445  s :     0.851445


SPIN
  0 C s       :     0.000644  s :     0.000644
      pz      :     0.022785  p :     0.032982
      px      :     0.003982
      py      :     0.006215
      dz2     :     0.000306  d :     0.000948
      dxz     :     0.000221
      dyz     :    -0.000138
      dx2y2   :    -0.000050
      dxy     :     0.000610

  1 C s       :     0.002748  s :     0.002748
      pz      :     0.060917  p :     0.082921
      px      :     0.007710
      py      :     0.014294
      dz2     :     0.000342  d :     0.000487
      dxz     :    -0.000009
      dyz     :     0.000140
      dx2y2   :     0.000003
      dxy     :     0.000011

  2 C s       :     0.001540  s :     0.001540
      pz      :     0.030682  p :     0.064890
      px      :     0.011872
      py      :     0.022336
      dz2     :     0.000559  d :     0.000385
      dxz     :    -0.000355
      dyz     :     0.000138
      dx2y2   :     0.000114
      dxy     :    -0.000071

  3 C s       :    -0.001859  s :    -0.001859
      pz      :    -0.018884  p :    -0.030048
      px      :    -0.004128
      py      :    -0.007035
      dz2     :     0.000585  d :     0.003183
      dxz     :     0.000921
      dyz     :     0.000132
      dx2y2   :     0.000655
      dxy     :     0.000891

  4 C s       :     0.004526  s :     0.004526
      pz      :     0.084439  p :     0.122935
      px      :     0.008843
      py      :     0.029652
      dz2     :    -0.000388  d :    -0.001232
      dxz     :    -0.000225
      dyz     :    -0.000290
      dx2y2   :    -0.000138
      dxy     :    -0.000190

  5 C s       :    -0.000922  s :    -0.000922
      pz      :    -0.005035  p :    -0.007913
      px      :     0.000739
      py      :    -0.003617
      dz2     :     0.000676  d :     0.002404
      dxz     :     0.000321
      dyz     :     0.000702
      dx2y2   :     0.000617
      dxy     :     0.000087

  6 H s       :     0.000199  s :     0.000199

  7 H s       :    -0.003521  s :    -0.003521

  8 H s       :     0.000990  s :     0.000990

  9 H s       :    -0.001218  s :    -0.001218

 10 C s       :    -0.003475  s :    -0.003475
      pz      :    -0.027200  p :    -0.036431
      px      :    -0.002224
      py      :    -0.007008
      dz2     :     0.000147  d :     0.011478
      dxz     :    -0.000443
      dyz     :     0.010772
      dx2y2   :     0.000494
      dxy     :     0.000507

 11 C s       :     0.018318  s :     0.018318
      pz      :     0.470778  p :     0.490987
      px      :     0.012460
      py      :     0.007750
      dz2     :    -0.001918  d :    -0.003082
      dxz     :    -0.000016
      dyz     :    -0.000433
      dx2y2   :    -0.000344
      dxy     :    -0.000371

 12 H s       :    -0.013056  s :    -0.013056

 13 H s       :    -0.013057  s :    -0.013057

 14 C s       :     0.002748  s :     0.002748
      pz      :     0.060920  p :     0.082925
      px      :     0.007710
      py      :     0.014295
[...]
  9:    131.80   0.001212    6.13  0.002871  ( 0.032604  0.000002  0.042519)
 10:    219.25   0.000090    0.45  0.000128  (-0.000005 -0.011300  0.000000)
 11:    253.11   0.000139    0.70  0.000172  ( 0.010370 -0.000003  0.008010)
 12:    306.20   0.000003    0.02  0.000003  ( 0.000004  0.001815 -0.000002)
 13:    345.21   0.004436   22.42  0.004010  (-0.063230 -0.000005  0.003424)
 14:    402.05   0.004007   20.25  0.003110  ( 0.055743 -0.000000 -0.001742)
 15:    412.89   0.000054    0.27  0.000041  (-0.000007 -0.006387  0.000001)
 16:    436.24   0.002679   13.54  0.001917  ( 0.040774 -0.000034  0.015940)
 17:    437.20   0.000028    0.14  0.000020  ( 0.000348  0.004447  0.000136)
 18:    519.56   0.000052    0.26  0.000031  (-0.000014  0.005590  0.000001)
 19:    564.94   0.001200    6.06  0.000663  ( 0.000064 -0.025742 -0.000008)
 20:    594.41   0.006281   31.74  0.003297  ( 0.056576  0.000022 -0.009819)
 21:    612.50   0.000113    0.57  0.000057  ( 0.001496  0.000038 -0.007423)
 22:    613.34   0.000116    0.59  0.000059  ( 0.000004  0.007695  0.000034)
 23:    626.43   0.004220   21.33  0.002102  (-0.044262 -0.000001  0.011960)
 24:    697.03   0.002752   13.91  0.001232  ( 0.000008  0.035101 -0.000047)
 25:    704.29   0.011897   60.12  0.005271  ( 0.007795 -0.000020 -0.072184)
 26:    740.54   0.000092    0.46  0.000039  (-0.000006 -0.006224  0.000009)
 27:    804.78   0.002002   10.12  0.000776  ( 0.000004  0.027862  0.000002)
 28:    812.91   0.012472   63.03  0.004788  (-0.046750  0.000004  0.051013)
 29:    853.83   0.000432    2.18  0.000158  (-0.012470 -0.000010  0.001514)
 30:    855.30   0.008272   41.80  0.003018  ( 0.054922 -0.000068 -0.001301)
 31:    855.82   0.000141    0.71  0.000051  (-0.000500 -0.007151  0.000013)
 32:    942.17   0.008437   42.64  0.002795  ( 0.039273  0.000002 -0.035385)
 33:    975.75   0.000007    0.03  0.000002  ( 0.000001 -0.001450 -0.000002)
 34:    976.90   0.000038    0.19  0.000012  (-0.000719  0.000002 -0.003411)
 35:   1008.17   0.014430   72.93  0.004467  ( 0.066820  0.000007 -0.001314)
 36:   1011.29   0.000170    0.86  0.000052  (-0.000058  0.007235  0.000004)
 37:   1016.11   0.000186    0.94  0.000057  (-0.007320 -0.000004 -0.001853)
 38:   1016.31   0.000014    0.07  0.000004  (-0.000002  0.002066 -0.000012)
 39:   1044.19   0.019023   96.13  0.005685  ( 0.075399 -0.000025  0.000247)
 40:   1044.71   0.000164    0.83  0.000049  ( 0.000379  0.006998 -0.000025)
 41:   1045.62   0.001911    9.66  0.000570  (-0.023480  0.000043  0.004370)
 42:   1053.53   0.000238    1.20  0.000070  ( 0.000063  0.008389 -0.000005)
 43:   1073.90   0.011170   56.45  0.003246  (-0.056874  0.000010  0.003363)
 44:   1125.68   0.000673    3.40  0.000187  (-0.000168 -0.013660 -0.000078)
 45:   1128.95   0.004930   24.92  0.001363  ( 0.034134 -0.000071  0.014061)
 46:   1181.29   0.002398   12.12  0.000634  (-0.000020 -0.025171  0.000010)
 47:   1183.89   0.000163    0.82  0.000043  ( 0.003614  0.000038  0.005463)
 48:   1186.82   0.002839   14.35  0.000747  (-0.000049  0.027324  0.000004)
 49:   1205.12   0.020617  104.19  0.005339  (-0.072972 -0.000027  0.003729)
 50:   1214.30   0.000419    2.12  0.000108  ( 0.000113 -0.010380 -0.000004)
 51:   1328.08   0.002502   12.64  0.000588  (-0.022709  0.000039  0.008498)
 52:   1332.19   0.001151    5.82  0.000270  ( 0.000063  0.016423 -0.000022)
 53:   1394.02   0.001431    7.23  0.000320  (-0.000065 -0.017900 -0.000001)
 54:   1410.27   0.020826  105.25  0.004608  ( 0.067852 -0.000008  0.002094)
 55:   1429.52   0.004328   21.87  0.000945  (-0.000009 -0.030739  0.000002)
 56:   1432.95   0.015035   75.98  0.003274  ( 0.055461 -0.000015 -0.014084)
 57:   1487.79   0.001391    7.03  0.000292  (-0.000020  0.017081  0.000011)
 58:   1493.67   0.005767   29.15  0.001205  (-0.024755  0.000014 -0.024333)
 59:   1519.48   0.003893   19.67  0.000800  ( 0.000088  0.028276  0.000000)
 60:   1540.17   0.029406  148.61  0.005958  ( 0.077188 -0.000007  0.000473)
 61:   1544.94   0.000035    0.17  0.000007  ( 0.000369 -0.002618  0.000001)
 62:   1610.54   0.002501   12.64  0.000485  ( 0.021841 -0.000018  0.002744)
 63:   1611.09   0.000218    1.10  0.000042  ( 0.000056  0.006500  0.000006)
 64:   1652.52   0.217934  1101.35  0.041155  (-0.202693  0.000007  0.008392)
 65:   1694.06   0.005428   27.43  0.001000  ( 0.000022  0.031620  0.000000)
 66:   3188.26   0.000921    4.65  0.000090  ( 0.000015  0.009493  0.000001)
 67:   3215.31   0.000483    2.44  0.000047  ( 0.006846 -0.000023 -0.000134)
 68:   3215.86   0.000011    0.06  0.000001  ( 0.000070  0.001050 -0.000002)
 69:   3218.86   0.000029    0.15  0.000003  (-0.001478  0.000021 -0.000813)
 70:   3219.84   0.000048    0.24  0.000005  (-0.000018 -0.002154 -0.000005)
 71:   3224.71   0.001052    5.32  0.000102  ( 0.010080 -0.000011 -0.000486)
 72:   3225.42   0.000005    0.03  0.000001  ( 0.000053  0.000718 -0.000003)
 73:   3233.92   0.000154    0.78  0.000015  (-0.002743  0.000195 -0.002701)
 74:   3234.13   0.000153    0.77  0.000015  (-0.000131 -0.003840 -0.000134)
 75:   3239.21   0.000287    1.45  0.000028  ( 0.005238 -0.000018 -0.000424)
 76:   3239.40   0.000026    0.13  0.000002  ( 0.000073  0.001569 -0.000002)
 77:   3290.74   0.000102    0.51  0.000010  (-0.002952  0.000004  0.000973)

* The epsilon (eps) is given for a Dirac delta lineshape.
** The dipole moment derivative (T) already includes vibrational overlap.

The first frequency considered to be a vibration is 6
The total number of vibrations considered is 72


--------------------------
THERMOCHEMISTRY AT 298.15K
--------------------------

Temperature         ...   298.15 K
Pressure            ...     1.00 atm
Total Mass          ...   180.25 AMU
Quasi RRHO          ...     True
Cut-Off Frequency   ...     1.00 cm^-1

Throughout the following assumptions are being made:
  (1) The electronic state is orbitally nondegenerate
      but the spin degeneracy is treated
  (2) There are no thermally accessible electronically excited states
  (3) Hindered rotations indicated by low frequency modes are not
      treated as such but are treated as vibrations and this may
      cause some error
  (4) All equations used are the standard statistical mechanics
      equations for an ideal gas
  (5) All vibrations are strictly harmonic

freq.      60.09  E(vib)   ...       0.51 
freq.      74.58  E(vib)   ...       0.49 
freq.      86.40  E(vib)   ...       0.48 
freq.     131.80  E(vib)   ...       0.42 
freq.     219.25  E(vib)   ...       0.33 
freq.     253.11  E(vib)   ...       0.30 
freq.     306.20  E(vib)   ...       0.26 
freq.     345.21  E(vib)   ...       0.23 
freq.     402.05  E(vib)   ...       0.19 
freq.     412.89  E(vib)   ...       0.19 
freq.     436.24  E(vib)   ...       0.17 
freq.     437.20  E(vib)   ...       0.17 
freq.     519.56  E(vib)   ...       0.13 
freq.     564.94  E(vib)   ...       0.11 
freq.     594.41  E(vib)   ...       0.10 
freq.     612.50  E(vib)   ...       0.10 
freq.     613.34  E(vib)   ...       0.10 
freq.     626.43  E(vib)   ...       0.09 
freq.     697.03  E(vib)   ...       0.07 
freq.     704.29  E(vib)   ...       0.07 
freq.     740.54  E(vib)   ...       0.06 
freq.     804.78  E(vib)   ...       0.05 
freq.     812.91  E(vib)   ...       0.05 
freq.     853.83  E(vib)   ...       0.04 
freq.     855.30  E(vib)   ...       0.04 
freq.     855.82  E(vib)   ...       0.04 
freq.     942.17  E(vib)   ...       0.03 
freq.     975.75  E(vib)   ...       0.03 
freq.     976.90  E(vib)   ...       0.03 
freq.    1008.17  E(vib)   ...       0.02 
freq.    1011.29  E(vib)   ...       0.02 
freq.    1016.11  E(vib)   ...       0.02 
freq.    1016.31  E(vib)   ...       0.02 
freq.    1044.19  E(vib)   ...       0.02 
freq.    1044.71  E(vib)   ...       0.02 
freq.    1045.62  E(vib)   ...       0.02 
freq.    1053.53  E(vib)   ...       0.02 
freq.    1073.90  E(vib)   ...       0.02 
freq.    1125.68  E(vib)   ...       0.01 
freq.    1128.95  E(vib)   ...       0.01 
freq.    1181.29  E(vib)   ...       0.01 
freq.    1183.89  E(vib)   ...       0.01 
freq.    1186.82  E(vib)   ...       0.01 
freq.    1205.12  E(vib)   ...       0.01 
freq.    1214.30  E(vib)   ...       0.01 
freq.    1328.08  E(vib)   ...       0.01 
freq.    1332.19  E(vib)   ...       0.01 
freq.    1394.02  E(vib)   ...       0.00 
freq.    1410.27  E(vib)   ...       0.00 
freq.    1429.52  E(vib)   ...       0.00 
freq.    1432.95  E(vib)   ...       0.00 
freq.    1487.79  E(vib)   ...       0.00 
freq.    1493.67  E(vib)   ...       0.00 
freq.    1519.48  E(vib)   ...       0.00 
freq.    1540.17  E(vib)   ...       0.00 
freq.    1544.94  E(vib)   ...       0.00 
freq.    1610.54  E(vib)   ...       0.00 
freq.    1611.09  E(vib)   ...       0.00 
freq.    1652.52  E(vib)   ...       0.00 
freq.    1694.06  E(vib)   ...       0.00 
freq.    3188.26  E(vib)   ...       0.00 
freq.    3215.31  E(vib)   ...       0.00 
freq.    3215.86  E(vib)   ...       0.00 
freq.    3218.86  E(vib)   ...       0.00 
freq.    3219.84  E(vib)   ...       0.00 
freq.    3224.71  E(vib)   ...       0.00 
freq.    3225.42  E(vib)   ...       0.00 
freq.    3233.92  E(vib)   ...       0.00 
freq.    3234.13  E(vib)   ...       0.00 
freq.    3239.21  E(vib)   ...       0.00 
freq.    3239.40  E(vib)   ...       0.00 
freq.    3290.74  E(vib)   ...       0.00 

------------
INNER ENERGY
------------

The inner energy is: U= E(el) + E(ZPE) + E(vib) + E(rot) + E(trans)
    E(el)   - is the total energy from the electronic structure calculation
              = E(kin-el) + E(nuc-el) + E(el-el) + E(nuc-nuc)
    E(ZPE)  - the the zero temperature vibrational energy from the frequency calculation
    E(vib)  - the the finite temperature correction to E(ZPE) due to population
              of excited vibrational states
    E(rot)  - is the rotational thermal energy
    E(trans)- is the translational thermal energy

Summary of contributions to the inner energy U:
Electronic energy                ...   -539.38855601 Eh
Zero point energy                ...      0.21570225 Eh     135.35 kcal/mol
Thermal vibrational correction   ...      0.00828343 Eh       5.20 kcal/mol
Thermal rotational correction    ...      0.00141627 Eh       0.89 kcal/mol
Thermal translational correction ...      0.00141627 Eh       0.89 kcal/mol
-----------------------------------------------------------------------
Total thermal energy                   -539.16173779 Eh


Summary of corrections to the electronic energy:
(perhaps to be used in another calculation)
Total thermal correction                  0.01111597 Eh       6.98 kcal/mol
Non-thermal (ZPE) correction              0.21570225 Eh     135.35 kcal/mol
-----------------------------------------------------------------------
Total correction                          0.22681822 Eh     142.33 kcal/mol


--------
ENTHALPY
--------

The enthalpy is H = U + kB*T
                kB is Boltzmann's constant
Total thermal energy              ...   -539.16173779 Eh 
Thermal Enthalpy correction       ...      0.00094421 Eh       0.59 kcal/mol
-----------------------------------------------------------------------
Total Enthalpy                    ...   -539.16079358 Eh


Note: Rotational entropy computed according to Herzberg 
Infrared and Raman Spectra, Chapter V,1, Van Nostrand Reinhold, 1945 
Point Group:  C2, Symmetry Number:   2  
Rotational constants in cm-1:     0.053565     0.014254     0.012120 

Vibrational entropy computed according to the QRRHO of S. Grimme
Chem.Eur.J. 2012 18 9955 using a reference frequency of 100.0 cm-1


-------
ENTROPY
-------

The entropy contributions are T*S = T*(S(el)+S(vib)+S(rot)+S(trans))
     S(el)   - electronic entropy
     S(vib)  - vibrational entropy
     S(rot)  - rotational entropy
     S(trans)- translational entropy
The entropies will be listed as multiplied by the temperature to get
units of energy

Electronic entropy                ...      0.00065446 Eh      0.41 kcal/mol
Vibrational entropy               ...      0.01375984 Eh      8.63 kcal/mol
Rotational entropy                ...      0.01432813 Eh      8.99 kcal/mol
Translational entropy             ...      0.01970567 Eh     12.37 kcal/mol
-----------------------------------------------------------------------
Final entropy term                ...      0.04844810 Eh     30.40 kcal/mol

In case the symmetry of your molecule has not been determined correctly
or in case you have a reason to use a different symmetry number we print 
out the resulting rotational entropy values for sn=1,12:

 non-linear molecules -----------------------------------
|  sn= 1 | S(rot)=       0.01498258 Eh      9.40 kcal/mol|
|  sn= 2 | S(rot)=       0.01432813 Eh      8.99 kcal/mol|
|  sn= 3 | S(rot)=       0.01394530 Eh      8.75 kcal/mol|
|  sn= 4 | S(rot)=       0.01367367 Eh      8.58 kcal/mol|
|  sn= 5 | S(rot)=       0.01346298 Eh      8.45 kcal/mol|
|  sn= 6 | S(rot)=       0.01329084 Eh      8.34 kcal/mol|
|  sn= 7 | S(rot)=       0.01314529 Eh      8.25 kcal/mol|
|  sn= 8 | S(rot)=       0.01301922 Eh      8.17 kcal/mol|
|  sn= 9 | S(rot)=       0.01290801 Eh      8.10 kcal/mol|
|  sn=10 | S(rot)=       0.01280853 Eh      8.04 kcal/mol|
|  sn=11 | S(rot)=       0.01271854 Eh      7.98 kcal/mol|
|  sn=12 | S(rot)=       0.01263638 Eh      7.93 kcal/mol|
 linear molecules ---------------------------------------
|  Dinfh | S(rot)=       0.00949241 Eh      5.96 kcal/mol|
|  Cinfv | S(rot)=       0.01014687 Eh      6.37 kcal/mol|
 --------------------------------------------------------


-------------------
GIBBS FREE ENERGY
-------------------

The Gibbs free energy is G = H - T*S

Total enthalpy                    ...   -539.16079358 Eh 
Total entropy correction          ...     -0.04844810 Eh    -30.40 kcal/mol
-----------------------------------------------------------------------
Final Gibbs free energy         ...   -539.20924168 Eh

For completeness - the Gibbs free energy minus the electronic energy
G-E(el)                           ...      0.17931433 Eh    112.52 kcal/mol


Maximum memory used throughout the entire PROP-calculation: 165.1 MB

--------------------------------
SUGGESTED CITATIONS FOR THIS RUN
--------------------------------

Below you find a list of papers that are relevant to this ORCA run
We neither can nor want to force you to cite these papers, but we appreciate if you do
You receive ORCA, which is the product of decades of hard work by many enthusiastic individuals, for free
The only thing we kindly ask in return is that you cite our papers,
We deeply appreciate it, if you show your appreciation for ORCA by not just citing the generic ORCA reference.

Please note that relegating all ORCA citations to the supporting information does *not* help us.
SI sections are not indexed - citations you put there will not count into any citation statistics
But we need these citations in order to attract the funding resources that allow us to do what we are doing

Therefore, if you are a happy ORCA user, please consider citing a few of the papers listed below in the main body of your paper

In addition to the list printed below, the program has created the file cs_rporg_015_ox_opt_01.bibtex that contains the list in bibtex format
You can import this file easily into all common literature databanks and citation aid programs


List of essential papers. We consider these as the minimum necessary citations

  1. Neese,F.
     Software update: the ORCA program system, version 5.0
     WIRES Comput. Molec. Sci., 2022 12(1)e1606
     doi.org/10.1002/wcms.1606

List of papers to cite with high priority. The work reported in these papers was absolutely
necessary for this run to complete.
Our perspective: the developers of density functionals and basis sets usually get cited in chemistry papers
Good! But without the algorithms to do something with them, the functionals or basis sets would not do anything.
Hence, in our opinion, the algorithm design and method developments papers are equally worthy of getting cited

  1. Neese,F.
     An improvement of the resolution of the identity approximation for the formation of the Coulomb matrix
     J. Comp. Chem., 2003 24(14)1740-1747
     doi.org/10.1002/jcc.10318
  2. Neese,F.; Wennmohs,F.; Hansen,A.; Becker,U.
     Efficient, approximate and parallel Hartree-Fock and hybrid DFT calculations. A 'chain-of-spheres' algorithm for the Hartree-Fock exchange
     Chem. Phys., 2009 356(1-3)98-109
     doi.org/10.1016/j.chemphys.2008.10.036
  3. Bykov,D.; Petrenko,T.; Izsak,R.; Kossmann,S.; Becker,U.; Valeev,E.; Neese,F.
     Efficient implementation of the analytic second derivatives of Hartree-Fock and hybrid DFT energies: a detailed analysis of different approximations
     Molec. Phys., 2015 113 1961-1977
     doi.org/10.1080/00268976.2015.1025114
  4. Helmich-Paris,B.; de Souza,B.; Neese,F.; Izsák,R.
     An improved chain of spheres for exchange algorithm
     J. Chem. Phys., 2021 155 104109
     doi.org/doi: 10.1063/5.0058766.
  5. Neese,F.
     The SHARK Integral Generation and Digestion System
     J. Comp. Chem., 2022  1-16
     doi.org/10.1002/jcc.26942
  6. Grimme,S.; Antony,J.; Ehrlich,S.; Krieg,H.
     A consistent and accurate ab initio parametrization of density functional dispersion correction (DFT-D) for the 94 elements H-Pu
     J. Chem. Phys., 2010 132 154104-XXXX
     doi.org/10.1063/1.3382344
  7. Grimme,S.; Ehrlich,S.; Goerigk,L.
     Effect of the damping function in dispersion corrected density functional theory
     J. Comput. Chem., 2011 32(7)1456-1465
     doi.org/10.1002/jcc.21759

List of suggested additional citations. These are papers that are important in the 'surrounding' of 
of this run, or papers that preceded the highly important papers. If you like your results we are grateful for a citation.

  1. Izsak,R.; Neese,F.
     An overlap fitted chain of spheres exchange method
     J. Chem. Phys., 2011 135 144105
     doi.org/10.1063/1.3646921
  2. Izsak,R.; Hansen,A.; Neese,F.
     The resolution of identity and chain of spheres approximations for the LPNO-CCSD singles Fock term
     Molec. Phys., 2012 110 2413-2417
     doi.org/10.1080/00268976.2012.687466
  3. Neese,F.
     The ORCA program system
     WIRES Comput. Molec. Sci., 2012 2(1)73-78
     doi.org/10.1002/wcms.81
  4. Izsak,R.; Neese,F.; Klopper,W.
     Robust fitting techniques in the chain of spheres approximation to the Fock exchange: The role of the complementary space
     J. Chem. Phys., 2013 139 
     doi.org/10.1063/1.4819264
  5. Neese,F.
     Software update: the ORCA program system, version 4.0
     WIRES Comput. Molec. Sci., 2018 8(1)1-6
     doi.org/10.1002/wcms.1327
  6. Neese,F.; Wennmohs,F.; Becker,U.; Riplinger,C.
     The ORCA quantum chemistry program package
     J. Chem. Phys., 2020 152 Art. No. L224108
     doi.org/10.1063/5.0004608

List of optional additional citations

  1. Neese,F.
     Approximate second-order SCF convergence for spin unrestricted wavefunctions
     Chem. Phys. Lett., 2000 325(1-3)93-98
     doi.org/10.1016/s0009-2614(00)00662-x

Timings for individual modules:

Sum of individual times          ...      953.702 sec (=  15.895 min)
Startup calculation              ...       27.314 sec (=   0.455 min)   2.9 %
SCF iterations                   ...      300.002 sec (=   5.000 min)  31.5 %
Property integrals               ...      129.149 sec (=   2.152 min)  13.5 %
SCF Response                     ...      232.570 sec (=   3.876 min)  24.4 %
Property calculations            ...      162.927 sec (=   2.715 min)  17.1 %
SCF Gradient evaluation          ...      101.251 sec (=   1.688 min)  10.6 %
Geometry relaxation              ...        0.489 sec (=   0.008 min)   0.1 %
                             ****ORCA TERMINATED NORMALLY****
TOTAL RUN TIME: 0 days 0 hours 16 minutes 11 seconds 178 msec
