 vasp.6.3.2 27Jun22 (build Oct 25 2024 11:36:28) complex                        
  
 executed on             LinuxIFC date 2024.12.19  21:49:39
 running on   80 total cores
 distrk:  each k-point on   80 cores,    1 groups
 distr:  one band on NCORE=  10 cores,    8 groups


--------------------------------------------------------------------------------------------------------


 INCAR:
   SYSTEM = 063_red
   ISTART = 1
   ICHARG = 2
   INIWAV = 1
   NELM = 100
   ALGO = fast   	
   ISPIN = 2
   EDIFF = 1E-05
   ISMEAR = 0
   SIGMA = 0.05
   PREC = accurate
   ENCUT = 500
   LREAL = auto  	
   LWAVE = .TRUE.
   LCHARG = .FALSE.
   LAECHG = .FALSE.
   LVHAR = .FALSE.
   LVTOT = .FALSE.
   EDIFFG = -0.02
   IBRION = 2
   NSW = 500
   ISIF = 2
   POTIM = 0.5
   IVDW = 11
   LPLANE = .TRUE.
   NCORE = 10
   LSCALU = .FALSE.
   NSIM = 4
   LSOL = .TRUE.
   ISOL = 2
   R_SOLV = 2.1900
   EPSILON_INF = 1.8069
   N_MOL = 0.0115
   P_MOL = 0.82
   EB_K = 35.6880

 POTCAR:    PAW_PBE C 08Apr2002                   
 POTCAR:    PAW_PBE N 08Apr2002                   
 POTCAR:    PAW_PBE H 15Jun2001                   
 -----------------------------------------------------------------------------
|                                                                             |
|           W    W    AA    RRRRR   N    N  II  N    N   GGGG   !!!           |
|           W    W   A  A   R    R  NN   N  II  NN   N  G    G  !!!           |
|           W    W  A    A  R    R  N N  N  II  N N  N  G       !!!           |
|           W WW W  AAAAAA  RRRRR   N  N N  II  N  N N  G  GGG   !            |
|           WW  WW  A    A  R   R   N   NN  II  N   NN  G    G                |
|           W    W  A    A  R    R  N    N  II  N    N   GGGG   !!!           |
|                                                                             |
|     You use a magnetic or noncollinear calculation, but did not specify     |
|     the initial magnetic moment with the MAGMOM tag. Note that a            |
|     default of 1 will be used for all atoms. This ferromagnetic setup       |
|     may break the symmetry of the crystal, in particular it may rule        |
|     out finding an antiferromagnetic solution. Thence, we recommend         |
|     setting the initial magnetic moment manually or verifying carefully     |
|     that this magnetic setup is desired.                                    |
|                                                                             |
 -----------------------------------------------------------------------------

 POTCAR:    PAW_PBE C 08Apr2002                   
   SHA256 =  253f7b50bb8d59471dbedb8285d89021f4a42ed1a2c5d38a03a736e69125dd95 C/POTCAR              
   COPYR  = (c) Copyright 08Apr2002 Georg Kresse                                                    
   COPYR  = This file is part of the software VASP. Any use, copying, and all other rights are regul
   COPYR  = If you do not have a valid VASP license, you may not use, copy or distribute this file. 
   VRHFIN =C: s2p2                                                                                  
   LEXCH  = PE                                                                                      
   EATOM  =   147.1560 eV,   10.8157 Ry                                                             
                                                                                                    
   TITEL  = PAW_PBE C 08Apr2002                                                                     
   LULTRA =        F    use ultrasoft PP ?                                                          
   IUNSCR =        1    unscreen: 0-lin 1-nonlin 2-no                                               
   RPACOR =    1.200    partial core radius                                                         
   POMASS =   12.011; ZVAL   =    4.000    mass and valenz                                          
   RCORE  =    1.500    outmost cutoff radius                                                       
   RWIGS  =    1.630; RWIGS  =    0.863    wigner-seitz radius (au A)                               
   ENMAX  =  400.000; ENMIN  =  300.000 eV                                                          
   ICORE  =        2    local potential                                                             
   LCOR   =        T    correct aug charges                                                         
   LPAW   =        T    paw PP                                                                      
   EAUG   =  644.873                                                                                
   DEXC   =    0.000                                                                                
   RMAX   =    1.529    core radius for proj-oper                                                   
   RAUG   =    1.300    factor for augmentation sphere                                              
   RDEP   =    1.501    radius for radial grids                                                     
   RDEPT  =    1.300    core radius for aug-charge                                                  
                                                                                                    
   Atomic configuration                                                                             
    4 entries                                                                                       
     n  l   j            E        occ.                                                              
     1  0  0.50      -273.3789   2.0000                                                             
     2  0  0.50       -13.7508   2.0000                                                             
     2  1  0.50        -5.2854   2.0000                                                             
     3  2  1.50        -5.4423   0.0000                                                             
   Description                                                                                      
     l       E           TYP  RCUT    TYP  RCUT                                                     
     0    -13.7508458     23  1.200                                                                 
     0     -8.2022199     23  1.200                                                                 
     1     -5.2854383     23  1.500                                                                 
     1     34.0145650     23  1.500                                                                 
     2     -5.4423304      7  1.500                                                                 
  local pseudopotential read in
  partial core-charges read in
  partial kinetic energy density read in
  atomic valenz-charges read in
  non local Contribution for L=           0  read in
    real space projection operators read in
  non local Contribution for L=           0  read in
    real space projection operators read in
  non local Contribution for L=           1  read in
    real space projection operators read in
  non local Contribution for L=           1  read in
    real space projection operators read in
    PAW grid and wavefunctions read in
 
   number of l-projection  operators is LMAX  =           4
   number of lm-projection operators is LMMAX =           8
 
 POTCAR:    PAW_PBE N 08Apr2002                   
   SHA256 =  e053789ff3a61a86a1b75d8a110fcc91f86041011e7b0817c7c99e4e8a6349d7 N/POTCAR              
   COPYR  = (c) Copyright 08Apr2002 Georg Kresse                                                    
   COPYR  = This file is part of the software VASP. Any use, copying, and all other rights are regul
   COPYR  = If you do not have a valid VASP license, you may not use, copy or distribute this file. 
   VRHFIN =N: s2p3                                                                                  
   LEXCH  = PE                                                                                      
   EATOM  =   264.5486 eV,   19.4438 Ry                                                             
                                                                                                    
   TITEL  = PAW_PBE N 08Apr2002                                                                     
   LULTRA =        F    use ultrasoft PP ?                                                          
   IUNSCR =        1    unscreen: 0-lin 1-nonlin 2-no                                               
   RPACOR =    1.200    partial core radius                                                         
   POMASS =   14.001; ZVAL   =    5.000    mass and valenz                                          
   RCORE  =    1.500    outmost cutoff radius                                                       
   RWIGS  =    1.400; RWIGS  =    0.741    wigner-seitz radius (au A)                               
   ENMAX  =  400.000; ENMIN  =  300.000 eV                                                          
   ICORE  =        2    local potential                                                             
   LCOR   =        T    correct aug charges                                                         
   LPAW   =        T    paw PP                                                                      
   EAUG   =  627.112                                                                                
   DEXC   =    0.000                                                                                
   RMAX   =    1.529    core radius for proj-oper                                                   
   RAUG   =    1.300    factor for augmentation sphere                                              
   RDEP   =    1.514    radius for radial grids                                                     
   RDEPT  =    1.338    core radius for aug-charge                                                  
                                                                                                    
   Atomic configuration                                                                             
    4 entries                                                                                       
     n  l   j            E        occ.                                                              
     1  0  0.50      -384.7179   2.0000                                                             
     2  0  0.50       -18.5828   2.0000                                                             
     2  1  0.50        -7.0898   3.0000                                                             
     3  2  1.50        -6.8029   0.0000                                                             
   Description                                                                                      
     l       E           TYP  RCUT    TYP  RCUT                                                     
     0    -18.5828119     23  1.200                                                                 
     0    -13.5018863     23  1.200                                                                 
     1     -7.0897853     23  1.500                                                                 
     1      9.5240782     23  1.500                                                                 
     2     -6.8029130      7  1.500                                                                 
  local pseudopotential read in
  partial core-charges read in
  partial kinetic energy density read in
  atomic valenz-charges read in
  non local Contribution for L=           0  read in
    real space projection operators read in
  non local Contribution for L=           0  read in
    real space projection operators read in
  non local Contribution for L=           1  read in
    real space projection operators read in
  non local Contribution for L=           1  read in
    real space projection operators read in
    PAW grid and wavefunctions read in
 
   number of l-projection  operators is LMAX  =           4
   number of lm-projection operators is LMMAX =           8
 
 POTCAR:    PAW_PBE H 15Jun2001                   
   SHA256 =  030f79b5d3ab3cf0e668861823c8fb652ff669f3e15e46930bd03bfd63a607b6 H/POTCAR              
   COPYR  = (c) Copyright 15Jun2001 Georg Kresse                                                    
   COPYR  = This file is part of the software VASP. Any use, copying, and all other rights are regul
   COPYR  = If you do not have a valid VASP license, you may not use, copy or distribute this file. 
   VRHFIN =H: ultrasoft test                                                                        
   LEXCH  = PE                                                                                      
   EATOM  =    12.4884 eV,    0.9179 Ry                                                             
                                                                                                    
   TITEL  = PAW_PBE H 15Jun2001                                                                     
   LULTRA =        F    use ultrasoft PP ?                                                          
   IUNSCR =        0    unscreen: 0-lin 1-nonlin 2-no                                               
   RPACOR =    0.000    partial core radius                                                         
   POMASS =    1.000; ZVAL   =    1.000    mass and valenz                                          
   RCORE  =    1.100    outmost cutoff radius                                                       
   RWIGS  =    0.700; RWIGS  =    0.370    wigner-seitz radius (au A)                               
   ENMAX  =  250.000; ENMIN  =  200.000 eV                                                          
   RCLOC  =    0.701    cutoff for local pot                                                        
   LCOR   =        T    correct aug charges                                                         
   LPAW   =        T    paw PP                                                                      
   EAUG   =  400.000                                                                                
   RMAX   =    1.123    core radius for proj-oper                                                   
   RAUG   =    1.200    factor for augmentation sphere                                              
   RDEP   =    1.112    radius for radial grids                                                     
   RDEPT  =    0.926    core radius for aug-charge                                                  
                                                                                                    
   Atomic configuration                                                                             
    2 entries                                                                                       
     n  l   j            E        occ.                                                              
     1  0  0.50        -6.4927   1.0000                                                             
     2  1  0.50        -3.4015   0.0000                                                             
   Description                                                                                      
     l       E           TYP  RCUT    TYP  RCUT                                                     
     0     -6.4927494     23  1.100                                                                 
     0      6.8029130     23  1.100                                                                 
     1     -4.0817478     23  1.100                                                                 
  local pseudopotential read in
  atomic valenz-charges read in
  non local Contribution for L=           0  read in
    real space projection operators read in
  non local Contribution for L=           0  read in
    real space projection operators read in
  non local Contribution for L=           1  read in
    real space projection operators read in
    PAW grid and wavefunctions read in
 
   number of l-projection  operators is LMAX  =           3
   number of lm-projection operators is LMMAX =           5
 
 Optimization of the real space projectors (new method)

 maximal supplied QI-value         = 25.13
 optimisation between [QCUT,QGAM] = [ 11.31, 22.87] = [ 35.82,146.48] Ry 
 Optimized for a Real-space Cutoff    1.03 Angstroem

   l    n(q)    QCUT    max X(q) W(low)/X(q) W(high)/X(q)  e(spline) 
   0      7    11.310   115.676    0.20E-03    0.90E-03    0.20E-06
   0      7    11.310    87.132    0.20E-03    0.89E-03    0.19E-06
   1      6    11.310     4.429    0.16E-03    0.28E-03    0.12E-06
   1      6    11.310     2.733    0.12E-03    0.21E-03    0.99E-07
 Optimization of the real space projectors (new method)

 maximal supplied QI-value         = 25.13
 optimisation between [QCUT,QGAM] = [ 11.31, 22.87] = [ 35.82,146.48] Ry 
 Optimized for a Real-space Cutoff    1.43 Angstroem

   l    n(q)    QCUT    max X(q) W(low)/X(q) W(high)/X(q)  e(spline) 
   0     10    11.310    79.467    0.42E-04    0.81E-04    0.60E-06
   0     10    11.310    66.151    0.40E-04    0.81E-04    0.60E-06
   1      9    11.310    17.416    0.14E-03    0.88E-04    0.14E-05
   1      9    11.310    12.382    0.15E-03    0.93E-04    0.14E-05
 Optimization of the real space projectors (new method)

 maximal supplied QI-value         = 34.20
 optimisation between [QCUT,QGAM] = [ 11.29, 22.57] = [ 35.68,142.71] Ry 
 Optimized for a Real-space Cutoff    1.20 Angstroem

   l    n(q)    QCUT    max X(q) W(low)/X(q) W(high)/X(q)  e(spline) 
   0      8    11.287    19.460    0.22E-03    0.50E-03    0.19E-06
   0      8    11.287    12.209    0.21E-03    0.48E-03    0.18E-06
   1      8    11.287     4.655    0.21E-03    0.11E-04    0.26E-06
  PAW_PBE C 08Apr2002                   :
 energy of atom  1       EATOM= -147.1560
 kinetic energy error for atom=    0.0076 (will be added to EATOM!!)
  PAW_PBE N 08Apr2002                   :
 energy of atom  2       EATOM= -264.5486
 kinetic energy error for atom=    0.0138 (will be added to EATOM!!)
  PAW_PBE H 15Jun2001                   :
 energy of atom  3       EATOM=  -12.4884
 kinetic energy error for atom=    0.0020 (will be added to EATOM!!)
 
 
 POSCAR: C N H
  positions in direct lattice
  velocities in cartesian coordinates
 exchange correlation table for  LEXCH =        8
   RHO(1)=    0.500       N(1)  =     2000
   RHO(2)=  100.500       N(2)  =     4000
 
 POSCAR: C N H
  positions in direct lattice
  velocities in cartesian coordinates
 
 POSCAR: C N H
  positions in direct lattice
  velocities in cartesian coordinates
 


--------------------------------------------------------------------------------------------------------


 ion  position               nearest neighbor table
   1  0.527  0.469  0.501-  27 1.10  28 1.11   2 1.52   6 1.53
   2  0.510  0.502  0.501-   3 1.37  11 1.38   1 1.52
   3  0.527  0.532  0.500-  18 1.09   2 1.37   4 1.51
   4  0.565  0.534  0.500-  16 1.10  17 1.11   3 1.51   5 1.53
   5  0.581  0.500  0.491-  14 1.10  15 1.10   6 1.53   4 1.53
   6  0.565  0.472  0.510-  12 1.10  13 1.10   5 1.53   1 1.53
   7  0.455  0.531  0.502-  25 1.10  26 1.11  11 1.46   8 1.53
   8  0.419  0.518  0.507-  23 1.10  24 1.10   7 1.53   9 1.53
   9  0.420  0.483  0.489-  21 1.10  22 1.10  10 1.53   8 1.53
  10  0.455  0.470  0.499-  19 1.10  20 1.11  11 1.47   9 1.53
  11  0.475  0.501  0.501-   2 1.38   7 1.46  10 1.47
  12  0.577  0.448  0.506-   6 1.10
  13  0.567  0.477  0.537-   6 1.10
  14  0.608  0.501  0.495-   5 1.10
  15  0.578  0.495  0.464-   5 1.10
  16  0.573  0.553  0.482-   4 1.10
  17  0.574  0.542  0.524-   4 1.11
  18  0.513  0.555  0.500-   3 1.09
  19  0.465  0.453  0.480-  10 1.10
  20  0.454  0.457  0.523-  10 1.11
  21  0.400  0.466  0.497-   9 1.10
  22  0.419  0.486  0.462-   9 1.10
  23  0.400  0.534  0.496-   8 1.10
  24  0.413  0.515  0.533-   8 1.10
  25  0.462  0.548  0.523-   7 1.10
  26  0.457  0.545  0.479-   7 1.11
  27  0.515  0.452  0.519-   1 1.10
  28  0.525  0.457  0.477-   1 1.11
 
  LATTYP: Found a simple cubic cell.
 ALAT       =    40.0000000000
  
  Lattice vectors:
  
 A1 = (  40.0000000000,   0.0000000000,   0.0000000000)
 A2 = (   0.0000000000,  40.0000000000,   0.0000000000)
 A3 = (   0.0000000000,   0.0000000000,  40.0000000000)


Analysis of symmetry for initial positions (statically):
=====================================================================
 Subroutine PRICEL returns:
 Original cell was already a primitive cell.
 

 Routine SETGRP: Setting up the symmetry group for a 
 simple cubic supercell.


 Subroutine GETGRP returns: Found  1 space group operations
 (whereof  1 operations were pure point group operations)
 out of a pool of 48 trial point group operations.


The static configuration has the point symmetry C_1 .


Analysis of symmetry for dynamics (positions and initial velocities):
=====================================================================
 Subroutine PRICEL returns:
 Original cell was already a primitive cell.
 

 Routine SETGRP: Setting up the symmetry group for a 
 simple cubic supercell.


 Subroutine GETGRP returns: Found  1 space group operations
 (whereof  1 operations were pure point group operations)
 out of a pool of 48 trial point group operations.


The dynamic configuration has the point symmetry C_1 .


Analysis of constrained symmetry for selective dynamics:
=====================================================================
 Subroutine PRICEL returns:
 Original cell was already a primitive cell.
 

 Routine SETGRP: Setting up the symmetry group for a 
 simple cubic supercell.


 Subroutine GETGRP returns: Found  1 space group operations
 (whereof  1 operations were pure point group operations)
 out of a pool of 48 trial point group operations.


The constrained configuration has the point symmetry C_1 .


Analysis of structural, dynamic, and magnetic symmetry:
=====================================================================
 Subroutine PRICEL returns:
 Original cell was already a primitive cell.
 

 Routine SETGRP: Setting up the symmetry group for a 
 simple cubic supercell.


 Subroutine GETGRP returns: Found  1 space group operations
 (whereof  1 operations were pure point group operations)
 out of a pool of 48 trial point group operations.


The overall configuration has the point symmetry C_1 .


 Subroutine INISYM returns: Found  1 space group operations
 (whereof  1 operations are pure point group operations),
 and found     1 'primitive' translations


----------------------------------------------------------------------------------------

                                     Primitive cell                                     

  volume of cell :   64000.0000

  direct lattice vectors                    reciprocal lattice vectors
    40.000000000  0.000000000  0.000000000     0.025000000  0.000000000  0.000000000
     0.000000000 40.000000000  0.000000000     0.000000000  0.025000000  0.000000000
     0.000000000  0.000000000 40.000000000     0.000000000  0.000000000  0.025000000

  length of vectors
    40.000000000 40.000000000 40.000000000     0.025000000  0.025000000  0.025000000

  position of ions in fractional coordinates (direct lattice)
     0.527417665  0.468917883  0.501499892
     0.509627521  0.502381557  0.500980245
     0.526937298  0.531784185  0.500222645
     0.564573295  0.533853818  0.499542718
     0.580865347  0.500376798  0.490595420
     0.564504903  0.472085419  0.510420363
     0.454626601  0.531020062  0.502085568
     0.418984375  0.517692688  0.506553979
     0.420428812  0.483376520  0.489469295
     0.455161668  0.470393969  0.499167571
     0.475193734  0.500980031  0.501472563
     0.577168244  0.448103908  0.505783180
     0.566966443  0.477306842  0.537399545
     0.607940903  0.501294795  0.495411344
     0.577610182  0.495484200  0.463632431
     0.572545038  0.553229603  0.481580866
     0.574335051  0.542338950  0.524065660
     0.513263871  0.555404985  0.500218717
     0.465322136  0.452986544  0.480454977
     0.454260588  0.456976047  0.523387333
     0.400356075  0.466381762  0.497280786
     0.418991187  0.486368396  0.462144245
     0.400082229  0.534446838  0.495855225
     0.413483057  0.514661261  0.533356698
     0.462335138  0.547734191  0.522669754
     0.457401679  0.545445596  0.478552813
     0.514894733  0.452141692  0.519396557
     0.524722229  0.456833458  0.476800608

  ion indices of the primitive-cell ions
   primitive index   ion index
                 1           1
                 2           2
                 3           3
                 4           4
                 5           5
                 6           6
                 7           7
                 8           8
                 9           9
                10          10
                11          11
                12          12
                13          13
                14          14
                15          15
                16          16
                17          17
                18          18
                19          19
                20          20
                21          21
                22          22
                23          23
                24          24
                25          25
                26          26
                27          27
                28          28

----------------------------------------------------------------------------------------

 
 
 KPOINTS: K-Point Grid                            

Automatic generation of k-mesh.
 Grid dimensions read from file:
 generate k-points for:    1    1    1

 Generating k-lattice:

  Cartesian coordinates                     Fractional coordinates (reciprocal lattice)
     0.025000000  0.000000000  0.000000000     1.000000000  0.000000000  0.000000000
     0.000000000  0.025000000  0.000000000     0.000000000  1.000000000  0.000000000
     0.000000000  0.000000000  0.025000000     0.000000000  0.000000000  1.000000000

  Length of vectors
     0.025000000  0.025000000  0.025000000

  Shift w.r.t. Gamma in fractional coordinates (k-lattice)
     0.000000000  0.000000000  0.000000000

 
 Subroutine IBZKPT returns following result:
 ===========================================
 
 Found      1 irreducible k-points:
 
 Following reciprocal coordinates:
            Coordinates               Weight
  0.000000  0.000000  0.000000      1.000000
 
 Following cartesian coordinates:
            Coordinates               Weight
  0.000000  0.000000  0.000000      1.000000
 


--------------------------------------------------------------------------------------------------------




 Dimension of arrays:
   k-points           NKPTS =      1   k-points in BZ     NKDIM =      1   number of bands    NBANDS=     64
   number of dos      NEDOS =    301   number of ions     NIONS =     28
   non local maximal  LDIM  =      4   non local SUM 2l+1 LMDIM =      8
   total plane-waves  NPLWV = ******
   max r-space proj   IRMAX =   4928   max aug-charges    IRDMAX=   5085
   dimension x,y,z NGX =   294 NGY =  294 NGZ =  294
   dimension x,y,z NGXF=   588 NGYF=  588 NGZF=  588
   support grid    NGXF=   588 NGYF=  588 NGZF=  588
   ions per type =              10   1  17
   NGX,Y,Z   is equivalent  to a cutoff of  12.22, 12.22, 12.22 a.u.
   NGXF,Y,Z  is equivalent  to a cutoff of  24.44, 24.44, 24.44 a.u.

 SYSTEM =  063_red                                 
 POSCAR =  C N H                                   

 Startparameter for this run:
   NWRITE =      2    write-flag & timer
   PREC   = accura    normal or accurate (medium, high low for compatibility)
   ISTART =      1    job   : 0-new  1-cont  2-samecut
   ICHARG =      2    charge: 1-file 2-atom 10-const
   ISPIN  =      2    spin polarized calculation?
   LNONCOLLINEAR =      F non collinear calculations
   LSORBIT =      F    spin-orbit coupling
   INIWAV =      1    electr: 0-lowe 1-rand  2-diag
   LASPH  =      F    aspherical Exc in radial PAW
 Electronic Relaxation 1
   ENCUT  =  500.0 eV  36.75 Ry    6.06 a.u.  72.93 72.93 72.93*2*pi/ulx,y,z
   ENINI  =  500.0     initial cutoff
   ENAUG  =  644.9 eV  augmentation charge cutoff
   NELM   =    100;   NELMIN=  2; NELMDL=  0     # of ELM steps 
   EDIFF  = 0.1E-04   stopping-criterion for ELM
   LREAL  =      T    real-space projection
   NLSPLINE    = F    spline interpolate recip. space projectors
   LCOMPAT=      F    compatible to vasp.4.4
   GGA_COMPAT  = T    GGA compatible to vasp.4.4-vasp.4.6
   LMAXPAW     = -100 max onsite density
   LMAXMIX     =    2 max onsite mixed and CHGCAR
   VOSKOWN=      0    Vosko Wilk Nusair interpolation
   ROPT   =   -0.00025  -0.00025  -0.00025
 Ionic relaxation
   EDIFFG = -.2E-01   stopping-criterion for IOM
   NSW    =    500    number of steps for IOM
   NBLOCK =      1;   KBLOCK =    500    inner block; outer block 
   IBRION =      2    ionic relax: 0-MD 1-quasi-New 2-CG
   NFREE  =      1    steps in history (QN), initial steepest desc. (CG)
   ISIF   =      2    stress and relaxation
   IWAVPR =     11    prediction:  0-non 1-charg 2-wave 3-comb
   ISYM   =      2    0-nonsym 1-usesym 2-fastsym
   LCORR  =      T    Harris-Foulkes like correction to forces

   POTIM  = 0.5000    time-step for ionic-motion
   TEIN   =    0.0    initial temperature
   TEBEG  =    0.0;   TEEND  =   0.0 temperature during run
   SMASS  =  -3.00    Nose mass-parameter (am)
   estimated Nose-frequenzy (Omega)   =  0.10E-29 period in steps = 0.13E+47 mass=  -0.366E-25a.u.
   SCALEE = 1.0000    scale energy and forces
   NPACO  =    256;   APACO  = 10.0  distance and # of slots for P.C.
   PSTRESS=    0.0 pullay stress

  Mass of Ions in am
   POMASS =  12.01 14.00  1.00
  Ionic Valenz
   ZVAL   =   4.00  5.00  1.00
  Atomic Wigner-Seitz radii
   RWIGS  =  -1.00 -1.00 -1.00
  virtual crystal weights 
   VCA    =   1.00  1.00  1.00
   NELECT =      62.0000    total number of electrons
   NUPDOWN=      -1.0000    fix difference up-down

 DOS related values:
   EMIN   =  10.00;   EMAX   =-10.00  energy-range for DOS
   EFERMI =   0.00
   ISMEAR =     0;   SIGMA  =   0.05  broadening in eV -4-tet -1-fermi 0-gaus

 Electronic relaxation 2 (details)
   IALGO  =     68    algorithm
   LDIAG  =      T    sub-space diagonalisation (order eigenvalues)
   LSUBROT=      F    optimize rotation matrix (better conditioning)
   TURBO    =      0    0=normal 1=particle mesh
   IRESTART =      0    0=no restart 2=restart with 2 vectors
   NREBOOT  =      0    no. of reboots
   NMIN     =      0    reboot dimension
   EREF     =   0.00    reference energy to select bands
   IMIX   =      4    mixing-type and parameters
     AMIX     =   0.40;   BMIX     =  1.00
     AMIX_MAG =   1.60;   BMIX_MAG =  1.00
     AMIN     =   0.10
     WC   =   100.;   INIMIX=   1;  MIXPRE=   1;  MAXMIX= -45

 Intra band minimization:
   WEIMIN = 0.0010     energy-eigenvalue tresh-hold
   EBREAK =  0.39E-07  absolut break condition
   DEPER  =   0.30     relativ break condition  

   TIME   =   0.40     timestep for ELM

  volume/ion in A,a.u.               =    2285.71     15424.76
  Fermi-wavevector in a.u.,A,eV,Ry     =   0.161986  0.306110  0.357012  0.026240
  Thomas-Fermi vector in A             =   0.858209
 
 Write flags
   LWAVE        =      T    write WAVECAR
   LDOWNSAMPLE  =      F    k-point downsampling of WAVECAR
   LCHARG       =      F    write CHGCAR
   LVTOT        =      F    write LOCPOT, total local potential
   LVHAR        =      F    write LOCPOT, Hartree potential only
   LELF         =      F    write electronic localiz. function (ELF)
   LORBIT       =      0    0 simple, 1 ext, 2 COOP (PROOUT), +10 PAW based schemes


 Dipole corrections
   LMONO  =      F    monopole corrections only (constant potential shift)
   LDIPOL =      F    correct potential (dipole corrections)
   IDIPOL =      0    1-x, 2-y, 3-z, 4-all directions 
   EPSILON=  1.0000000 bulk dielectric constant

 Exchange correlation treatment:
   GGA     =    --    GGA type
   LEXCH   =     8    internal setting for exchange type
   LIBXC   =     F    Libxc                    
   VOSKOWN =     0    Vosko Wilk Nusair interpolation
   LHFCALC =     F    Hartree Fock is set to
   LHFONE  =     F    Hartree Fock one center treatment
   AEXX    =    0.0000 exact exchange contribution

 Linear response parameters
   LEPSILON=     F    determine dielectric tensor
   LRPA    =     F    only Hartree local field effects (RPA)
   LNABLA  =     F    use nabla operator in PAW spheres
   LVEL    =     F    velocity operator in full k-point grid
   CSHIFT  =0.1000    complex shift for real part using Kramers Kronig
   OMEGAMAX=  -1.0    maximum frequency
   DEG_THRESHOLD= 0.2000000E-02 threshold for treating states as degnerate
   RTIME   =   -0.100 relaxation time in fs
  (WPLASMAI=    0.000 imaginary part of plasma frequency in eV, 0.658/RTIME)
   DFIELD  = 0.0000000 0.0000000 0.0000000 field for delta impulse in time
 
  Optional k-point grid parameters
   LKPOINTS_OPT  =     F    use optional k-point grid
   KPOINTS_OPT_MODE=     1    mode for optional k-point grid
 
 Orbital magnetization related:
   ORBITALMAG=     F  switch on orbital magnetization
   LCHIMAG   =     F  perturbation theory with respect to B field
   DQ        =  0.001000  dq finite difference perturbation B field
   LLRAUG    =     F  two centre corrections for induced B field

 Solvation model:
   LSOL             =     T         switch on solvation model
   LSOL_SCF         =     T         include solvation in SCF
   ISOL             =     2         solvation model type
   EFERMI_ref       =  0.000000         reference Fermi level
   capacitance_init =  1.000000         initial capacitance
 Nonlinear solvation model:
   LNLDIEL     =     T         switch on non-linear dielectric mode
   LNLION      =     T         switch on non-linear ionic mode
   LNLTEST     =     F         test non-linear model in linear regime
   I_NLOC_SOL  =     1         type of nonlocal dielectric response
   NC_K        =  0.015000     cutoff charge density for cavities (1/Angstrom**3)
   TAU         =  0.000879     cavity formation energy (eV/Angstrom**2)
   SIGMA_K     =  0.600000     cavity width
   A_K         =  0.125000     smoothing length (Angstrom)
   R_SOLV      =  2.190000     solvent radius (Angstrom)
   R_CAV       =  0.000000     cavity radius (Angstrom)
   R_DIEL      =  1.000000     dielectric radius (Angstrom)
   R_ION       =  0.000000     ionic radius (Angstrom)
   R_B         =  0.000000     bound charge radius (Angstrom)
   SOLTEMP     =298.000000     solvent temperature (K)
   EB_K        = 35.688000     relative permittivity of the bulk solvent
   EPSILON_INF =  1.806900     optical relative permittivity of bulk solvent
   N_MOL       =  0.011500     molar density of solvent (1/Angstrom**3)
   P_MOL       =  0.820000     solvent dipole moment (e*Angstrom)
   C_MOLAR     =  0.000000     electrolyte concentration (mol/L)
   LAMBDA_D_K  =  0.000000     Debye length (Angstrom)
   ZION        =  1.000000     charge of ions in electrolyte (e)
   D_ION       = -1.000000     minimum ion packing diameter (Angstrom)



--------------------------------------------------------------------------------------------------------


 conjugate gradient relaxation of ions
   using selective dynamics as specified on POSCAR
 charge density and potential will be updated during run
 spin polarized calculation
 RMM-DIIS sequential band-by-band and
  variant of blocked Davidson during initial phase
 perform sub-space diagonalisation
    before iterative eigenvector-optimisation
 modified Broyden-mixing scheme, WC =      100.0
 initial mixing is a Kerker type mixing with AMIX =  0.4000 and BMIX =      1.0000
 Hartree-type preconditioning will be used
 using additional bands           33
 real space projection scheme for non local part
 use partial core corrections
 calculate Harris-corrections to forces 
   (improved forces if not selfconsistent)
 use gradient corrections 
 use of overlap-Matrix (Vanderbilt PP)
 Gauss-broadening in eV      SIGMA  =   0.05


--------------------------------------------------------------------------------------------------------


  energy-cutoff  :      500.00
  volume of cell :    64000.00
      direct lattice vectors                 reciprocal lattice vectors
    40.000000000  0.000000000  0.000000000     0.025000000  0.000000000  0.000000000
     0.000000000 40.000000000  0.000000000     0.000000000  0.025000000  0.000000000
     0.000000000  0.000000000 40.000000000     0.000000000  0.000000000  0.025000000

  length of vectors
    40.000000000 40.000000000 40.000000000     0.025000000  0.025000000  0.025000000


 
 old parameters found on file WAVECAR:
  energy-cutoff  :      500.00
  volume of cell :    64000.00
      direct lattice vectors                 reciprocal lattice vectors
    40.000000000  0.000000000  0.000000000     0.025000000  0.000000000  0.000000000
     0.000000000 40.000000000  0.000000000     0.000000000  0.025000000  0.000000000
     0.000000000  0.000000000 40.000000000     0.000000000  0.000000000  0.025000000

  length of vectors

 
 k-points in units of 2pi/SCALE and weight: K-Point Grid                            
   0.00000000  0.00000000  0.00000000       1.000
 
 k-points in reciprocal lattice and weights: K-Point Grid                            
   0.00000000  0.00000000  0.00000000       1.000
 
 position of ions in fractional coordinates (direct lattice) 
   0.52741767  0.46891788  0.50149989
   0.50962752  0.50238156  0.50098024
   0.52693730  0.53178418  0.50022265
   0.56457329  0.53385382  0.49954272
   0.58086535  0.50037680  0.49059542
   0.56450490  0.47208542  0.51042036
   0.45462660  0.53102006  0.50208557
   0.41898437  0.51769269  0.50655398
   0.42042881  0.48337652  0.48946929
   0.45516167  0.47039397  0.49916757
   0.47519373  0.50098003  0.50147256
   0.57716824  0.44810391  0.50578318
   0.56696644  0.47730684  0.53739954
   0.60794090  0.50129479  0.49541134
   0.57761018  0.49548420  0.46363243
   0.57254504  0.55322960  0.48158087
   0.57433505  0.54233895  0.52406566
   0.51326387  0.55540498  0.50021872
   0.46532214  0.45298654  0.48045498
   0.45426059  0.45697605  0.52338733
   0.40035607  0.46638176  0.49728079
   0.41899119  0.48636840  0.46214425
   0.40008223  0.53444684  0.49585523
   0.41348306  0.51466126  0.53335670
   0.46233514  0.54773419  0.52266975
   0.45740168  0.54544560  0.47855281
   0.51489473  0.45214169  0.51939656
   0.52472223  0.45683346  0.47680061
 
 position of ions in cartesian coordinates  (Angst):
  21.09670661 18.75671534 20.05999569
  20.38510082 20.09526230 20.03920979
  21.07749194 21.27136739 20.00890581
  22.58293178 21.35415273 19.98170873
  23.23461388 20.01507193 19.62381679
  22.58019612 18.88341677 20.41681453
  18.18506403 21.24080248 20.08342274
  16.75937498 20.70770754 20.26215916
  16.81715247 19.33506082 19.57877180
  18.20646673 18.81575876 19.96670285
  19.00774934 20.03920126 20.05890251
  23.08672974 17.92415631 20.23132720
  22.67865774 19.09227368 21.49598178
  24.31763612 20.05179179 19.81645377
  23.10440729 19.81936799 18.54529724
  22.90180153 22.12918411 19.26323462
  22.97340205 21.69355801 20.96262642
  20.53055484 22.21619939 20.00874868
  18.61288542 18.11946177 19.21819909
  18.17042352 18.27904188 20.93549332
  16.01424299 18.65527047 19.89123146
  16.75964748 19.45473586 18.48576980
  16.00328918 21.37787353 19.83420901
  16.53932227 20.58645045 21.33426794
  18.49340553 21.90936763 20.90679015
  18.29606714 21.81782383 19.14211251
  20.59578932 18.08566766 20.77586228
  20.98888916 18.27333832 19.07202431
 


--------------------------------------------------------------------------------------------------------


 k-point   1 :   0.0000 0.0000 0.0000  plane waves: 1624525

 maximum and minimum number of plane-waves per node :    162473   162437

 maximum number of plane-waves:   1624525
 maximum index in each direction: 
   IXMAX=   72   IYMAX=   72   IZMAX=   72
   IXMIN=  -72   IYMIN=  -72   IZMIN=  -72


 real space projection operators:
  total allocation   :       3259.83 KBytes
  max/ min on nodes  :        333.49        320.47


 parallel 3D FFT for wavefunctions:
    minimum data exchange during FFTs selected (reduces bandwidth)
 parallel 3D FFT for charge:
    minimum data exchange during FFTs selected (reduces bandwidth)


 total amount of memory used by VASP MPI-rank0   693842. kBytes
=======================================================================

   base      :      30000. kBytes
   nonlr-proj:       2725. kBytes
   fftplans  :     167689. kBytes
   grid      :     451809. kBytes
   one-center:         18. kBytes
   wavefun   :      41601. kBytes
 
     INWAV:  cpu time     11.8105: real time     11.8452
 Broyden mixing: mesh for mixing (old mesh)
   NGX =145   NGY =145   NGZ =145
  (NGX  =588   NGY  =588   NGZ  =588)
  gives a total of ****** points

 initial charge density was supplied:
 charge density of overlapping atoms calculated
 number of electron      62.0000000 magnetization      28.0000000
 keeping initial charge density in first step


--------------------------------------------------------------------------------------------------------


 Maximum index for non-local projection operator          395
 Maximum index for augmentation-charges          204 (set IRDMAX)


--------------------------------------------------------------------------------------------------------


 First call to EWALD:  gamma=   0.044
 Maximum number of real-space cells 3x 3x 3
 Maximum number of reciprocal cells 3x 3x 3

    FEWALD:  cpu time      0.0020: real time      0.0020


--------------------------------------- Iteration      1(   1)  ---------------------------------------


    POTLOK:  cpu time      5.9469: real time      5.9541
    SETDIJ:  cpu time      0.0385: real time      0.0380
     EDDAV:  cpu time     33.6672: real time     33.7406
       DOS:  cpu time      0.0070: real time      0.0071
    CHARGE:  cpu time      2.3610: real time      2.3648
    MIXING:  cpu time      0.3304: real time      0.3299
    --------------------------------------------
      LOOP:  cpu time     42.3511: real time     42.4344

 eigenvalue-minimisations  :   352
 total energy-change (2. order) :-0.1417033E+03  (-0.1563645E+02)
 number of electron      62.0000003 magnetization      26.9212221
 augmentation part        1.7685731 magnetization      26.9522607

 Broyden mixing:
  rms(total) = 0.34421E+01    rms(broyden)= 0.34416E+01
  rms(prec ) = 0.34788E+01
  weight for this iteration     100.00

 Free energy of the ion-electron system (eV)
  ---------------------------------------------------
  alpha Z        PSCENC =         0.25994549
  Ewald energy   TEWEN  =      7424.56042500
  -Hartree energ DENC   =     -8665.25376867
  -exchange      EXHF   =         0.00000000
  -V(xc)+E(xc)   XCENC  =       199.61298138
  PAW double counting   =      1319.23785025    -1326.17052410
  entropy T*S    EENTRO =        -0.00000000
  eigenvalues    EBANDS =     -1042.23856940
  atomic energy  EATOM  =      1948.28837410
  Solvation  Ecorr_sol  =         0.00000000
  ---------------------------------------------------
  free energy    TOTEN  =      -141.70328596 eV

  energy without entropy =     -141.70328596  energy(sigma->0) =     -141.70328596


--------------------------------------------------------------------------------------------------------




--------------------------------------- Iteration      1(   2)  ---------------------------------------


    --------------------------------------------
      INIT:  cpu time      0.3647: real time      0.3646
  FINALIZE:  cpu time     38.8220: real time     38.8109
    --------------------------------------------
    POTLOK:  cpu time     45.0497: real time     45.0512
    SETDIJ:  cpu time      0.0344: real time      0.0344
    EDDIAG:  cpu time      6.1000: real time      6.1111
  RMM-DIIS:  cpu time     21.0441: real time     21.0889
    ORTHCH:  cpu time      0.2133: real time      0.2138
       DOS:  cpu time      0.0005: real time      0.0005
    CHARGE:  cpu time      2.3075: real time      2.3121
    MIXING:  cpu time      0.2607: real time      0.2612
    --------------------------------------------
      LOOP:  cpu time     75.0102: real time     75.0731

 eigenvalue-minimisations  :   256
 total energy-change (2. order) : 0.7556963E+02  (-0.1531179E+02)
 number of electron      62.0000003 magnetization      25.7287550
 augmentation part        1.7602683 magnetization      25.6330482

 Broyden mixing:
  rms(total) = 0.17298E+01    rms(broyden)= 0.17297E+01
  rms(prec ) = 0.17602E+01
  weight for this iteration     100.00

 eigenvalues of (default mixing * dielectric matrix)
  average eigenvalue GAMMA=   0.9594
  0.9594

 Free energy of the ion-electron system (eV)
  ---------------------------------------------------
  alpha Z        PSCENC =         0.25994549
  Ewald energy   TEWEN  =      7424.56042500
  -Hartree energ DENC   =     -8808.06558042
  -exchange      EXHF   =         0.00000000
  -V(xc)+E(xc)   XCENC  =       270.71754131
  PAW double counting   =      2474.17323614    -2482.39535407
  entropy T*S    EENTRO =        -0.00000000
  eigenvalues    EBANDS =      -886.77716394
  atomic energy  EATOM  =      1948.28837410
  Solvation  Ecorr_sol  =        -6.89507645
  ---------------------------------------------------
  free energy    TOTEN  =       -66.13365284 eV

  energy without entropy =      -66.13365284  energy(sigma->0) =      -66.13365284


--------------------------------------------------------------------------------------------------------




--------------------------------------- Iteration      1(   3)  ---------------------------------------


    --------------------------------------------
      INIT:  cpu time      0.3732: real time      0.3728
  FINALIZE:  cpu time     47.3698: real time     47.3585
    --------------------------------------------
    POTLOK:  cpu time     53.6685: real time     53.6728
    SETDIJ:  cpu time      0.0344: real time      0.0344
    EDDIAG:  cpu time      6.0702: real time      6.0800
  RMM-DIIS:  cpu time     20.9074: real time     20.9524
    ORTHCH:  cpu time      0.2115: real time      0.2120
       DOS:  cpu time      0.0027: real time      0.0027
    CHARGE:  cpu time      2.3093: real time      2.3139
    MIXING:  cpu time      0.2689: real time      0.2694
    --------------------------------------------
      LOOP:  cpu time     83.4729: real time     83.5375

 eigenvalue-minimisations  :   256
 total energy-change (2. order) :-0.4465372E+02  (-0.6186199E+01)
 number of electron      62.0000004 magnetization      24.4120836
 augmentation part        1.6991340 magnetization      24.2715051

 Broyden mixing:
  rms(total) = 0.10552E+01    rms(broyden)= 0.10552E+01
  rms(prec ) = 0.10653E+01
  weight for this iteration     100.00

 eigenvalues of (default mixing * dielectric matrix)
  average eigenvalue GAMMA=   1.1119
  0.7692  1.4545

 Free energy of the ion-electron system (eV)
  ---------------------------------------------------
  alpha Z        PSCENC =         0.25994549
  Ewald energy   TEWEN  =      7424.56042500
  -Hartree energ DENC   =     -8926.64237703
  -exchange      EXHF   =         0.00000000
  -V(xc)+E(xc)   XCENC  =       239.26381138
  PAW double counting   =      3539.51762568    -3548.54388337
  entropy T*S    EENTRO =        -0.00000000
  eigenvalues    EBANDS =      -774.27956704
  atomic energy  EATOM  =      1948.28837410
  Solvation  Ecorr_sol  =       -13.21172852
  ---------------------------------------------------
  free energy    TOTEN  =      -110.78737430 eV

  energy without entropy =     -110.78737430  energy(sigma->0) =     -110.78737430


--------------------------------------------------------------------------------------------------------




--------------------------------------- Iteration      1(   4)  ---------------------------------------


    --------------------------------------------
      INIT:  cpu time      0.3735: real time      0.3733
  FINALIZE:  cpu time     47.4826: real time     47.4765
    --------------------------------------------
    POTLOK:  cpu time     53.8340: real time     53.8424
    SETDIJ:  cpu time      0.0343: real time      0.0344
    EDDIAG:  cpu time      6.0790: real time      6.0938
  RMM-DIIS:  cpu time     20.9361: real time     20.9801
    ORTHCH:  cpu time      0.2085: real time      0.2089
       DOS:  cpu time      0.0003: real time      0.0003
    CHARGE:  cpu time      2.3016: real time      2.3062
    MIXING:  cpu time      0.2734: real time      0.2738
    --------------------------------------------
      LOOP:  cpu time     83.6672: real time     83.7399

 eigenvalue-minimisations  :   257
 total energy-change (2. order) :-0.1255296E+02  (-0.2539209E+01)
 number of electron      62.0000004 magnetization      23.3095983
 augmentation part        1.6366838 magnetization      23.1797292

 Broyden mixing:
  rms(total) = 0.80186E+00    rms(broyden)= 0.80176E+00
  rms(prec ) = 0.80845E+00
  weight for this iteration     100.00

 eigenvalues of (default mixing * dielectric matrix)
  average eigenvalue GAMMA=   1.0484
  1.4115  1.0618  0.6719

 Free energy of the ion-electron system (eV)
  ---------------------------------------------------
  alpha Z        PSCENC =         0.25994549
  Ewald energy   TEWEN  =      7424.56042500
  -Hartree energ DENC   =     -8991.62424272
  -exchange      EXHF   =         0.00000000
  -V(xc)+E(xc)   XCENC  =       233.88977363
  PAW double counting   =      4346.63858911    -4355.86183241
  entropy T*S    EENTRO =        -0.00000000
  eigenvalues    EBANDS =      -711.09020316
  atomic energy  EATOM  =      1948.28837410
  Solvation  Ecorr_sol  =       -18.40116411
  ---------------------------------------------------
  free energy    TOTEN  =      -123.34033507 eV

  energy without entropy =     -123.34033507  energy(sigma->0) =     -123.34033507


--------------------------------------------------------------------------------------------------------




--------------------------------------- Iteration      1(   5)  ---------------------------------------


    --------------------------------------------
      INIT:  cpu time      0.3704: real time      0.3703
  FINALIZE:  cpu time     49.9238: real time     49.9046
    --------------------------------------------
    POTLOK:  cpu time     56.2396: real time     56.2350
    SETDIJ:  cpu time      0.0342: real time      0.0342
    EDDIAG:  cpu time      6.1097: real time      6.1215
  RMM-DIIS:  cpu time     20.5892: real time     20.6304
    ORTHCH:  cpu time      0.2105: real time      0.2110
       DOS:  cpu time      0.0006: real time      0.0006
    CHARGE:  cpu time      2.2953: real time      2.2998
    MIXING:  cpu time      0.2915: real time      0.2920
    --------------------------------------------
      LOOP:  cpu time     85.7705: real time     85.8245

 eigenvalue-minimisations  :   258
 total energy-change (2. order) :-0.1010254E+02  (-0.6443906E+00)
 number of electron      62.0000004 magnetization      21.0819832
 augmentation part        1.6286091 magnetization      20.9682842

 Broyden mixing:
  rms(total) = 0.54064E+00    rms(broyden)= 0.54061E+00
  rms(prec ) = 0.54419E+00
  weight for this iteration     100.00

 eigenvalues of (default mixing * dielectric matrix)
  average eigenvalue GAMMA=   1.3735
  2.0126  2.0126  0.8318  0.6369

 Free energy of the ion-electron system (eV)
  ---------------------------------------------------
  alpha Z        PSCENC =         0.25994549
  Ewald energy   TEWEN  =      7424.56042500
  -Hartree energ DENC   =     -8990.44536223
  -exchange      EXHF   =         0.00000000
  -V(xc)+E(xc)   XCENC  =       226.85280059
  PAW double counting   =      4573.91193721    -4582.90414160
  entropy T*S    EENTRO =        -0.00000000
  eigenvalues    EBANDS =      -715.46064762
  atomic energy  EATOM  =      1948.28837410
  Solvation  Ecorr_sol  =       -18.50620381
  ---------------------------------------------------
  free energy    TOTEN  =      -133.44287287 eV

  energy without entropy =     -133.44287287  energy(sigma->0) =     -133.44287287


--------------------------------------------------------------------------------------------------------




--------------------------------------- Iteration      1(   6)  ---------------------------------------


    --------------------------------------------
      INIT:  cpu time      0.3680: real time      0.3679
  FINALIZE:  cpu time     52.3338: real time     52.3059
    --------------------------------------------
    POTLOK:  cpu time     58.6876: real time     58.6734
    SETDIJ:  cpu time      0.0350: real time      0.0351
    EDDIAG:  cpu time      6.0648: real time      6.0757
  RMM-DIIS:  cpu time     20.8414: real time     20.8845
    ORTHCH:  cpu time      0.2101: real time      0.2106
       DOS:  cpu time      0.0005: real time      0.0005
    CHARGE:  cpu time      2.3247: real time      2.3294
    MIXING:  cpu time      0.2908: real time      0.2915
    --------------------------------------------
      LOOP:  cpu time     88.4549: real time     88.5007

 eigenvalue-minimisations  :   260
 total energy-change (2. order) :-0.1663027E+02  (-0.1271166E+01)
 number of electron      62.0000004 magnetization      20.4424197
 augmentation part        1.6208707 magnetization      20.3683904

 Broyden mixing:
  rms(total) = 0.33192E+00    rms(broyden)= 0.33186E+00
  rms(prec ) = 0.33414E+00
  weight for this iteration     100.00

 eigenvalues of (default mixing * dielectric matrix)
  average eigenvalue GAMMA=   1.3075
  2.2871  1.8103  0.6388  0.9006  0.9006

 Free energy of the ion-electron system (eV)
  ---------------------------------------------------
  alpha Z        PSCENC =         0.25994549
  Ewald energy   TEWEN  =      7424.56042500
  -Hartree energ DENC   =     -8996.60822843
  -exchange      EXHF   =         0.00000000
  -V(xc)+E(xc)   XCENC  =       215.33993118
  PAW double counting   =      4951.62423358    -4960.27436102
  entropy T*S    EENTRO =        -0.00000000
  eigenvalues    EBANDS =      -716.46578308
  atomic energy  EATOM  =      1948.28837410
  Solvation  Ecorr_sol  =       -16.79767622
  ---------------------------------------------------
  free energy    TOTEN  =      -150.07313940 eV

  energy without entropy =     -150.07313940  energy(sigma->0) =     -150.07313940


--------------------------------------------------------------------------------------------------------




--------------------------------------- Iteration      1(   7)  ---------------------------------------


    --------------------------------------------
      INIT:  cpu time      0.3597: real time      0.3591
  FINALIZE:  cpu time     54.8999: real time     54.8722
    --------------------------------------------
    POTLOK:  cpu time     61.2485: real time     61.2360
    SETDIJ:  cpu time      0.0343: real time      0.0343
    EDDIAG:  cpu time      6.0403: real time      6.0506
  RMM-DIIS:  cpu time     21.0543: real time     21.0985
    ORTHCH:  cpu time      0.2216: real time      0.2220
       DOS:  cpu time      0.0002: real time      0.0002
    CHARGE:  cpu time      2.3027: real time      2.3077
    MIXING:  cpu time      0.3010: real time      0.3015
    --------------------------------------------
      LOOP:  cpu time     91.2029: real time     91.2508

 eigenvalue-minimisations  :   260
 total energy-change (2. order) :-0.1107965E+01  (-0.2049749E+00)
 number of electron      62.0000004 magnetization      18.8780908
 augmentation part        1.6013424 magnetization      18.8249485

 Broyden mixing:
  rms(total) = 0.28676E+00    rms(broyden)= 0.28673E+00
  rms(prec ) = 0.28790E+00
  weight for this iteration     100.00

 eigenvalues of (default mixing * dielectric matrix)
  average eigenvalue GAMMA=   1.1915
  2.1366  2.1366  0.8005  0.8005  0.6374  0.6374

 Free energy of the ion-electron system (eV)
  ---------------------------------------------------
  alpha Z        PSCENC =         0.25994549
  Ewald energy   TEWEN  =      7424.56042500
  -Hartree energ DENC   =     -9006.87168342
  -exchange      EXHF   =         0.00000000
  -V(xc)+E(xc)   XCENC  =       214.81636074
  PAW double counting   =      4954.09795934    -4962.84910083
  entropy T*S    EENTRO =        -0.00000000
  eigenvalues    EBANDS =      -708.45032128
  atomic energy  EATOM  =      1948.28837410
  Solvation  Ecorr_sol  =       -15.03306350
  ---------------------------------------------------
  free energy    TOTEN  =      -151.18110436 eV

  energy without entropy =     -151.18110436  energy(sigma->0) =     -151.18110436


--------------------------------------------------------------------------------------------------------




--------------------------------------- Iteration      1(   8)  ---------------------------------------


    --------------------------------------------
      INIT:  cpu time      0.3669: real time      0.3664
  FINALIZE:  cpu time     52.7482: real time     52.8187
    --------------------------------------------
    POTLOK:  cpu time     59.1027: real time     59.1873
    SETDIJ:  cpu time      0.0357: real time      0.0357
    EDDIAG:  cpu time      6.0344: real time      6.0468
  RMM-DIIS:  cpu time     21.2572: real time     21.3012
    ORTHCH:  cpu time      0.2213: real time      0.2218
       DOS:  cpu time      0.0007: real time      0.0006
    CHARGE:  cpu time      2.3081: real time      2.3128
    MIXING:  cpu time      0.3139: real time      0.3144
    --------------------------------------------
      LOOP:  cpu time     89.2739: real time     89.4206

 eigenvalue-minimisations  :   257
 total energy-change (2. order) :-0.3201632E+01  (-0.1590260E+00)
 number of electron      62.0000004 magnetization      15.5552192
 augmentation part        1.6037042 magnetization      15.5153799

 Broyden mixing:
  rms(total) = 0.22267E+00    rms(broyden)= 0.22266E+00
  rms(prec ) = 0.22319E+00
  weight for this iteration     100.00

 eigenvalues of (default mixing * dielectric matrix)
  average eigenvalue GAMMA=   1.5287
  3.0610  3.0610  1.4519  0.9673  0.9144  0.6516  0.5938

 Free energy of the ion-electron system (eV)
  ---------------------------------------------------
  alpha Z        PSCENC =         0.25994549
  Ewald energy   TEWEN  =      7424.56042500
  -Hartree energ DENC   =     -9002.54640800
  -exchange      EXHF   =         0.00000000
  -V(xc)+E(xc)   XCENC  =       211.92264643
  PAW double counting   =      4798.95558200    -4807.65643226
  entropy T*S    EENTRO =        -0.00000000
  eigenvalues    EBANDS =      -717.34446679
  atomic energy  EATOM  =      1948.28837410
  Solvation  Ecorr_sol  =       -10.82240281
  ---------------------------------------------------
  free energy    TOTEN  =      -154.38273683 eV

  energy without entropy =     -154.38273683  energy(sigma->0) =     -154.38273683


--------------------------------------------------------------------------------------------------------




--------------------------------------- Iteration      1(   9)  ---------------------------------------


    --------------------------------------------
      INIT:  cpu time      0.3589: real time      0.3580
  FINALIZE:  cpu time     50.4546: real time     50.4422
    --------------------------------------------
    POTLOK:  cpu time     56.8326: real time     56.8344
    SETDIJ:  cpu time      0.0392: real time      0.0392
    EDDIAG:  cpu time      6.0879: real time      6.0974
  RMM-DIIS:  cpu time     22.0715: real time     22.1180
    ORTHCH:  cpu time      0.2103: real time      0.2108
       DOS:  cpu time      0.0006: real time      0.0006
    CHARGE:  cpu time      2.3412: real time      2.3458
    MIXING:  cpu time      0.3313: real time      0.3319
    --------------------------------------------
      LOOP:  cpu time     87.9145: real time     87.9780

 eigenvalue-minimisations  :   272
 total energy-change (2. order) :-0.1622014E+01  (-0.3485657E+00)
 number of electron      62.0000004 magnetization      14.8149862
 augmentation part        1.5880006 magnetization      14.7993794

 Broyden mixing:
  rms(total) = 0.17050E+00    rms(broyden)= 0.17048E+00
  rms(prec ) = 0.17157E+00
  weight for this iteration     100.00

 eigenvalues of (default mixing * dielectric matrix)
  average eigenvalue GAMMA=   1.5778
  4.6936  2.3346  1.6714  0.7753  0.7753  0.9045  0.8399  0.6278

 Free energy of the ion-electron system (eV)
  ---------------------------------------------------
  alpha Z        PSCENC =         0.25994549
  Ewald energy   TEWEN  =      7424.56042500
  -Hartree energ DENC   =     -9007.25000219
  -exchange      EXHF   =         0.00000000
  -V(xc)+E(xc)   XCENC  =       210.96302735
  PAW double counting   =      4649.81199080    -4658.51828036
  entropy T*S    EENTRO =        -0.00000000
  eigenvalues    EBANDS =      -720.63946894
  atomic energy  EATOM  =      1948.28837410
  Solvation  Ecorr_sol  =        -3.48076220
  ---------------------------------------------------
  free energy    TOTEN  =      -156.00475095 eV

  energy without entropy =     -156.00475095  energy(sigma->0) =     -156.00475095


--------------------------------------------------------------------------------------------------------




--------------------------------------- Iteration      1(  10)  ---------------------------------------


    --------------------------------------------
      INIT:  cpu time      0.4017: real time      0.4015
  FINALIZE:  cpu time     58.0429: real time     58.0116
    --------------------------------------------
    POTLOK:  cpu time     64.4978: real time     64.4799
    SETDIJ:  cpu time      0.0399: real time      0.0400
    EDDIAG:  cpu time      6.0445: real time      6.0552
  RMM-DIIS:  cpu time     21.8224: real time     21.8675
    ORTHCH:  cpu time      0.2182: real time      0.2187
       DOS:  cpu time      0.0004: real time      0.0004
    CHARGE:  cpu time      2.3501: real time      2.3547
    MIXING:  cpu time      0.3443: real time      0.3452
    --------------------------------------------
      LOOP:  cpu time     95.3176: real time     95.3614

 eigenvalue-minimisations  :   259
 total energy-change (2. order) :-0.1260862E+01  (-0.2695831E-01)
 number of electron      62.0000004 magnetization      13.5549989
 augmentation part        1.5865358 magnetization      13.5442333

 Broyden mixing:
  rms(total) = 0.11056E+00    rms(broyden)= 0.11056E+00
  rms(prec ) = 0.11136E+00
  weight for this iteration     100.00

 eigenvalues of (default mixing * dielectric matrix)
  average eigenvalue GAMMA=   1.6017
  5.5696  1.9221  1.9221  1.1396  0.8270  0.8270  0.8854  0.6120  0.7103

 Free energy of the ion-electron system (eV)
  ---------------------------------------------------
  alpha Z        PSCENC =         0.25994549
  Ewald energy   TEWEN  =      7424.56042500
  -Hartree energ DENC   =     -9008.45016159
  -exchange      EXHF   =         0.00000000
  -V(xc)+E(xc)   XCENC  =       209.89473964
  PAW double counting   =      4696.37856637    -4705.08304161
  entropy T*S    EENTRO =        -0.00000000
  eigenvalues    EBANDS =      -721.05723308
  atomic energy  EATOM  =      1948.28837410
  Solvation  Ecorr_sol  =        -2.05722715
  ---------------------------------------------------
  free energy    TOTEN  =      -157.26561284 eV

  energy without entropy =     -157.26561284  energy(sigma->0) =     -157.26561284


--------------------------------------------------------------------------------------------------------




--------------------------------------- Iteration      1(  11)  ---------------------------------------


    --------------------------------------------
      INIT:  cpu time      0.4160: real time      0.4158
  FINALIZE:  cpu time     48.1176: real time     48.1794
    --------------------------------------------
    POTLOK:  cpu time     54.6410: real time     54.7193
    SETDIJ:  cpu time      0.0376: real time      0.0376
    EDDIAG:  cpu time      6.0647: real time      6.0779
  RMM-DIIS:  cpu time     21.6724: real time     21.7189
    ORTHCH:  cpu time      0.2168: real time      0.2173
       DOS:  cpu time      0.0024: real time      0.0024
    CHARGE:  cpu time      2.3433: real time      2.3483
    MIXING:  cpu time      0.3493: real time      0.3500
    --------------------------------------------
      LOOP:  cpu time     85.3276: real time     85.4717

 eigenvalue-minimisations  :   257
 total energy-change (2. order) :-0.1347200E+01  (-0.2126285E-01)
 number of electron      62.0000004 magnetization      11.9100790
 augmentation part        1.5869191 magnetization      11.9030104

 Broyden mixing:
  rms(total) = 0.82968E-01    rms(broyden)= 0.82964E-01
  rms(prec ) = 0.83413E-01
  weight for this iteration     100.00

 eigenvalues of (default mixing * dielectric matrix)
  average eigenvalue GAMMA=   1.7491
  6.7606  2.1976  2.1976  1.5075  0.9815  0.9815  0.7798  0.7798  0.6166  0.6882

 Free energy of the ion-electron system (eV)
  ---------------------------------------------------
  alpha Z        PSCENC =         0.25994549
  Ewald energy   TEWEN  =      7424.56042500
  -Hartree energ DENC   =     -9007.32876731
  -exchange      EXHF   =         0.00000000
  -V(xc)+E(xc)   XCENC  =       208.62262652
  PAW double counting   =      4726.82273243    -4735.51744716
  entropy T*S    EENTRO =        -0.00000000
  eigenvalues    EBANDS =      -724.10604030
  atomic energy  EATOM  =      1948.28837410
  Solvation  Ecorr_sol  =        -0.21466197
  ---------------------------------------------------
  free energy    TOTEN  =      -158.61281320 eV

  energy without entropy =     -158.61281320  energy(sigma->0) =     -158.61281320


--------------------------------------------------------------------------------------------------------




--------------------------------------- Iteration      1(  12)  ---------------------------------------


    --------------------------------------------
      INIT:  cpu time      0.4262: real time      0.4261
  FINALIZE:  cpu time     50.6977: real time     50.6855
    --------------------------------------------
    POTLOK:  cpu time     57.1929: real time     57.1946
    SETDIJ:  cpu time      0.0429: real time      0.0430
    EDDIAG:  cpu time      6.1161: real time      6.1295
  RMM-DIIS:  cpu time     22.3580: real time     22.4205
    ORTHCH:  cpu time      0.2122: real time      0.2127
       DOS:  cpu time      0.0050: real time      0.0050
    CHARGE:  cpu time      2.3329: real time      2.3363
    MIXING:  cpu time      0.3791: real time      0.3798
    --------------------------------------------
      LOOP:  cpu time     88.6390: real time     88.7215

 eigenvalue-minimisations  :   263
 total energy-change (2. order) :-0.9873476E+00  (-0.1169669E-01)
 number of electron      62.0000004 magnetization      10.7089345
 augmentation part        1.5849097 magnetization      10.7049847

 Broyden mixing:
  rms(total) = 0.61095E-01    rms(broyden)= 0.61092E-01
  rms(prec ) = 0.61436E-01
  weight for this iteration     100.00

 eigenvalues of (default mixing * dielectric matrix)
  average eigenvalue GAMMA=   1.7707
  7.4390  2.5224  1.8653  1.4501  1.4501  1.0515  0.8109  0.8109  0.8118  0.6166
  0.6486

 Free energy of the ion-electron system (eV)
  ---------------------------------------------------
  alpha Z        PSCENC =         0.25994549
  Ewald energy   TEWEN  =      7424.56042500
  -Hartree energ DENC   =     -9006.26788276
  -exchange      EXHF   =         0.00000000
  -V(xc)+E(xc)   XCENC  =       207.56263002
  PAW double counting   =      4709.40631622    -4718.12098028
  entropy T*S    EENTRO =        -0.00000000
  eigenvalues    EBANDS =      -727.38692267
  atomic energy  EATOM  =      1948.28837410
  Solvation  Ecorr_sol  =         2.09793411
  ---------------------------------------------------
  free energy    TOTEN  =      -159.60016076 eV

  energy without entropy =     -159.60016076  energy(sigma->0) =     -159.60016076


--------------------------------------------------------------------------------------------------------




--------------------------------------- Iteration      1(  13)  ---------------------------------------


    --------------------------------------------
      INIT:  cpu time      0.4182: real time      0.4178
  FINALIZE:  cpu time     48.1870: real time     48.2043
    --------------------------------------------
    POTLOK:  cpu time     54.6819: real time     54.7134
    SETDIJ:  cpu time      0.0393: real time      0.0394
    EDDIAG:  cpu time      6.1992: real time      6.2090
  RMM-DIIS:  cpu time     21.9588: real time     22.0044
    ORTHCH:  cpu time      0.2205: real time      0.2211
       DOS:  cpu time      0.0013: real time      0.0013
    CHARGE:  cpu time      2.3491: real time      2.3539
    MIXING:  cpu time      0.3761: real time      0.3768
    --------------------------------------------
      LOOP:  cpu time     85.8263: real time     85.9193

 eigenvalue-minimisations  :   264
 total energy-change (2. order) :-0.3892647E+00  (-0.3753982E-02)
 number of electron      62.0000004 magnetization       8.7700119
 augmentation part        1.5839239 magnetization       8.7678353

 Broyden mixing:
  rms(total) = 0.51380E-01    rms(broyden)= 0.51379E-01
  rms(prec ) = 0.51582E-01
  weight for this iteration     100.00

 eigenvalues of (default mixing * dielectric matrix)
  average eigenvalue GAMMA=   1.8969
  8.2998  3.2265  2.3976  1.7148  1.2848  1.1351  1.1351  0.7645  0.7645  0.7937
  0.6233  0.6233

 Free energy of the ion-electron system (eV)
  ---------------------------------------------------
  alpha Z        PSCENC =         0.25994549
  Ewald energy   TEWEN  =      7424.56042500
  -Hartree energ DENC   =     -9004.82799371
  -exchange      EXHF   =         0.00000000
  -V(xc)+E(xc)   XCENC  =       207.10948933
  PAW double counting   =      4703.93324319    -4712.65354161
  entropy T*S    EENTRO =        -0.00000000
  eigenvalues    EBANDS =      -729.63944959
  atomic energy  EATOM  =      1948.28837410
  Solvation  Ecorr_sol  =         2.98008238
  ---------------------------------------------------
  free energy    TOTEN  =      -159.98942542 eV

  energy without entropy =     -159.98942542  energy(sigma->0) =     -159.98942542


--------------------------------------------------------------------------------------------------------




--------------------------------------- Iteration      1(  14)  ---------------------------------------


    --------------------------------------------
      INIT:  cpu time      0.4170: real time      0.4168
  FINALIZE:  cpu time     50.6479: real time     50.6309
    --------------------------------------------
    POTLOK:  cpu time     57.1144: real time     57.1108
    SETDIJ:  cpu time      0.0364: real time      0.0364
    EDDIAG:  cpu time      6.0936: real time      6.1036
  RMM-DIIS:  cpu time     21.8773: real time     21.9218
    ORTHCH:  cpu time      0.2193: real time      0.2198
       DOS:  cpu time      0.0015: real time      0.0015
    CHARGE:  cpu time      2.3532: real time      2.3580
    MIXING:  cpu time      0.3998: real time      0.4004
    --------------------------------------------
      LOOP:  cpu time     88.0954: real time     88.1523

 eigenvalue-minimisations  :   257
 total energy-change (2. order) :-0.3404597E+00  (-0.1633549E-02)
 number of electron      62.0000004 magnetization       8.0319034
 augmentation part        1.5843902 magnetization       8.0298589

 Broyden mixing:
  rms(total) = 0.39945E-01    rms(broyden)= 0.39945E-01
  rms(prec ) = 0.40037E-01
  weight for this iteration     100.00

 eigenvalues of (default mixing * dielectric matrix)
  average eigenvalue GAMMA=   1.9570
  9.1613  4.1236  2.1147  2.1147  1.2041  1.2041  1.1239  0.8136  0.8136  0.8217
  0.6975  0.6241  0.6241

 Free energy of the ion-electron system (eV)
  ---------------------------------------------------
  alpha Z        PSCENC =         0.25994549
  Ewald energy   TEWEN  =      7424.56042500
  -Hartree energ DENC   =     -9001.67762192
  -exchange      EXHF   =         0.00000000
  -V(xc)+E(xc)   XCENC  =       206.73982638
  PAW double counting   =      4735.69899842    -4744.40574879
  entropy T*S    EENTRO =        -0.00000000
  eigenvalues    EBANDS =      -733.41240192
  atomic energy  EATOM  =      1948.28837410
  Solvation  Ecorr_sol  =         3.61831810
  ---------------------------------------------------
  free energy    TOTEN  =      -160.32988514 eV

  energy without entropy =     -160.32988514  energy(sigma->0) =     -160.32988514


--------------------------------------------------------------------------------------------------------




--------------------------------------- Iteration      1(  15)  ---------------------------------------


    --------------------------------------------
      INIT:  cpu time      0.4098: real time      0.4098
  FINALIZE:  cpu time     50.6219: real time     50.6092
    --------------------------------------------
    POTLOK:  cpu time     57.1194: real time     57.1221
    SETDIJ:  cpu time      0.0367: real time      0.0368
    EDDIAG:  cpu time      6.1457: real time      6.1560
  RMM-DIIS:  cpu time     21.8268: real time     21.8724
    ORTHCH:  cpu time      0.2169: real time      0.2174
       DOS:  cpu time      0.0003: real time      0.0003
    CHARGE:  cpu time      2.3420: real time      2.3466
    MIXING:  cpu time      0.4135: real time      0.4142
    --------------------------------------------
      LOOP:  cpu time     88.1013: real time     88.1656

 eigenvalue-minimisations  :   265
 total energy-change (2. order) :-0.1652214E+00  (-0.6076491E-03)
 number of electron      62.0000004 magnetization       6.3089823
 augmentation part        1.5849150 magnetization       6.3076515

 Broyden mixing:
  rms(total) = 0.34747E-01    rms(broyden)= 0.34747E-01
  rms(prec ) = 0.34833E-01
  weight for this iteration     100.00

 eigenvalues of (default mixing * dielectric matrix)
  average eigenvalue GAMMA=   1.9864
  9.5713  4.5295  1.9865  1.9865  1.6201  1.6201  1.0468  1.0468  0.8123  0.8123
  0.8027  0.7294  0.6223  0.6223

 Free energy of the ion-electron system (eV)
  ---------------------------------------------------
  alpha Z        PSCENC =         0.25994549
  Ewald energy   TEWEN  =      7424.56042500
  -Hartree energ DENC   =     -9000.61308925
  -exchange      EXHF   =         0.00000000
  -V(xc)+E(xc)   XCENC  =       206.54421354
  PAW double counting   =      4731.35387270    -4740.05959050
  entropy T*S    EENTRO =        -0.00000000
  eigenvalues    EBANDS =      -734.37135466
  atomic energy  EATOM  =      1948.28837410
  Solvation  Ecorr_sol  =         3.54209701
  ---------------------------------------------------
  free energy    TOTEN  =      -160.49510657 eV

  energy without entropy =     -160.49510657  energy(sigma->0) =     -160.49510657


--------------------------------------------------------------------------------------------------------




--------------------------------------- Iteration      1(  16)  ---------------------------------------


    --------------------------------------------
      INIT:  cpu time      0.4109: real time      0.4106
  FINALIZE:  cpu time     55.6109: real time     55.5988
    --------------------------------------------
    POTLOK:  cpu time     62.0824: real time     62.0855
    SETDIJ:  cpu time      0.0361: real time      0.0362
    EDDIAG:  cpu time      6.1271: real time      6.1363
  RMM-DIIS:  cpu time     21.2031: real time     21.2474
    ORTHCH:  cpu time      0.2213: real time      0.2218
       DOS:  cpu time      0.0003: real time      0.0003
    CHARGE:  cpu time      2.3473: real time      2.3522
    MIXING:  cpu time      0.4328: real time      0.4336
    --------------------------------------------
      LOOP:  cpu time     92.4504: real time     92.5133

 eigenvalue-minimisations  :   256
 total energy-change (2. order) :-0.1192425E+00  (-0.4313221E-03)
 number of electron      62.0000004 magnetization       4.8291458
 augmentation part        1.5847986 magnetization       4.8282058

 Broyden mixing:
  rms(total) = 0.27349E-01    rms(broyden)= 0.27349E-01
  rms(prec ) = 0.27429E-01
  weight for this iteration     100.00

 eigenvalues of (default mixing * dielectric matrix)
  average eigenvalue GAMMA=   2.1151
 10.4077  5.5920  2.7368  2.1542  2.1542  1.1696  1.1696  1.1343  0.8171  0.8171
  0.8230  0.8230  0.6856  0.6137  0.6280

 Free energy of the ion-electron system (eV)
  ---------------------------------------------------
  alpha Z        PSCENC =         0.25994549
  Ewald energy   TEWEN  =      7424.56042500
  -Hartree energ DENC   =     -8999.69620332
  -exchange      EXHF   =         0.00000000
  -V(xc)+E(xc)   XCENC  =       206.41473038
  PAW double counting   =      4722.82337806    -4731.53631656
  entropy T*S    EENTRO =        -0.00000000
  eigenvalues    EBANDS =      -734.42527534
  atomic energy  EATOM  =      1948.28837410
  Solvation  Ecorr_sol  =         2.69659315
  ---------------------------------------------------
  free energy    TOTEN  =      -160.61434902 eV

  energy without entropy =     -160.61434902  energy(sigma->0) =     -160.61434902


--------------------------------------------------------------------------------------------------------




--------------------------------------- Iteration      1(  17)  ---------------------------------------


    --------------------------------------------
      INIT:  cpu time      0.4371: real time      0.4373
  FINALIZE:  cpu time     53.0610: real time     53.0573
    --------------------------------------------
    POTLOK:  cpu time     59.5417: real time     59.5572
    SETDIJ:  cpu time      0.0385: real time      0.0386
    EDDIAG:  cpu time      6.1424: real time      6.1534
  RMM-DIIS:  cpu time     21.6261: real time     21.6716
    ORTHCH:  cpu time      0.2152: real time      0.2157
       DOS:  cpu time      0.0024: real time      0.0025
    CHARGE:  cpu time      2.3487: real time      2.3538
    MIXING:  cpu time      0.4638: real time      0.4647
    --------------------------------------------
      LOOP:  cpu time     90.3789: real time     90.4573

 eigenvalue-minimisations  :   257
 total energy-change (2. order) :-0.2541558E-01  (-0.2777468E-03)
 number of electron      62.0000004 magnetization       3.7175618
 augmentation part        1.5847716 magnetization       3.7169684

 Broyden mixing:
  rms(total) = 0.22896E-01    rms(broyden)= 0.22896E-01
  rms(prec ) = 0.22965E-01
  weight for this iteration     100.00

 eigenvalues of (default mixing * dielectric matrix)
  average eigenvalue GAMMA=   2.1226
 10.8717  6.0783  3.1187  2.0558  2.0558  1.2993  1.2993  1.0123  1.0123  0.8165
  0.8165  0.8157  0.8157  0.6267  0.6267  0.6410

 Free energy of the ion-electron system (eV)
  ---------------------------------------------------
  alpha Z        PSCENC =         0.25994549
  Ewald energy   TEWEN  =      7424.56042500
  -Hartree energ DENC   =     -8998.88752235
  -exchange      EXHF   =         0.00000000
  -V(xc)+E(xc)   XCENC  =       206.38588350
  PAW double counting   =      4720.22022485    -4728.93299389
  entropy T*S    EENTRO =        -0.00000000
  eigenvalues    EBANDS =      -734.44100957
  atomic energy  EATOM  =      1948.28837410
  Solvation  Ecorr_sol  =         1.90690827
  ---------------------------------------------------
  free energy    TOTEN  =      -160.63976461 eV

[...]
      26 -41.5350      27 -41.6483      28 -41.6072
 
 
 
 E-fermi :  -3.6406     XC(G=0):  -0.0591     alpha+bet : -0.0244

 Fermi energy:        -3.6406459881

 spin component 1

 k-point     1 :       0.0000    0.0000    0.0000
  band No.  band energies     occupation 
      1     -23.5481      1.00000
      2     -20.4536      1.00000
      3     -19.4152      1.00000
      4     -18.2879      1.00000
      5     -17.8182      1.00000
      6     -17.4433      1.00000
      7     -15.2756      1.00000
      8     -15.0002      1.00000
      9     -14.1166      1.00000
     10     -13.8805      1.00000
     11     -12.9012      1.00000
     12     -12.0789      1.00000
     13     -12.0124      1.00000
     14     -10.9273      1.00000
     15     -10.5371      1.00000
     16     -10.3022      1.00000
     17     -10.2428      1.00000
     18     -10.1155      1.00000
     19      -9.6477      1.00000
     20      -9.3157      1.00000
     21      -9.0545      1.00000
     22      -8.8903      1.00000
     23      -8.8184      1.00000
     24      -8.3222      1.00000
     25      -8.1965      1.00000
     26      -7.8309      1.00000
     27      -7.5965      1.00000
     28      -7.4565      1.00000
     29      -7.1033      1.00000
     30      -6.5026      1.00000
     31      -3.9176      1.00000
     32      -0.6690      0.00000
     33      -0.3370      0.00000
     34      -0.1815      0.00000
     35      -0.1753      0.00000
     36       0.0088      0.00000
     37       0.0794      0.00000
     38       0.0954      0.00000
     39       0.1051      0.00000
     40       0.1060      0.00000
     41       0.1064      0.00000
     42       0.1153      0.00000
     43       0.1346      0.00000
     44       0.1487      0.00000
     45       0.1540      0.00000
     46       0.1846      0.00000
     47       0.1877      0.00000
     48       0.1905      0.00000
     49       0.1916      0.00000
     50       0.1919      0.00000
     51       0.2015      0.00000
     52       0.2058      0.00000
     53       0.2143      0.00000
     54       0.2167      0.00000
     55       0.2230      0.00000
     56       0.2338      0.00000
     57       0.2471      0.00000
     58       0.2735      0.00000
     59       0.2794      0.00000
     60       0.2838      0.00000
     61       0.3015      0.00000
     62       0.3036      0.00000
     63       0.3062      0.00000
     64       0.3247      0.00000
 Fermi energy:        -3.6406459881

 spin component 2

 k-point     1 :       0.0000    0.0000    0.0000
  band No.  band energies     occupation 
      1     -23.5481      1.00000
      2     -20.4536      1.00000
      3     -19.4152      1.00000
      4     -18.2879      1.00000
      5     -17.8182      1.00000
      6     -17.4433      1.00000
      7     -15.2756      1.00000
      8     -15.0002      1.00000
      9     -14.1166      1.00000
     10     -13.8805      1.00000
     11     -12.9012      1.00000
     12     -12.0789      1.00000
     13     -12.0124      1.00000
     14     -10.9273      1.00000
     15     -10.5371      1.00000
     16     -10.3022      1.00000
     17     -10.2428      1.00000
     18     -10.1155      1.00000
     19      -9.6477      1.00000
     20      -9.3157      1.00000
     21      -9.0545      1.00000
     22      -8.8903      1.00000
     23      -8.8184      1.00000
     24      -8.3222      1.00000
     25      -8.1965      1.00000
     26      -7.8309      1.00000
     27      -7.5965      1.00000
     28      -7.4565      1.00000
     29      -7.1033      1.00000
     30      -6.5026      1.00000
     31      -3.9176      1.00000
     32      -0.6690      0.00000
     33      -0.3370      0.00000
     34      -0.1815      0.00000
     35      -0.1753      0.00000
     36       0.0089      0.00000
     37       0.0794      0.00000
     38       0.0954      0.00000
     39       0.1053      0.00000
     40       0.1061      0.00000
     41       0.1066      0.00000
     42       0.1153      0.00000
     43       0.1346      0.00000
     44       0.1487      0.00000
     45       0.1541      0.00000
     46       0.1848      0.00000
     47       0.1879      0.00000
     48       0.1905      0.00000
     49       0.1918      0.00000
     50       0.1921      0.00000
     51       0.2017      0.00000
     52       0.2058      0.00000
     53       0.2144      0.00000
     54       0.2168      0.00000
     55       0.2231      0.00000
     56       0.2342      0.00000
     57       0.2472      0.00000
     58       0.2737      0.00000
     59       0.2796      0.00000
     60       0.2840      0.00000
     61       0.3015      0.00000
     62       0.3036      0.00000
     63       0.3062      0.00000
     64       0.3247      0.00000


--------------------------------------------------------------------------------------------------------


 soft charge-density along one line, spin component           1
         0         1         2         3         4         5         6         7         8         9
 total charge-density along one line
 
 soft charge-density along one line, spin component           2
         0         1         2         3         4         5         6         7         8         9
 total charge-density along one line
 
 pseudopotential strength for first ion, spin component:           1
 10.230  13.604   0.001  -0.000  -0.001  -0.002   0.001   0.002
 13.604  18.091   0.001  -0.000  -0.001  -0.002   0.001   0.003
  0.001   0.001  -4.358   0.000  -0.000   8.529  -0.000  -0.000
 -0.000  -0.000   0.000  -4.358   0.000  -0.000   8.528  -0.000
 -0.001  -0.001  -0.000   0.000  -4.357  -0.000  -0.000   8.526
 -0.002  -0.002   8.529  -0.000  -0.000 -18.828   0.000   0.000
  0.001   0.001  -0.000   8.528  -0.000   0.000 -18.826  -0.000
  0.002   0.003  -0.000  -0.000   8.526   0.000  -0.000 -18.823
 pseudopotential strength for first ion, spin component:           2
 10.230  13.604   0.001  -0.000  -0.001  -0.002   0.001   0.002
 13.604  18.091   0.001  -0.000  -0.001  -0.002   0.001   0.003
  0.001   0.001  -4.358   0.000  -0.000   8.529  -0.000  -0.000
 -0.000  -0.000   0.000  -4.358   0.000  -0.000   8.528  -0.000
 -0.001  -0.001  -0.000   0.000  -4.357  -0.000  -0.000   8.526
 -0.002  -0.002   8.529  -0.000  -0.000 -18.828   0.000   0.000
  0.001   0.001  -0.000   8.528  -0.000   0.000 -18.826  -0.000
  0.002   0.003  -0.000  -0.000   8.526   0.000  -0.000 -18.823
 total augmentation occupancy for first ion, spin component:           1
  7.606  -3.306  -0.025  -0.014  -0.064   0.006  -0.000  -0.006
 -3.306   1.473   0.001   0.009   0.044  -0.006  -0.000   0.002
 -0.025   0.001   1.588  -0.001   0.011   0.134  -0.000  -0.002
 -0.014   0.009  -0.001   1.602  -0.011  -0.000   0.129   0.000
 -0.064   0.044   0.011  -0.011   1.594  -0.002   0.000   0.133
  0.006  -0.006   0.134  -0.000  -0.002   0.012  -0.000  -0.001
 -0.000  -0.000  -0.000   0.129   0.000  -0.000   0.011   0.000
 -0.006   0.002  -0.002   0.000   0.133  -0.001   0.000   0.012
 total augmentation occupancy for first ion, spin component:           2
  0.000  -0.000  -0.000  -0.000   0.000  -0.000   0.000   0.000
 -0.000   0.000   0.000  -0.000  -0.000   0.000  -0.000  -0.000
 -0.000   0.000   0.000   0.000   0.000  -0.000  -0.000   0.000
 -0.000  -0.000   0.000   0.000   0.000   0.000  -0.000   0.000
  0.000  -0.000   0.000   0.000   0.000   0.000   0.000   0.000
 -0.000   0.000  -0.000   0.000   0.000  -0.000  -0.000   0.000
  0.000  -0.000  -0.000  -0.000   0.000  -0.000  -0.000   0.000
  0.000  -0.000   0.000   0.000   0.000   0.000   0.000   0.000


------------------------ aborting loop because EDIFF is reached ----------------------------------------


    CHARGE:  cpu time      2.3319: real time      2.3365
    FORLOC:  cpu time      0.6462: real time      0.6467
    FORNL :  cpu time      9.1122: real time      9.1316
    STRESS:  cpu time     26.9302: real time     26.9883
    FORCOR:  cpu time      5.6077: real time      5.6137
    FORHAR:  cpu time      1.0252: real time      1.0252
    MIXING:  cpu time      0.1463: real time      0.1466
    OFIELD:  cpu time      0.0000: real time      0.0000

 ---------------------------------------------------------------------------------------------

         DFTD3 V3.0 Rev 1        
 Edisp (eV)   -0.37872

 E6    (eV) :    -0.1566
 E8    (eV) :    -0.2221
 % E8        : 58.64
    FORVDW:  cpu time      0.0081: real time      0.0081

  FORCE on cell =-STRESS in cart. coord.  units (eV):
  Direction    XX          YY          ZZ          XY          YZ          ZX
  --------------------------------------------------------------------------------------
  Alpha Z     0.25995     0.25995     0.25995
  Ewald    4535.79512  2486.48948   405.53483    23.43270    26.76658    10.02110
  Hartree  4742.85186  2893.24148  1364.99564     9.43206    19.04296    10.40485
  E(xc)    -223.76030  -224.06756  -225.98054     0.08387    -0.00117    -0.00823
  Local   -9840.20772 -5937.84582 -2358.94288   -30.91947   -46.00479   -20.66142
  n-local   -98.67708   -99.70089  -106.80841    -0.00331     0.34424     0.05395
  augment    -0.61719    -0.65846     0.06273    -0.02108    -0.02753     0.00054
  Kinetic   884.51105   882.05672   920.62055    -2.03637    -0.10969     0.18735
  Fock        0.00000     0.00000     0.00000     0.00000     0.00000     0.00000
  vdW        -0.12821    -0.04636     0.03019    -0.00066     0.00098     0.00243
  -------------------------------------------------------------------------------------
  Total       0.02746    -0.27146    -0.22794    -0.03227     0.01158     0.00057
  in kB       0.00069    -0.00680    -0.00571    -0.00081     0.00029     0.00001
  external pressure =       -0.00 kB  Pullay stress =        0.00 kB


 VOLUME and BASIS-vectors are now :
 -----------------------------------------------------------------------------
  energy-cutoff  :      500.00
  volume of cell :    64000.00
      direct lattice vectors                 reciprocal lattice vectors
    40.000000000  0.000000000  0.000000000     0.025000000  0.000000000  0.000000000
     0.000000000 40.000000000  0.000000000     0.000000000  0.025000000  0.000000000
     0.000000000  0.000000000 40.000000000     0.000000000  0.000000000  0.025000000

  length of vectors
    40.000000000 40.000000000 40.000000000     0.025000000  0.025000000  0.025000000


 FORCES acting on ions
    electron-ion (+dipol)            ewald-force                    non-local-force                 convergence-correction
 -----------------------------------------------------------------------------------------------
   -.267E+02 0.182E+03 0.461E+01   0.276E+02 -.183E+03 -.436E+01   -.809E+00 0.494E+00 -.254E+00   -.284E-02 -.477E-02 -.113E-02
   -.428E+02 0.183E+01 -.154E+01   0.480E+02 -.776E+00 0.149E+01   -.517E+01 -.106E+01 0.538E-01   -.812E-02 0.835E-02 -.319E-02
   -.335E+02 -.198E+03 0.142E+01   0.339E+02 0.199E+03 -.164E+01   -.381E+00 -.114E+01 0.235E+00   -.980E-02 -.472E-03 -.396E-02
   -.139E+03 -.167E+03 -.667E+01   0.139E+03 0.167E+03 0.657E+01   -.227E+00 0.157E+00 0.926E-01   -.602E-03 0.877E-02 -.104E-02
   -.207E+03 0.769E+01 0.765E+02   0.207E+03 -.748E+01 -.765E+02   -.129E+00 -.213E+00 0.577E-02   0.331E-02 -.187E-02 -.406E-02
   -.146E+03 0.143E+03 -.779E+02   0.146E+03 -.143E+03 0.779E+02   -.621E+00 -.168E+00 0.580E-01   0.107E-02 -.794E-02 0.379E-02
   0.753E+02 -.220E+03 -.635E+01   -.777E+02 0.223E+03 0.645E+01   0.239E+01 -.379E+01 -.983E-01   0.157E-02 -.114E-02 0.856E-03
   0.215E+03 -.997E+02 -.546E+02   -.216E+03 0.999E+02 0.547E+02   0.772E+00 -.198E+00 -.486E-01   0.324E-02 0.671E-02 0.330E-02
   0.206E+03 0.101E+03 0.786E+02   -.207E+03 -.102E+03 -.787E+02   0.794E+00 0.172E+00 0.161E+00   -.201E-02 -.268E-02 -.409E-02
   0.716E+02 0.218E+03 -.283E+01   -.741E+02 -.222E+03 0.250E+01   0.242E+01 0.382E+01 0.329E+00   0.285E-02 0.187E-02 -.314E-03
   0.307E+02 0.945E+00 -.161E+02   -.316E+02 -.126E+01 0.176E+02   0.787E+00 0.289E+00 -.153E+01   0.895E-02 0.739E-02 -.930E-03
   -.525E+02 0.777E+02 0.206E+01   0.551E+02 -.825E+02 -.295E+01   -.255E+01 0.478E+01 0.888E+00   -.141E-04 -.133E-02 0.295E-03
   -.330E+02 0.113E+02 -.846E+02   0.335E+02 -.103E+02 0.899E+02   -.504E+00 -.101E+01 -.533E+01   -.616E-05 -.124E-02 0.130E-02
   -.933E+02 -.111E+01 -.270E+01   0.987E+02 0.128E+01 0.362E+01   -.540E+01 -.178E+00 -.924E+00   0.205E-02 0.521E-04 0.123E-03
   -.298E+02 0.130E+02 0.837E+02   0.292E+02 -.140E+02 -.890E+02   0.607E+00 0.941E+00 0.531E+01   -.173E-03 -.464E-03 -.191E-02
   -.404E+02 -.699E+02 0.450E+02   0.419E+02 0.737E+02 -.486E+02   -.156E+01 -.381E+01 0.352E+01   0.193E-03 0.184E-02 -.305E-03
   -.460E+02 -.469E+02 -.641E+02   0.479E+02 0.486E+02 0.688E+02   -.184E+01 -.165E+01 -.469E+01   0.654E-03 0.176E-02 0.917E-03
   0.151E+02 -.896E+02 0.558E+00   -.179E+02 0.944E+02 -.565E+00   0.279E+01 -.486E+01 0.112E-01   -.126E-02 -.100E-03 -.646E-03
   -.365E+01 0.761E+02 0.535E+02   0.568E+01 -.797E+02 -.573E+02   -.203E+01 0.359E+01 0.380E+01   0.128E-02 -.186E-02 -.159E-02
   0.186E+02 0.653E+02 -.672E+02   -.188E+02 -.680E+02 0.719E+02   0.181E+00 0.267E+01 -.473E+01   0.453E-03 -.127E-02 0.230E-02
   0.759E+02 0.537E+02 -.103E+02   -.800E+02 -.571E+02 0.119E+02   0.410E+01 0.345E+01 -.155E+01   -.112E-02 -.120E-02 -.202E-03
   0.379E+02 0.746E+01 0.837E+02   -.383E+02 -.689E+01 -.892E+02   0.341E+00 -.567E+00 0.548E+01   0.148E-03 -.875E-04 -.156E-02
   0.742E+02 -.530E+02 0.204E+02   -.781E+02 0.564E+02 -.225E+02   0.387E+01 -.341E+01 0.214E+01   -.139E-03 0.142E-02 0.543E-04
   0.489E+02 -.707E+01 -.783E+02   -.500E+02 0.650E+01 0.837E+02   0.116E+01 0.571E+00 -.537E+01   0.722E-03 0.474E-03 0.135E-02
   0.138E+01 -.733E+02 -.592E+02   0.165E+00 0.766E+02 0.633E+02   -.155E+01 -.336E+01 -.411E+01   0.317E-03 0.215E-03 0.239E-03
   0.108E+02 -.684E+02 0.648E+02   -.102E+02 0.712E+02 -.694E+02   -.567E+00 -.283E+01 0.458E+01   0.307E-03 0.424E-03 -.171E-03
   0.146E+02 0.743E+02 -.517E+02   -.170E+02 -.777E+02 0.552E+02   0.245E+01 0.337E+01 -.356E+01   -.134E-02 -.176E-02 0.639E-03
   -.373E+01 0.616E+02 0.700E+02   0.322E+01 -.639E+02 -.748E+02   0.513E+00 0.238E+01 0.482E+01   -.884E-03 -.138E-02 -.166E-02
 -----------------------------------------------------------------------------------------------
   0.149E+00 0.155E+01 0.703E+00   0.190E-12 0.142E-13 0.711E-13   -.168E+00 -.156E+01 -.706E+00   -.119E-02 0.972E-02 -.116E-01
 
 
 POSITION                                       TOTAL-FORCE (eV/Angst)
 -----------------------------------------------------------------------------------
     21.09658     18.75838     20.06018         0.012954      0.000860      0.002830
     20.38635     20.09633     20.03994         0.002187      0.010020      0.001077
     21.07794     21.27000     20.00950         0.003781     -0.012649      0.003954
     22.58175     21.35334     19.98172        -0.000830     -0.001625      0.000023
     23.23451     20.01537     19.62397         0.001640     -0.003736     -0.003600
     22.58008     18.88365     20.41631         0.004309     -0.001699      0.001597
     18.18509     21.24001     20.08316        -0.002988     -0.007094     -0.000891
     16.75973     20.70763     20.26163        -0.004842      0.005874     -0.000231
     16.81776     19.33491     19.57944        -0.005175     -0.006906     -0.002142
     18.20790     18.81842     19.96707        -0.011568      0.008041     -0.003233
     19.00698     20.04007     20.05876        -0.006884     -0.014171      0.002891
     23.08743     17.92452     20.23143        -0.000196      0.005761     -0.000541
     22.67901     19.09298     21.49503         0.003048      0.005463     -0.001314
     24.31769     20.05133     19.81610         0.002861     -0.000555      0.000481
     23.10499     19.81957     18.54566         0.002302      0.000715     -0.002690
     22.90103     22.12753     19.26320        -0.002547     -0.003792     -0.004377
     22.97228     21.69262     20.96213        -0.000807     -0.002568      0.004372
     20.53276     22.21469     20.00903         0.002362      0.009416      0.002888
     18.61193     18.12068     19.21887         0.004352     -0.000364     -0.008731
     18.16955     18.27879     20.93422        -0.000135     -0.001869      0.006517
     16.01387     18.65561     19.89114         0.004700      0.003042      0.004191
     16.75823     19.45420     18.48683        -0.004444     -0.001916      0.000346
     16.00272     21.37711     19.83434        -0.002740     -0.002778     -0.005627
     16.53751     20.58687     21.33294        -0.007757      0.001468      0.000127
     18.49280     21.90831     20.90607        -0.000265      0.006628      0.007053
     18.29610     21.81675     19.14247         0.000336      0.002906     -0.008959
     20.59728     18.08657     20.77610         0.003347      0.000183      0.007799
     20.99016     18.27383     19.07281         0.002996      0.001345     -0.003811
 -----------------------------------------------------------------------------------
    total drift:                               -0.020509      0.006859     -0.014248


--------------------------------------------------------------------------------------------------------



  FREE ENERGIE OF THE ION-ELECTRON SYSTEM (eV)
  ---------------------------------------------------
  free  energy   TOTEN  =      -161.13276423 eV

  energy  without entropy=     -161.13276423  energy(sigma->0) =     -161.13276423
 
 d Force = 0.5051780E-04[ 0.144E-04, 0.866E-04]  d Energy = 0.5218442E-04-0.167E-05
 d Force =-0.3320117E+00[-0.332E+00,-0.332E+00]  d Ewald  =-0.3320117E+00-0.383E-08


--------------------------------------------------------------------------------------------------------


    --------------------------------------------
      INIT:  cpu time      0.3783: real time      0.3781
  FINALIZE:  cpu time     80.7260: real time     80.6737
    --------------------------------------------
    POTLOK:  cpu time     87.2145: real time     87.1702


--------------------------------------------------------------------------------------------------------


 Conjugate gradient step on ions:
 trial-energy change:   -0.000052  1 .order   -0.000051   -0.000087   -0.000014
  (g-gl).g = 0.130E-03      g.g   = 0.123E-03  gl.gl    = 0.353E-03
 g(Force)  = 0.123E-03   g(Stress)= 0.000E+00 ortho     =-0.454E-05
 gamma     =   0.36740
 trial     =   0.71471
 opt step  =   0.85721  (harmonic =   0.85721) maximal distance =0.00068037
 next E    =  -161.132764   (d E  =  -0.00005)


--------------------------------------------------------------------------------------------------------


  
 reached required accuracy - stopping structural energy minimisation
 writing wavefunctions
     LOOP+:  cpu time    382.7048: real time    384.6088
    4ORBIT:  cpu time      0.0000: real time      0.0000

 total amount of memory used by VASP MPI-rank0   693842. kBytes
=======================================================================

   base      :      30000. kBytes
   nonlr-proj:       2725. kBytes
   fftplans  :     167689. kBytes
   grid      :     451809. kBytes
   one-center:         18. kBytes
   wavefun   :      41601. kBytes
 
  
  
 General timing and accounting informations for this job:
 ========================================================
  
                  Total CPU time used (sec):     8087.057
                            User time (sec):     7632.404
                          System time (sec):      454.652
                         Elapsed time (sec):     8094.352
  
                   Maximum memory used (kb):     2322168.
                   Average memory used (kb):          N/A
  
                          Minor page faults:     87216679
                          Major page faults:            0
                 Voluntary context switches:       295959
