
                                 *****************
                                 * O   R   C   A *
                                 *****************

                                            #,                                       
                                            ###                                      
                                            ####                                     
                                            #####                                    
                                            ######                                   
                                           ########,                                 
                                     ,,################,,,,,                         
                               ,,#################################,,                 
                          ,,##########################################,,             
                       ,#########################################, ''#####,          
                    ,#############################################,,   '####,        
                  ,##################################################,,,,####,       
                ,###########''''           ''''###############################       
              ,#####''   ,,,,##########,,,,          '''####'''          '####       
            ,##' ,,,,###########################,,,                        '##       
           ' ,,###''''                  '''############,,,                           
         ,,##''                                '''############,,,,        ,,,,,,###''
      ,#''                                            '''#######################'''  
     '                                                          ''''####''''         
             ,#######,   #######,   ,#######,      ##                                
            ,#'     '#,  ##    ##  ,#'     '#,    #''#        ,####,   ,####,        
            ##       ##  ##   ,#'  ##            #'  '#       #'       #'  '#        
            ##       ##  #######   ##           ,######,      #####,   #    #        
            '#,     ,#'  ##    ##  '#,     ,#' ,#      #,     #,   #   #,  ,#        
             '#######'   ##     ##  '#######'  #'      '#     '####' # '####'        



                #########################################################
                #                        -***-                          #
                #          Department of theory and spectroscopy        #
                #                                                       #
                #                      Frank Neese                      #
                #                                                       #
                #     Directorship, Architecture, Infrastructure        #
                #                    SHARK, DRIVERS                     #
                #        Core code/Algorithms in most modules           #
                #                                                       #
                #        Max Planck Institute fuer Kohlenforschung      #
                #                Kaiser Wilhelm Platz 1                 #
                #                 D-45470 Muelheim/Ruhr                 #
                #                      Germany                          #
                #                                                       #
                #                  All rights reserved                  #
                #                        -***-                          #
                #########################################################


                         Program Version 6.0.0  -   RELEASE  -


 With contributions from (in alphabetic order):
   Daniel Aravena         : Magnetic Suceptibility
   Michael Atanasov       : Ab Initio Ligand Field Theory (pilot matlab implementation)
   Alexander A. Auer      : GIAO ZORA, VPT2 properties, NMR spectrum
   Ute Becker             : All parallelization in ORCA, NUMFREQ, NUMCALC
   Giovanni Bistoni       : ED, misc. LED, open-shell LED, HFLD
   Martin Brehm           : Molecular dynamics
   Dmytro Bykov           : pre 5.0 version of the SCF Hessian
   Marcos Casanova-Páez   : Triplet and SCS-CIS(D). UHF-(DLPNO)-IP/EA/STEOM-CCSD. UHF-CVS-IP/STEOM-CCSD
   Vijay G. Chilkuri      : MRCI spin determinant printing, contributions to CSF-ICE
   Pauline Colinet        : FMM embedding
   Dipayan Datta          : RHF DLPNO-CCSD density
   Achintya Kumar Dutta   : EOM-CC, STEOM-CC
   Nicolas Foglia         : Exact transition moments, OPA infrastructure, MCD improvements
   Dmitry Ganyushin       : Spin-Orbit,Spin-Spin,Magnetic field MRCI
   Miquel Garcia          : C-PCM and meta-GGA Hessian, CCSD/C-PCM, Gaussian charge scheme
   Tiago L. C. Gouveia    : GS-ROHF, GS-ROCIS
   Yang Guo               : DLPNO-NEVPT2, F12-NEVPT2, CIM, IAO-localization
   Andreas Hansen         : Spin unrestricted coupled pair/coupled cluster methods
   Ingolf Harden          : AUTO-CI MPn and infrastructure 
   Benjamin Helmich-Paris : MC-RPA, TRAH-(SCF,CASSCF), AVAS, COSX integrals, SCF dyn. polar.
   Lee Huntington         : MR-EOM, pCC
   Robert Izsak           : Overlap fitted RIJCOSX, COSX-SCS-MP3, EOM
   Riya Kayal             : Wick's Theorem for AUTO-CI, AUTO-CI UHF-CCSDT
   Emily Kempfer          : AUTO-CI, RHF CISDT and CCSDT
   Christian Kollmar      : KDIIS, OOCD, Brueckner-CCSD(T), CCSD density, CASPT2, CASPT2-K, improved NEVPT2
   Axel Koslowski         : Symmetry handling
   Simone Kossmann        : Meta GGA functionals, TD-DFT gradient, OOMP2, (MP2 Hessian; deprecated post 5.0)
   Lucas Lang             : DCDCAS
   Marvin Lechner         : AUTO-CI (C++ implementation), FIC-MRCC
   Spencer Leger          : CASSCF response
   Dagmar Lenk            : GEPOL surface, SMD, ORCA-2-JSON
   Dimitrios Liakos       : Extrapolation schemes; Compound Job, initial MDCI parallelization
   Dimitrios Manganas     : Further ROCIS development; embedding schemes. LFT, Crystal Embedding
   Dimitrios Pantazis     : SARC Basis sets
   Anastasios Papadopoulos: AUTO-CI, single reference methods and gradients
   Taras Petrenko         : pre 6.0 DFT Hessian and TD-DFT gradient, (ASA, deprecated), ECA, 1-Electron XAS/XES, NRVS
   Peter Pinski           : DLPNO-MP2, DLPNO-MP2 Gradient
   Christoph Reimann      : Effective Core Potentials
   Marius Retegan         : Local ZFS, SOC
   Christoph Riplinger    : Optimizer, TS searches, QM/MM, DLPNO-CCSD(T), (RO)-DLPNO pert. Triples
   Michael Roemelt        : Original ROCIS implementation
   Masaaki Saitow         : Open-shell DLPNO-CCSD energy and density
   Barbara Sandhoefer     : DKH picture change effects
   Kantharuban Sivalingam : CASSCF convergence/infrastructure, NEVPT2 and variants, FIC-MRCI
   Bernardo de Souza      : ESD, SOC TD-DFT
   Georgi Stoychev        : AutoAux, RI-MP2 NMR, DLPNO-MP2 response, X2C
   Van Anh Tran           : RI-MP2 g-tensors
   Willem Van den Heuvel  : Paramagnetic NMR
   Zikuan Wang            : NOTCH, Electric field optimization 
   Frank Wennmohs         : Technical directorship and infrastructure
   Hang Xu                : AUTO-CI-Response properties 


 We gratefully acknowledge several colleagues who have allowed us to
 interface, adapt or use parts of their codes:
   Stefan Grimme, W. Hujo, H. Kruse, P. Pracht,  : VdW corrections, initial TS optimization,
                  C. Bannwarth, S. Ehlert,         DFT functionals, gCP, sTDA/sTD-DF
                  L. Wittmann, M. Mueller
   Ed Valeev, F. Pavosevic, A. Kumar             : LibInt (2-el integral package), F12 methods
   Garnet Chan, S. Sharma, J. Yang, R. Olivares  : DMRG
   Ulf Ekstrom                                   : XCFun DFT Library
   Mihaly Kallay                                 : mrcc  (arbitrary order and MRCC methods)
   Frank Weinhold                                : gennbo (NPA and NBO analysis)
   Simon Mueller                                 : openCOSMO-RS
   Christopher J. Cramer and Donald G. Truhlar   : smd solvation model
   Lars Goerigk                                  : TD-DFT with DH, B97 family of functionals
   V. Asgeirsson, H. Jonsson                     : NEB implementation
   FAccTs GmbH                                   : IRC, NEB, NEB-TS, DLPNO-Multilevel, CI-OPT
                                                   MM, QMMM, 2- and 3-layer-ONIOM, Crystal-QMMM,
                                                   LR-CPCM, SF, NACMEs, symmetry and pop. for TD-DFT,
                                                   nearIR, NL-DFT gradient (VV10), updates on ESD,
                                                   ML-optimized integration grids, MBIS, APM,
                                                   GOAT, DOCKER, SOLVATOR, interface openCOSMO-RS
   S Lehtola, MJT Oliveira, MAL Marques          : LibXC Library
   Liviu Ungur et al                             : ANISO software


 Your calculation uses the libint2 library for the computation of 2-el integrals
 For citations please refer to: http://libint.valeyev.net

 Your ORCA version has been built with support for libXC version: 6.2.2
 For citations please refer to: https://libxc.gitlab.io

 This ORCA versions uses:
   CBLAS   interface :  Fast vector & matrix operations
   LAPACKE interface :  Fast linear algebra routines
   SCALAPACK package :  Parallel linear algebra routines
   Shared memory     :  Shared parallel matrices
   BLAS/LAPACK       :  OpenBLAS 0.3.27  USE64BITINT DYNAMIC_ARCH NO_AFFINITY Haswell SINGLE_THREADED
        Core in use  :  Haswell
   Copyright (c) 2011-2014, The OpenBLAS Project


NOTE: MaxCore=3000 MB was set to SCF,MP2,MDCI,CIPSI,MRCI and CIS
      => If you want to overwrite this, your respective input block should be placed after the MaxCore statement
Your calculation utilizes the atom-pairwise dispersion correction
with the Becke-Johnson damping scheme (D3BJ)


Your calculation utilizes the SMD solvation module
Please cite in your paper:
A.V. Marenich, C.J. Cramer, D.G. Truhlar J. Phys. Chem. B, 113, (2009), 6378 

Warning: RI is on but no J-basis has been assigned. Assigning Def2/J (nothing to worry about!)
================================================================================

----- Orbital basis set information -----
Your calculation utilizes the basis: aug-cc-pVTZ 
    H, B-Ne : Obtained from the ccRepo (grant-hill.group.shef.ac.uk/ccrepo) Feb. 2017
              R. A. Kendall, T. H. Dunning, Jr., R. J. Harrison, J. Chem. Phys. 96, 6796 (1992)
         He : Obtained from the ccRepo (grant-hill.group.shef.ac.uk/ccrepo) Feb. 2017
              D. E. Woon, T. H. Dunning, Jr., J. Chem. Phys. 100, 2975 (1994)
  Li-Be, Na : Obtained from the ccRepo (grant-hill.group.shef.ac.uk/ccrepo) Feb. 2017
              B. P. Prascher, D. E. Woon, K. A. Peterson, T. H. Dunning, Jr., A. K. Wilson, Theor. Chem. Acc. 128, 69 (2011)
         Mg : Obtained from the Peterson Research Group Website (tyr0.chem.wsu.edu/~kipeters) Feb. 2017
              B. P. Prascher, D. E. Woon, K. A. Peterson, T. H. Dunning, Jr., A. K. Wilson, Theor. Chem. Acc. 128, 69 (2011)
      Al-Ar : Obtained from the ccRepo (grant-hill.group.shef.ac.uk/ccrepo) Feb. 2017
              D. E. Woon, T. H. Dunning, Jr., J. Chem. Phys. 98, 1358 (1993)
      Sc-Zn : Obtained from the ccRepo (grant-hill.group.shef.ac.uk/ccrepo) Feb. 2017
              N. B. Balabanov, K. A. Peterson, J. Chem. Phys. 123, 064107 (2005)
              N. B. Balabanov, K. A. Peterson, J. Chem. Phys. 125, 074110 (2006)
      Ga-Kr : Obtained from the ccRepo (grant-hill.group.shef.ac.uk/ccrepo) Feb. 2017
              A. K. Wilson, D. E. Woon, K. A. Peterson, T. H. Dunning, Jr., J. Chem. Phys. 110, 7667 (1999)
     Ag, Au : Obtained from the Peterson Research Group Website (tyr0.chem.wsu.edu/~kipeters) Feb. 2017
              K. A. Peterson, C. Puzzarini, Theor. Chem. Acc. 114, 283 (2005)

----- AuxJ basis set information -----
Your calculation utilizes the auxiliary basis: def2/J
   F. Weigend, Phys. Chem. Chem. Phys. 8, 1057 (2006).

================================================================================
                                        WARNINGS
                       Please study these warnings very carefully!
================================================================================


================================================================================
                                       INPUT FILE
================================================================================
NAME = cs_rporg_017_red_solv_01.inp
|  1> !TPSSh aug-cc-pVTZ d3 TightSCF SlowConv RIJCOSX defgrid2
|  2>  
|  3> %pal
|  4> nprocs 4
|  5> end
|  6>  
|  7> %scf
|  8> MaxIter 1500
|  9> end
| 10>  
| 11> %maxcore 3000
| 12>  
| 13> !CPCM
| 14> %cpcm smd true
| 15> SMDsolvent "MeCN"
| 16> surfacetype gepol_ses
| 17> rsolv 2.19
| 18> end 
| 19>  
| 20> * xyz 0 1
| 21> C          -0.09723520138673     -1.03437639103764      0.00347054225631
| 22> C          -1.47492894930884     -1.20047361725562      0.00696317861110
| 23> C          -2.34578623174672     -0.10040313113454      0.00646178626940
| 24> C          -1.77456389354337      1.17444029815347      0.00609068858276
| 25> C          -0.39219290951861      1.34431389323203      0.00262007400835
| 26> C           0.48066721969256      0.24734111354836      0.00061801253520
| 27> C           1.92745712323043      0.48416048286104     -0.00147397271183
| 28> C           2.90821751377421     -0.43224406598278     -0.00115903608211
| 29> C           4.36623513102305     -0.11505487673646     -0.00400250033420
| 30> H           4.87200794201926     -0.54390247209158      0.88189528271805
| 31> H           4.86926753302145     -0.54728733840504     -0.88981811387895
| 32> H           4.54542156577808      0.97343112133202     -0.00638255069427
| 33> H           2.64848728832259     -1.49940771664298      0.00136069468406
| 34> H           2.21863839458192      1.54365509753515     -0.00378021817366
| 35> H           0.02556550649537      2.35646498548500      0.00378810560732
| 36> H          -2.42480036039019      2.05550589684769      0.01005021755173
| 37> C          -3.83450513941386     -0.29675754696210     -0.01137750175061
| 38> H          -4.36818359568584      0.64375253893058      0.20246833077396
| 39> H          -4.17808733966479     -0.65741939040861     -0.99869388532750
| 40> H          -4.15169482101390     -1.04597884024218      0.73497377180135
| 41> H          -1.89116416828829     -2.21365122416981      0.01168808196327
| 42> H           0.54303149202221     -1.92102021685601      0.00533651159029
| 43> *
| 44> 
| 45>                          ****END OF INPUT****
================================================================================

                       ****************************
                       * Single Point Calculation *
                       ****************************

---------------------------------
CARTESIAN COORDINATES (ANGSTROEM)
---------------------------------
  C     -0.097235   -1.034376    0.003471
  C     -1.474929   -1.200474    0.006963
  C     -2.345786   -0.100403    0.006462
  C     -1.774564    1.174440    0.006091
  C     -0.392193    1.344314    0.002620
  C      0.480667    0.247341    0.000618
  C      1.927457    0.484160   -0.001474
  C      2.908218   -0.432244   -0.001159
  C      4.366235   -0.115055   -0.004003
  H      4.872008   -0.543902    0.881895
  H      4.869268   -0.547287   -0.889818
  H      4.545422    0.973431   -0.006383
  H      2.648487   -1.499408    0.001361
  H      2.218638    1.543655   -0.003780
  H      0.025566    2.356465    0.003788
  H     -2.424800    2.055506    0.010050
  C     -3.834505   -0.296758   -0.011378
  H     -4.368184    0.643753    0.202468
  H     -4.178087   -0.657419   -0.998694
  H     -4.151695   -1.045979    0.734974
  H     -1.891164   -2.213651    0.011688
  H      0.543031   -1.921020    0.005337

----------------------------
CARTESIAN COORDINATES (A.U.)
----------------------------
  NO LB      ZA    FRAG     MASS         X           Y           Z
   0 C     6.0000    0    12.011   -0.183748   -1.954688    0.006558
   1 C     6.0000    0    12.011   -2.787212   -2.268566    0.013159
   2 C     6.0000    0    12.011   -4.432894   -0.189734    0.012211
   3 C     6.0000    0    12.011   -3.353440    2.219371    0.011510
   4 C     6.0000    0    12.011   -0.741137    2.540385    0.004951
   5 C     6.0000    0    12.011    0.908329    0.467407    0.001168
   6 C     6.0000    0    12.011    3.642366    0.914931   -0.002785
   7 C     6.0000    0    12.011    5.495735   -0.816823   -0.002190
   8 C     6.0000    0    12.011    8.250989   -0.217422   -0.007564
   9 H     1.0000    0     1.008    9.206761   -1.027827    1.666541
  10 H     1.0000    0     1.008    9.201582   -1.034223   -1.681513
  11 H     1.0000    0     1.008    8.589602    1.839518   -0.012061
  12 H     1.0000    0     1.008    5.004916   -2.833470    0.002571
  13 H     1.0000    0     1.008    4.192619    2.917085   -0.007144
  14 H     1.0000    0     1.008    0.048312    4.453073    0.007158
  15 H     1.0000    0     1.008   -4.582209    3.884343    0.018992
  16 C     6.0000    0    12.011   -7.246165   -0.560790   -0.021500
  17 H     1.0000    0     1.008   -8.254671    1.216516    0.382610
  18 H     1.0000    0     1.008   -7.895441   -1.242343   -1.887258
  19 H     1.0000    0     1.008   -7.845566   -1.976614    1.388899
  20 H     1.0000    0     1.008   -3.573782   -4.183195    0.022087
  21 H     1.0000    0     1.008    1.026181   -3.630202    0.010085

--------------------------------
INTERNAL COORDINATES (ANGSTROEM)
--------------------------------
 C      0   0   0     0.000000000000     0.00000000     0.00000000
 C      1   0   0     1.387674511595     0.00000000     0.00000000
 C      2   1   0     1.403049440399   121.49178905     0.00000000
 C      3   2   1     1.396968455827   117.49769646   359.82484174
 C      4   3   2     1.392773714910   121.14148423     0.17277677
 C      5   4   3     1.401869499199   121.50361741   359.93998257
 C      6   5   4     1.466045297753   119.21321614   180.06938830
 C      7   6   5     1.342269846188   127.64669554   179.87192041
 C      8   7   6     1.492123466497   124.66938438   179.97157302
 H      9   8   7     1.106585413966   111.26626706   120.79657252
 H      9   8   7     1.106587456815   111.26505655   239.21125212
 H      9   8   7     1.103138799531   111.62170137     0.00000000
 H      8   7   6     1.098318895561   119.37819647   359.97035121
 H      7   6   5     1.098781456923   114.66340079   359.85717844
 H      5   4   3     1.094976388785   119.43346523   180.08225084
 H      4   3   2     1.095034122706   119.43613421   180.26163568
 C      3   2   1     1.501718110318   120.85068064   179.03773853
 H     17   3   2     1.102316631664   111.47449485   168.07532155
 H     17   3   2     1.105856832925   111.17718040   288.03176121
 H     17   3   2     1.104075207561   111.43844042    47.34977646
 H      2   1   3     1.095355168602   119.20873190   180.09017658
 H      1   2   3     1.093655427633   118.95901988   179.92082623

---------------------------
INTERNAL COORDINATES (A.U.)
---------------------------
 C      0   0   0     0.000000000000     0.00000000     0.00000000
 C      1   0   0     2.622324789937     0.00000000     0.00000000
 C      2   1   0     2.651379194706   121.49178905     0.00000000
 C      3   2   1     2.639887799239   117.49769646   359.82484174
 C      4   3   2     2.631960887704   121.14148423     0.17277677
 C      5   4   3     2.649149428983   121.50361741   359.93998257
 C      6   5   4     2.770424112676   119.21321614   180.06938830
 C      7   6   5     2.536522407116   127.64669554   179.87192041
 C      8   7   6     2.819704709677   124.66938438   179.97157302
 H      9   8   7     2.091143376187   111.26626706   120.79657252
 H      9   8   7     2.091147236613   111.26505655   239.21125212
 H      9   8   7     2.084630218817   111.62170137     0.00000000
 H      8   7   6     2.075521920321   119.37819647   359.97035121
 H      7   6   5     2.076396034615   114.66340079   359.85717844
 H      5   4   3     2.069205497914   119.43346523   180.08225084
 H      4   3   2     2.069314599212   119.43613421   180.26163568
 C      3   2   1     2.837835958851   120.85068064   179.03773853
 H     17   3   2     2.083076546711   111.47449485   168.07532155
 H     17   3   2     2.089766557554   111.17718040   288.03176121
 H     17   3   2     2.086399773542   111.43844042    47.34977646
 H      2   1   3     2.069921288033   119.20873190   180.09017658
 H      1   2   3     2.066709243104   118.95901988   179.92082623

---------------------
BASIS SET INFORMATION
---------------------
There are 2 groups of distinct atoms

 Group   1 Type C   : 19s6p3d2f contracted to 5s4p3d2f pattern {88111/3111/111/11}
 Group   2 Type H   : 6s3p2d contracted to 4s3p2d pattern {3111/111/11}

Atom   0C    basis set group =>   1
Atom   1C    basis set group =>   1
Atom   2C    basis set group =>   1
Atom   3C    basis set group =>   1
Atom   4C    basis set group =>   1
Atom   5C    basis set group =>   1
Atom   6C    basis set group =>   1
Atom   7C    basis set group =>   1
Atom   8C    basis set group =>   1
Atom   9H    basis set group =>   2
Atom  10H    basis set group =>   2
Atom  11H    basis set group =>   2
Atom  12H    basis set group =>   2
Atom  13H    basis set group =>   2
Atom  14H    basis set group =>   2
Atom  15H    basis set group =>   2
Atom  16C    basis set group =>   1
Atom  17H    basis set group =>   2
Atom  18H    basis set group =>   2
Atom  19H    basis set group =>   2
Atom  20H    basis set group =>   2
Atom  21H    basis set group =>   2
---------------------------------
AUXILIARY/J BASIS SET INFORMATION
---------------------------------
There are 2 groups of distinct atoms

 Group   1 Type C   : 12s5p4d2f1g contracted to 6s4p3d1f1g pattern {711111/2111/211/2/1}
 Group   2 Type H   : 5s2p1d contracted to 3s1p1d pattern {311/2/1}

Atom   0C    basis set group =>   1
Atom   1C    basis set group =>   1
Atom   2C    basis set group =>   1
Atom   3C    basis set group =>   1
Atom   4C    basis set group =>   1
Atom   5C    basis set group =>   1
Atom   6C    basis set group =>   1
Atom   7C    basis set group =>   1
Atom   8C    basis set group =>   1
Atom   9H    basis set group =>   2
Atom  10H    basis set group =>   2
Atom  11H    basis set group =>   2
Atom  12H    basis set group =>   2
Atom  13H    basis set group =>   2
Atom  14H    basis set group =>   2
Atom  15H    basis set group =>   2
Atom  16C    basis set group =>   1
Atom  17H    basis set group =>   2
Atom  18H    basis set group =>   2
Atom  19H    basis set group =>   2
Atom  20H    basis set group =>   2
Atom  21H    basis set group =>   2


           ************************************************************
           *        Program running with 4 parallel MPI-processes     *
           *              working on a common directory               *
           ************************************************************
------------------------------------------------------------------------------
                             ORCA STARTUP CALCULATIONS
                           -- RI-GTO INTEGRALS CHOSEN --
------------------------------------------------------------------------------
------------------------------------------------------------------------------
                   ___                                                        
                  /   \      - P O W E R E D   B Y -                         
                 /     \                                                     
                 |  |  |   _    _      __       _____    __    __             
                 |  |  |  | |  | |    /  \     |  _  \  |  |  /  |          
                  \  \/   | |  | |   /    \    | | | |  |  | /  /          
                 / \  \   | |__| |  /  /\  \   | |_| |  |  |/  /          
                |  |  |   |  __  | /  /__\  \  |    /   |      \           
                |  |  |   | |  | | |   __   |  |    \   |  |\   \          
                \     /   | |  | | |  |  |  |  | |\  \  |  | \   \       
                 \___/    |_|  |_| |__|  |__|  |_| \__\ |__|  \__/        
                                                                              
                      - O R C A' S   B I G   F R I E N D -                    
                                      &                                       
                       - I N T E G R A L  F E E D E R -                       
                                                                              
 v1 FN, 2020, v2 2021, v3 2022-2024                                           
------------------------------------------------------------------------------


----------------------
SHARK INTEGRAL PACKAGE
----------------------

Number of atoms                             ...     22
Number of basis functions                   ...    796
Number of shells                            ...    308
Maximum angular momentum                    ...      3
Integral batch strategy                     ... SHARK/LIBINT Hybrid
RI-J (if used) integral strategy            ... SPLIT-RIJ (Revised 2003 algorithm where possible)
Printlevel                                  ...      1
Contraction scheme used                     ... PARTIAL GENERAL contraction
Prescreening option                         ... SCHWARTZ
   Thresh                                   ... 2.500e-11
   Tcut                                     ... 2.500e-12
   Tpresel                                  ... 2.500e-12 
Coulomb Range Separation                    ... NOT USED
Exchange Range Separation                   ... NOT USED
Multipole approximations                    ... NOT USED
Finite Nucleus Model                        ... NOT USED
CABS basis                                  ... NOT available
Auxiliary Coulomb fitting basis             ... AVAILABLE
   # of basis functions in Aux-J            ...    622
   # of shells in Aux-J                     ...    210
   Maximum angular momentum in Aux-J        ...      4
Auxiliary J/K fitting basis                 ... NOT available
Auxiliary Correlation fitting basis         ... NOT available
Auxiliary 'external' fitting basis          ... NOT available

Checking pre-screening integrals            ... done (  0.0 sec) Dimension = 308
Save PGC pre-screening integrals            ... done (  0.0 sec) Dimension = 308
Calculate PGC overlap integrals             ... done (  0.1 sec) Dimension = 248
Calculating pre-screening integrals (ORCA)  ... done (  0.4 sec) Dimension = 248
Check shell pair data                       ... done (  0.0 sec)
Shell pair information
Shell pair cut-off parameter TPreSel        ...   2.5e-12
Total number of shell pairs                 ...     47586
Shell pairs after pre-screening             ...     38279
Total number of primitive shell pairs       ...     62194
Primitive shell pairs kept                  ...     45948
          la=0 lb=0:   8727 shell pairs
          la=1 lb=0:   9902 shell pairs
          la=1 lb=1:   2625 shell pairs
          la=2 lb=0:   6884 shell pairs
          la=2 lb=1:   3620 shell pairs
          la=2 lb=2:   1274 shell pairs
          la=3 lb=0:   2683 shell pairs
          la=3 lb=1:   1384 shell pairs
          la=3 lb=2:    979 shell pairs
          la=3 lb=3:    201 shell pairs

Calculating one electron integrals          ... done (  0.1 sec)
Calculating RI/J V-Matrix + Cholesky decomp.... done (  0.1 sec)
Calculating Nuclear repulsion               ... done (  0.0 sec) ENN=    465.630433907427 Eh

Diagonalization of the overlap matrix:
Smallest eigenvalue                        ... 4.136e-07
Time for diagonalization                   ...    0.122 sec
Threshold for overlap eigenvalues          ... 1.000e-07
Number of eigenvalues below threshold      ... 0

IMPORTANT:
Smallest eigenvalue of S below the DiffSThresh (1.000e-06) while
Thresh>1e-12 and/or TCut>1e-13! In order to avoid SCF convergence issues,
Thresh will be set to at least 1e-12 and TCut to at least 1e-13.
This can be turned off by adding %SCF DiffSThresh -1 END to the input.

Time for construction of square roots      ...    0.089 sec
Total time needed                          ...    0.244 sec

-------------------
DFT GRID GENERATION
-------------------

General Integration Accuracy     IntAcc      ... 4.388
Radial Grid Type                 RadialGrid  ... OptM3 with GC (2021)
Angular Grid (max. ang.)         AngularGrid ... 4 (Lebedev-302)
Angular grid pruning method      GridPruning ... 4 (adaptive)
Weight generation scheme         WeightScheme... mBecke (2022)
Basis function cutoff            BFCut       ... 1.0000e-11
Integration weight cutoff        WCut        ... 1.0000e-14
Partially contracted basis set               ... off
Rotationally invariant grid construction     ... off
Angular grids for H and He will be reduced by one unit
Diffuse basis detected: some atoms will have their outermost
                        angular grid increased by 1.

Total number of grid points                  ...   103380
Total number of batches                      ...     1627
Average number of points per batch           ...       63
Average number of grid points per atom       ...     4699

---------------------
SHARK GRID GENERATION
---------------------

General Integration Accuracy     IntAcc      ... 4.388
Radial Grid Type                 RadialGrid  ... OptM3 with GC (2021)
Angular Grid (max. ang.)         AngularGrid ... 4 (Lebedev-302)
Angular grid pruning method      GridPruning ... 4 (adaptive)
Weight generation scheme         WeightScheme... mBecke (2022)
Basis function cutoff            BFCut       ... 1.0000e-11
Integration weight cutoff        WCut        ... 1.0000e-14
Partially contracted basis set               ... off
Rotationally invariant grid construction     ... off
Angular grids for H and He will be reduced by one unit
Diffuse basis detected: some atoms will have their outermost
                        angular grid increased by 1.
Steep s-basis detected: some atoms will have their radial
                        grid points doubled.

Total number of grid points                  ...   166269
Total number of batches                      ...     2608
Average number of points per batch           ...       63
Average number of grid points per atom       ...     7558

--------------------
COSX GRID GENERATION
--------------------

GRIDX 1
-------
General Integration Accuracy     IntAcc      ... 3.816
Radial Grid Type                 RadialGrid  ... OptM3 with GC (2021)
Angular Grid (max. ang.)         AngularGrid ... 1 (Lebedev-50)
Angular grid pruning method      GridPruning ... 4 (adaptive)
Weight generation scheme         WeightScheme... mBecke (2022)
Basis function cutoff            BFCut       ... 1.0000e-11
Integration weight cutoff        WCut        ... 1.0000e-14
Partially contracted basis set               ... on
Rotationally invariant grid construction     ... off
Angular grids for H and He will be reduced by one unit
Diffuse basis detected: some atoms will have their outermost
                        angular grid increased by 1.

Total number of grid points                  ...    12975
Total number of batches                      ...      112
Average number of points per batch           ...      115
Average number of grid points per atom       ...      590
UseSFitting                                  ... on

GRIDX 2
-------
General Integration Accuracy     IntAcc      ... 4.020
Radial Grid Type                 RadialGrid  ... OptM3 with GC (2021)
Angular Grid (max. ang.)         AngularGrid ... 2 (Lebedev-110)
Angular grid pruning method      GridPruning ... 4 (adaptive)
Weight generation scheme         WeightScheme... mBecke (2022)
Basis function cutoff            BFCut       ... 1.0000e-11
Integration weight cutoff        WCut        ... 1.0000e-14
Partially contracted basis set               ... on
Rotationally invariant grid construction     ... off
Angular grids for H and He will be reduced by one unit
Diffuse basis detected: some atoms will have their outermost
                        angular grid increased by 1.

Total number of grid points                  ...    30843
Total number of batches                      ...      254
Average number of points per batch           ...      121
Average number of grid points per atom       ...     1402
UseSFitting                                  ... on

GRIDX 3
-------
General Integration Accuracy     IntAcc      ... 4.338
Radial Grid Type                 RadialGrid  ... OptM3 with GC (2021)
Angular Grid (max. ang.)         AngularGrid ... 3 (Lebedev-194)
Angular grid pruning method      GridPruning ... 4 (adaptive)
Weight generation scheme         WeightScheme... mBecke (2022)
Basis function cutoff            BFCut       ... 1.0000e-11
Integration weight cutoff        WCut        ... 1.0000e-14
Partially contracted basis set               ... on
Rotationally invariant grid construction     ... off
Angular grids for H and He will be reduced by one unit
Diffuse basis detected: some atoms will have their outermost
                        angular grid increased by 1.

Total number of grid points                  ...    68771
Total number of batches                      ...      549
Average number of points per batch           ...      125
Average number of grid points per atom       ...     3126
UseSFitting                                  ... on
Initializing property integral containers    ... done (  0.0 sec)

SHARK setup successfully completed in  10.7 seconds

Maximum memory used throughout the entire STARTUP-calculation: 90.5 MB


           ************************************************************
           *        Program running with 4 parallel MPI-processes     *
           *              working on a common directory               *
           ************************************************************
-------------------------------------------------------------------------------
                                 ORCA GUESS
                   Start orbitals & Density for SCF / CASSCF
-------------------------------------------------------------------------------

------------
SCF SETTINGS
------------
Hamiltonian:
 Density Functional     Method          .... DFT(GTOs)
 Exchange Functional    Exchange        .... TPSS
 Correlation Functional Correlation     .... TPSS
 LDA part of GGA corr.  LDAOpt          .... PW91-LDA
 Gradients option       PostSCFGGA      .... off
 Hybrid DFT is turned on
   Fraction HF Exchange ScalHFX         ....  0.100000
   Scaling of DF-GGA-X  ScalDFX         ....  0.900000
   Scaling of DF-GGA-C  ScalDFC         ....  1.000000
   Scaling of DF-LDA-C  ScalLDAC        ....  1.000000
   Perturbative correction              ....  0.000000
   NL short-range parameter             ....  5.200000
 RI-approximation to the Coulomb term is turned on
   Number of AuxJ basis functions       .... 622
   RIJ-COSX (HFX calculated with COS-X)).... on


General Settings:
 Integral files         IntName         .... cs_rporg_017_red_solv_01
 Hartree-Fock type      HFTyp           .... RHF
 Total Charge           Charge          ....    0
 Multiplicity           Mult            ....    1
 Number of Electrons    NEL             ....   72
 Basis Dimension        Dim             ....  736
 Nuclear Repulsion      ENuc            ....    465.6304339074 Eh

Convergence Acceleration:
 AO-DIIS                CNVDIIS         .... on
   Start iteration      DIISMaxIt       ....     0
   Startup error        DIISStart       ....  0.200000
   # of expansion vecs  DIISMaxEq       ....     5
   Bias factor          DIISBfac        ....   1.050
   Max. coefficient     DIISMaxC        ....  10.000
 MO-DIIS                CNVKDIIS        .... off
 Trust-Rad. Augm. Hess. CNVTRAH         .... auto
   Auto Start mean grad. ratio tolernc. ....  1.125000
   Auto Start start iteration           ....    50
   Auto Start num. interpolation iter.  ....    10
   Max. Number of Micro iterations      ....    24
   Max. Number of Macro iterations      .... Maxiter - #DIIS iter
   Number of Davidson start vectors     ....     2
   Converg. threshold    (grad. norm)   ....   1.000e-05
   Grad. Scal. Fac. for Micro threshold ....   0.100
   Minimum threshold for Micro iter.    ....   1.000e-02
   NR start threshold (gradient norm)   ....   1.000e-04
   Initial trust radius                 ....   0.400
   Minimum AH scaling param. (alpha)    ....   1.000
   Maximum AH scaling param. (alpha)    .... 1000.000
   Quad. conv. algorithm                .... NR
   White noise on init. David. guess    .... on
   Maximum white noise                  ....   0.010
   Pseudo random numbers                .... off
   Inactive MOs                         .... canonical
   Orbital update algorithm             .... Taylor
   Preconditioner                       .... Diag
   Full preconditioner red. dimension   ....   250
 SOSCF                  CNVSOSCF        .... on
   Start iteration      SOSCFMaxIt      ....   150
   Startup grad/error   SOSCFStart      ....  0.001000
   Hessian update       SOSCFHessUp     .... L-BFGS
 Level Shifting         CNVShift        .... on
   Level shift para.    LevelShift      ....    0.2500
   Turn off err/grad.   ShiftErr        ....    0.0000
 Zerner damping         CNVZerner       .... off
 Static damping         CNVDamp         .... on
   Fraction old density DampFac         ....    0.8500
   Max. Damping (<1)    DampMax         ....    0.9800
   Min. Damping (>=0)   DampMin         ....    0.0000
   Turn off err/grad.   DampErr         ....    0.0300

SCF Procedure:
 Maximum # iterations   MaxIter         ....  1500
 SCF integral mode      SCFMode         .... Direct
   Integral package                     .... SHARK and LIBINT hybrid scheme
 Reset frequency        DirectResetFreq ....    20
 Integral Threshold     Thresh          ....  1.000e-12 Eh
 Primitive CutOff       TCut            ....  1.000e-13 Eh

Convergence Tolerance:
 Convergence Check Mode ConvCheckMode   .... Total+1el-Energy
 Convergence forced     ConvForced      .... 0
 Energy Change          TolE            ....  1.000e-08 Eh
 1-El. energy change                    ....  1.000e-05 Eh
 Orbital Gradient       TolG            ....  1.000e-05
 Orbital Rotation angle TolX            ....  1.000e-05
 DIIS Error             TolErr          ....  5.000e-07

------------------------------
INITIAL GUESS: MODEL POTENTIAL
------------------------------
Loading Hartree-Fock densities                     ... done
Calculating cut-offs                               ... done
Initializing the effective Hamiltonian             ... done
Setting up the integral package (SHARK)            ... done
Starting the Coulomb interaction                   ... done (   1.0 sec)
Making the grid                                    ... done (   0.6 sec)
Mapping shells                                     ... done
Starting the XC term evaluation                    ... done (   1.0 sec)
  promolecular density results
     # of electrons  =     71.986487636
     EX              =    -54.636668097
     EC              =     -2.350277518
     EX+EC           =    -56.986945614
Transforming the Hamiltonian                       ... done (   0.1 sec)
Diagonalizing the Hamiltonian                      ... done (   0.1 sec)
Back transforming the eigenvectors                 ... done (   0.1 sec)
Now organizing SCF variables                       ... done
                      ------------------
                      INITIAL GUESS DONE (   3.0 sec)
                      ------------------
             **** ENERGY FILE WAS UPDATED (cs_rporg_017_red_solv_01.en.tmp) ****
Finished Guess after   3.9 sec
Maximum memory used throughout the entire GUESS-calculation: 68.0 MB


           ************************************************************
           *        Program running with 4 parallel MPI-processes     *
           *              working on a common directory               *
           ************************************************************

-------------------------------------------------------------------------------------------
                                      ORCA LEAN-SCF
                              memory conserving SCF solver
-------------------------------------------------------------------------------------------

--------------------
CPCM SOLVATION MODEL
--------------------
CPCM parameters:
  Epsilon                                         ...      35.6880
  Refrac                                          ...       1.3442
  Rsolv                                           ...       2.1900
  Surface type                                    ...    GEPOL SES
  Discretization scheme                           ... Constant num. charges
  Epsilon function type                           ...         CPCM
Solvent:                                          ... ACETONITRILE
SMD-CDS solvent descriptors:
  Soln                                            ...       1.3442
  Soln25                                          ...       1.3416
  Sola                                            ...       0.0700
  Solb                                            ...       0.3200
  Solg                                            ...      41.2500
  Solc                                            ...       0.0000
  Solh                                            ...       0.0000
Radii:
  Scheme                                          ... Element-dependent radii
  Radius for C  used is    3.4960 Bohr (=   1.8500 Ang.)
  Radius for H  used is    2.2677 Bohr (=   1.2000 Ang.)
Calculating surface                               ...        done! (  0.0s)
Cavity surface points                             ...          808
Cavity Volume                                     ...    1110.6930
Cavity Surface-area                               ...     653.7863
Calculating surface distance matrix               ...        done! (  0.0s)
Performing Cholesky decomposition & store         ...        done! (  0.0s)
Overall time for CPCM initialization              ...                 0.1s

----------------------------------------D-I-I-S--------------------------------------------
Iteration    Energy (Eh)           Delta-E    RMSDP     MaxDP     DIISErr   Damp  Time(sec)
-------------------------------------------------------------------------------------------
               ***  Starting incremental Fock matrix formation  ***
    1    -388.2096674782367245     0.00e+00  1.28e-03  1.19e-01  1.86e-01  0.850  34.5
    2    -388.2702846814428312    -6.06e-02  1.18e-03  1.06e-01  1.41e-01  0.850  20.7
                               ***Turning on AO-DIIS***
    3    -388.3128465900578021    -4.26e-02  9.39e-04  8.75e-02  9.87e-02  0.850  20.6
    4    -388.3410084459160316    -2.82e-02  7.81e-04  7.35e-02  7.83e-02  0.850  20.1
    5    -388.3614626271499901    -2.05e-02  6.57e-04  6.19e-02  6.52e-02  0.850  20.0
    6    -388.3774120567435375    -1.59e-02  5.56e-04  5.25e-02  5.52e-02  0.850  19.8
    7    -388.3903439537323266    -1.29e-02  4.70e-04  4.44e-02  4.65e-02  0.850  19.6
    8    -388.4009728465663329    -1.06e-02  3.99e-04  3.75e-02  3.90e-02  0.850  19.4
    9    -388.4097240110309031    -8.75e-03  3.38e-04  3.18e-02  3.27e-02  0.850  19.4
   10    -388.4169444111655594    -7.22e-03  2.87e-04  2.70e-02  2.74e-02  0.850  19.3
   11    -388.4229240617886489    -5.98e-03  1.62e-03  1.53e-01  2.30e-02  0.000  18.9
   12    -388.4543160807329514    -3.14e-02  3.42e-05  1.91e-03  1.70e-03  0.000  20.4
                              *** Initializing SOSCF ***
---------------------------------------S-O-S-C-F--------------------------------------
Iteration    Energy (Eh)           Delta-E    RMSDP     MaxDP     MaxGrad    Time(sec)
--------------------------------------------------------------------------------------
   13    -388.4543361393716623    -2.01e-05  1.12e-05  8.01e-04  2.10e-04    18.2
               *** Restarting incremental Fock matrix formation ***
   14    -388.4543374206662065    -1.28e-06  3.74e-04  2.06e-02  2.79e-05    35.0
   15    -388.4543374691791087    -4.85e-08  7.56e-05  4.18e-03  5.34e-05    28.7
   16    -388.4543375906362144    -1.21e-07  8.91e-05  4.91e-03  2.20e-05    26.5
   17    -388.4543375932630624    -2.63e-09  3.85e-06  3.01e-04  1.40e-05    27.1
                 **** Energy Check signals convergence ****

               *****************************************************
               *                     SUCCESS                       *
               *           SCF CONVERGED AFTER  17 CYCLES          *
               *****************************************************

Recomputing exchange energy using gridx3       ... done (   47.712 sec)
Old exchange energy                            :     -5.611405781 Eh
New exchange energy                            :     -5.611406202 Eh
Exchange energy change after final integration :     -0.000000422 Eh
Total energy after final integration           :   -388.454338015 Eh

SMD CDS free energy correction energy :                -2.44303     Kcal/mol
Total Energy after SMD CDS correction =              -388.458231238 Eh
             **** ENERGY FILE WAS UPDATED (cs_rporg_017_red_solv_01.en.tmp) ****

----------------
TOTAL SCF ENERGY
----------------

Total Energy       :       -388.45823123780377 Eh          -10570.48587 eV

Components:
Nuclear Repulsion  :        465.63043390742723 Eh           12670.44826 eV
Electronic Energy  :       -854.07588717380486 Eh          -23240.58642 eV
One Electron Energy:      -1445.27229650896197 Eh          -39327.85858 eV
Two Electron Energy:        591.19640933515711 Eh           16087.27216 eV
CPCM Dielectric    :         -0.00888432688543 Eh              -0.24175 eV
SMD CDS (Gcds)     :         -0.00389322278172 Eh              -0.10594 eV

Virial components:
Potential Energy   :       -774.55127308143869 Eh          -21076.61165 eV
Kinetic Energy     :        386.09304184363492 Eh           10506.12579 eV
Virial Ratio       :          2.00612595705656

DFT components:
N(Alpha)           :       35.999954465482 electrons
N(Beta)            :       35.999954465482 electrons
N(Total)           :       71.999908930965 electrons
E(X)               :      -50.850947935902 Eh       
E(C)               :       -2.360474542649 Eh       
E(XC)              :      -53.211422478551 Eh       

CPCM Solvation Model Properties:
Surface-charge          :         -0.05359550922991
Corrected charge        :         -0.00000000000000
Outlying charge corr.   :          0.00019547749905 Eh               0.00532 eV
Free-energy (cav+disp)  :         -0.00389322278172 Eh              -0.10594 eV

---------------
SCF CONVERGENCE
---------------

  Last Energy change         ...    2.6268e-09  Tolerance :   1.0000e-08
  Last MAX-Density change    ...    3.0101e-04  Tolerance :   1.0000e-07
  Last RMS-Density change    ...    3.8514e-06  Tolerance :   5.0000e-09
  Last DIIS Error            ...    2.1009e-04  Tolerance :   5.0000e-07
  Last Orbital Gradient      ...    1.4003e-05  Tolerance :   1.0000e-05
  Last Orbital Rotation      ...    2.2867e-05  Tolerance :   1.0000e-05


----------------
ORBITAL ENERGIES
----------------

  NO   OCC          E(Eh)            E(eV) 
   0   2.0000     -10.122799      -275.4554 
   1   2.0000     -10.121893      -275.4307 
   2   2.0000     -10.114548      -275.2308 
   3   2.0000     -10.114233      -275.2223 
   4   2.0000     -10.113595      -275.2049 
   5   2.0000     -10.112505      -275.1752 
   6   2.0000     -10.111827      -275.1568 
   7   2.0000     -10.110973      -275.1336 
   8   2.0000     -10.106602      -275.0146 
   9   2.0000     -10.106101      -275.0010 
  10   2.0000      -0.839681       -22.8489 
  11   2.0000      -0.782050       -21.2807 
  12   2.0000      -0.742883       -20.2149 
  13   2.0000      -0.723210       -19.6796 
  14   2.0000      -0.683717       -18.6049 
  15   2.0000      -0.636343       -17.3158 
  16   2.0000      -0.589765       -16.0483 
  17   2.0000      -0.563947       -15.3458 
  18   2.0000      -0.527400       -14.3513 
  19   2.0000      -0.482277       -13.1234 
  20   2.0000      -0.445822       -12.1314 
  21   2.0000      -0.433883       -11.8066 
  22   2.0000      -0.409879       -11.1534 
  23   2.0000      -0.398508       -10.8440 
  24   2.0000      -0.394918       -10.7463 
  25   2.0000      -0.390773       -10.6335 
  26   2.0000      -0.389833       -10.6079 
  27   2.0000      -0.358245        -9.7484 
  28   2.0000      -0.355894        -9.6844 
  29   2.0000      -0.351462        -9.5638 
  30   2.0000      -0.332692        -9.0530 
  31   2.0000      -0.319653        -8.6982 
  32   2.0000      -0.310438        -8.4474 
  33   2.0000      -0.276748        -7.5307 
  34   2.0000      -0.245267        -6.6741 
  35   2.0000      -0.205992        -5.6053 
  36   0.0000      -0.047207        -1.2846 
  37   0.0000      -0.024032        -0.6540 
  38   0.0000      -0.002296        -0.0625 
  39   0.0000       0.005198         0.1414 
  40   0.0000       0.010969         0.2985 
  41   0.0000       0.019369         0.5270 
  42   0.0000       0.019671         0.5353 
  43   0.0000       0.027048         0.7360 
  44   0.0000       0.031691         0.8623 
  45   0.0000       0.037421         1.0183 
  46   0.0000       0.039427         1.0729 
*Only the first 10 virtual orbitals were printed.

                    ********************************
                    * MULLIKEN POPULATION ANALYSIS *
                    ********************************

-----------------------
MULLIKEN ATOMIC CHARGES
-----------------------
   0 C :   -0.598263
   1 C :   -0.906555
   2 C :    0.880909
   3 C :   -0.662114
   4 C :   -0.732587
   5 C :    1.751461
   6 C :    0.085183
   7 C :   -0.296111
   8 C :   -0.402299
   9 H :    0.121690
  10 H :    0.118606
  11 H :    0.131817
  12 H :    0.141230
  13 H :    0.000701
  14 H :    0.072844
  15 H :    0.158589
  16 C :   -0.269326
  17 H :    0.109930
  18 H :    0.150006
  19 H :    0.129585
  20 H :    0.146404
  21 H :   -0.131703
Sum of atomic charges:    0.0000000

--------------------------------
MULLIKEN REDUCED ORBITAL CHARGES
--------------------------------
  0 C s       :     3.866254  s :     3.866254
      pz      :     0.968483  p :     2.581960
      px      :     0.673176
      py      :     0.940302
      dz2     :    -0.013485  d :     0.175268
      dxz     :     0.015505
      dyz     :    -0.000926
      dx2y2   :    -0.107551
      dxy     :     0.281725
      f0      :     0.000592  f :    -0.025219
      f+1     :     0.000534
      f-1     :    -0.000438
      f+2     :     0.000703
      f-2     :    -0.000870
      f+3     :    -0.001321
      f-3     :    -0.024418

  1 C s       :     3.864652  s :     3.864652
      pz      :     0.988477  p :     2.844601
      px      :     1.082854
      py      :     0.773270
      dz2     :     0.007316  d :     0.215905
      dxz     :     0.013721
      dyz     :     0.032025
      dx2y2   :    -0.004128
      dxy     :     0.166970
      f0      :     0.001072  f :    -0.018603
      f+1     :    -0.000228
      f-1     :     0.000359
      f+2     :     0.001673
      f-2     :    -0.001948
      f+3     :     0.001288
      f-3     :    -0.020818

  2 C s       :     3.025981  s :     3.025981
      pz      :     0.932885  p :     2.038631
      px      :     0.549619
      py      :     0.556127
      dz2     :    -0.030245  d :     0.123702
      dxz     :    -0.016120
      dyz     :     0.011204
      dx2y2   :     0.070666
      dxy     :     0.088196
      f0      :    -0.001438  f :    -0.069223
      f+1     :    -0.002430
      f-1     :    -0.000816
      f+2     :     0.001273
      f-2     :     0.000195
      f+3     :    -0.020261
      f-3     :    -0.045748

  3 C s       :     3.725576  s :     3.725576
      pz      :     1.003525  p :     2.717237
      px      :     0.836541
      py      :     0.877171
      dz2     :    -0.000876  d :     0.238131
      dxz     :     0.016214
      dyz     :     0.030622
      dx2y2   :    -0.016057
      dxy     :     0.208228
      f0      :     0.000842  f :    -0.018830
      f+1     :     0.000758
      f-1     :     0.000660
      f+2     :     0.000874
      f-2     :    -0.001638
      f+3     :    -0.000461
      f-3     :    -0.019866

  4 C s       :     4.027396  s :     4.027396
      pz      :     0.946626  p :     2.510271
      px      :     0.757699
      py      :     0.805946
      dz2     :    -0.010885  d :     0.212846
      dxz     :     0.017843
      dyz     :     0.007221
      dx2y2   :    -0.007063
      dxy     :     0.205730
      f0      :     0.000757  f :    -0.017926
      f+1     :    -0.000793
      f-1     :     0.000338
      f+2     :     0.001159
      f-2     :    -0.000684
      f+3     :     0.003264
      f-3     :    -0.021968

  5 C s       :     2.736813  s :     2.736813
      pz      :     1.000060  p :     1.778010
      px      :     0.183835
      py      :     0.594116
      dz2     :    -0.025496  d :    -0.167160
      dxz     :    -0.047611
      dyz     :    -0.002829
      dx2y2   :    -0.033172
      dxy     :    -0.058052
      f0      :     0.001375  f :    -0.099125
      f+1     :    -0.004229
      f-1     :    -0.000812
      f+2     :     0.001467
      f-2     :     0.000393
      f+3     :    -0.035154
      f-3     :    -0.062165

  6 C s       :     3.565968  s :     3.565968
      pz      :     1.013571  p :     2.429647
      px      :     0.640362
      py      :     0.775715
      dz2     :     0.013667  d :    -0.044350
      dxz     :    -0.007073
      dyz     :     0.016460
      dx2y2   :    -0.014832
      dxy     :    -0.052573
      f0      :     0.000531  f :    -0.036447
      f+1     :    -0.001218
      f-1     :    -0.000162
      f+2     :     0.000927
      f-2     :    -0.000709
      f+3     :    -0.009311
      f-3     :    -0.026505

  7 C s       :     3.529010  s :     3.529010
      pz      :     0.942129  p :     2.641362
      px      :     0.793059
      py      :     0.906174
      dz2     :     0.002029  d :     0.139871
      dxz     :     0.033122
      dyz     :     0.016536
      dx2y2   :     0.019463
      dxy     :     0.068720
      f0      :    -0.000487  f :    -0.014132
      f+1     :     0.000336
      f-1     :     0.000202
      f+2     :    -0.000310
      f-2     :     0.000708
      f+3     :    -0.005649
      f-3     :    -0.008931

  8 C s       :     3.240870  s :     3.240870
      pz      :     1.024234  p :     3.075203
      px      :     1.004187
      py      :     1.046782
      dz2     :     0.008889  d :     0.076673
      dxz     :     0.031934
      dyz     :     0.006748
      dx2y2   :     0.024019
      dxy     :     0.005083
      f0      :     0.003030  f :     0.009552
      f+1     :    -0.000338
      f-1     :     0.000455
      f+2     :    -0.000136
      f-2     :     0.001732
      f+3     :     0.001356
      f-3     :     0.003454

  9 H s       :     0.817777  s :     0.817777
      pz      :     0.017418  p :     0.052984
      px      :     0.026294
      py      :     0.009272
      dz2     :     0.002436  d :     0.007549
      dxz     :     0.001006
      dyz     :     0.000469
      dx2y2   :     0.003285
      dxy     :     0.000353

 10 H s       :     0.820511  s :     0.820511
      pz      :     0.017559  p :     0.053308
      px      :     0.026456
      py      :     0.009293
      dz2     :     0.002446  d :     0.007575
      dxz     :     0.001044
      dyz     :     0.000423
      dx2y2   :     0.003315
      dxy     :     0.000347

 11 H s       :     0.805695  s :     0.805695
      pz      :     0.008879  p :     0.053999
      px      :     0.018844
      py      :     0.026276
      dz2     :     0.000074  d :     0.008489
      dxz     :     0.000898
      dyz     :     0.003751
      dx2y2   :    -0.000450
      dxy     :     0.004215

 12 H s       :     0.810128  s :     0.810128
      pz      :     0.030809  p :     0.040483
      px      :     0.000314
      py      :     0.009360
      dz2     :     0.000174  d :     0.008159
      dxz     :     0.000703
      dyz     :     0.004299
      dx2y2   :    -0.000090
      dxy     :     0.003072

 13 H s       :     0.972098  s :     0.972098
      pz      :     0.027235  p :     0.019646
      px      :    -0.014356
      py      :     0.006768
      dz2     :     0.000585  d :     0.007555
      dxz     :     0.000985
      dyz     :     0.003913
      dx2y2   :    -0.001185
      dxy     :     0.003257

 14 H s       :     0.884789  s :     0.884789
      pz      :     0.021931  p :     0.034303
      px      :    -0.020604
      py      :     0.032976
      dz2     :    -0.000279  d :     0.008063
      dxz     :     0.000673
      dyz     :     0.004387
      dx2y2   :     0.002475
      dxy     :     0.000806

 15 H s       :     0.783200  s :     0.783200
      pz      :     0.030557  p :     0.052282
      px      :    -0.000802
      py      :     0.022527
      dz2     :    -0.000366  d :     0.005929
      dxz     :     0.001995
      dyz     :     0.002753
      dx2y2   :     0.001063
      dxy     :     0.000484

 16 C s       :     3.257786  s :     3.257786
      pz      :     1.023515  p :     2.973419
      px      :     0.906637
      py      :     1.043268
      dz2     :     0.008404  d :     0.029523
      dxz     :     0.002872
      dyz     :     0.013701
      dx2y2   :     0.000951
      dxy     :     0.003595
      f0      :     0.003835  f :     0.008597
      f+1     :    -0.001018
      f-1     :     0.000650
      f+2     :     0.002797
      f-2     :    -0.000032
      f+3     :     0.001400
      f-3     :     0.000966

 17 H s       :     0.829937  s :     0.829937
      pz      :     0.008343  p :     0.051084
      px      :     0.025914
      py      :     0.016826
      dz2     :     0.000816  d :     0.009049
      dxz     :     0.000779
      dyz     :     0.002740
      dx2y2   :     0.003384
      dxy     :     0.001330

 18 H s       :     0.793370  s :     0.793370
      pz      :     0.017172  p :     0.049839
      px      :     0.022867
      py      :     0.009799
      dz2     :     0.000409  d :     0.006786
      dxz     :     0.002489
      dyz     :     0.001819
      dx2y2   :     0.001364
      dxy     :     0.000704

 19 H s       :     0.811499  s :     0.811499
      pz      :     0.013674  p :     0.050970
      px      :     0.024973
      py      :     0.012322
      dz2     :     0.003546  d :     0.007946
      dxz     :     0.001208
      dyz     :    -0.001319
      dx2y2   :     0.001842
      dxy     :     0.002668

 20 H s       :     0.784991  s :     0.784991
      pz      :     0.029766  p :     0.062579
      px      :     0.011876
      py      :     0.020938
      dz2     :    -0.000050  d :     0.006026
      dxz     :     0.000791
      dyz     :     0.003990
      dx2y2   :     0.000011
      dxy     :     0.001285

 21 H s       :     1.124621  s :     1.124621
      pz      :     0.021614  p :    -0.000298
      px      :    -0.050945
      py      :     0.029033
      dz2     :     0.000204  d :     0.007379
      dxz     :     0.002376
      dyz     :     0.003201
      dx2y2   :     0.001209
      dxy     :     0.000389



                     *******************************
                     * LOEWDIN POPULATION ANALYSIS *
                     *******************************

----------------------
LOEWDIN ATOMIC CHARGES
----------------------
   0 C :    0.205676
   1 C :    0.210245
   2 C :   -0.143113
   3 C :    0.209514
   4 C :    0.200220
   5 C :   -0.153431
   6 C :    0.196423
   7 C :    0.197066
   8 C :    0.546590
   9 H :   -0.165108
  10 H :   -0.165082
  11 H :   -0.174543
  12 H :   -0.184786
  13 H :   -0.185087
  14 H :   -0.168766
  15 H :   -0.167671
  16 C :    0.569415
  17 H :   -0.169838
  18 H :   -0.153901
  19 H :   -0.160300
  20 H :   -0.161906
  21 H :   -0.181617

-------------------------------
LOEWDIN REDUCED ORBITAL CHARGES
-------------------------------
  0 C s       :     2.476996  s :     2.476996
      pz      :     0.602636  p :     2.272215
      px      :     0.840479
      py      :     0.829099
      dz2     :     0.069938  d :     0.703660
      dxz     :     0.099290
      dyz     :     0.070292
      dx2y2   :     0.194552
      dxy     :     0.269588
      f0      :     0.019967  f :     0.341453
      f+1     :     0.027720
      f-1     :     0.023511
      f+2     :     0.055811
      f-2     :     0.019213
      f+3     :     0.070623
      f-3     :     0.124609

  1 C s       :     2.481222  s :     2.481222
      pz      :     0.604764  p :     2.275298
      px      :     0.846030
      py      :     0.824505
      dz2     :     0.067344  d :     0.695347
      dxz     :     0.114905
      dyz     :     0.051239
      dx2y2   :     0.235232
      dxy     :     0.226626
      f0      :     0.019543  f :     0.337888
      f+1     :     0.029439
      f-1     :     0.021447
      f+2     :     0.038507
      f-2     :     0.035157
      f+3     :     0.071305
      f-3     :     0.122490

  2 C s       :     2.465029  s :     2.465029
      pz      :     0.598336  p :     2.251730
      px      :     0.797705
      py      :     0.855689
      dz2     :     0.083094  d :     0.931701
      dxz     :     0.147335
      dyz     :     0.122276
      dx2y2   :     0.306437
      dxy     :     0.272560
      f0      :     0.033258  f :     0.494652
      f+1     :     0.029640
      f-1     :     0.032632
      f+2     :     0.052536
      f-2     :     0.067600
      f+3     :     0.084654
      f-3     :     0.194333

  3 C s       :     2.481374  s :     2.481374
      pz      :     0.607356  p :     2.278350
      px      :     0.839422
      py      :     0.831573
      dz2     :     0.068649  d :     0.693826
      dxz     :     0.094109
      dyz     :     0.068514
      dx2y2   :     0.193816
      dxy     :     0.268737
      f0      :     0.019277  f :     0.336935
      f+1     :     0.027600
      f-1     :     0.023922
      f+2     :     0.055727
      f-2     :     0.016998
      f+3     :     0.070308
      f-3     :     0.123103

  4 C s       :     2.480270  s :     2.480270
      pz      :     0.601940  p :     2.270928
      px      :     0.847135
      py      :     0.821852
      dz2     :     0.069853  d :     0.705529
      dxz     :     0.119817
      dyz     :     0.050563
      dx2y2   :     0.239883
      dxy     :     0.225413
      f0      :     0.019957  f :     0.343052
      f+1     :     0.030440
      f-1     :     0.021371
      f+2     :     0.036658
      f-2     :     0.037587
      f+3     :     0.072984
      f-3     :     0.124056

  5 C s       :     2.464588  s :     2.464588
      pz      :     0.613288  p :     2.276907
      px      :     0.818553
      py      :     0.845066
      dz2     :     0.088110  d :     0.922085
      dxz     :     0.143882
      dyz     :     0.116920
      dx2y2   :     0.298885
      dxy     :     0.274287
      f0      :     0.028890  f :     0.489852
      f+1     :     0.034200
      f-1     :     0.033510
      f+2     :     0.050584
      f-2     :     0.058374
      f+3     :     0.097027
      f-3     :     0.187268

  6 C s       :     2.488192  s :     2.488192
      pz      :     0.628976  p :     2.290498
      px      :     0.836945
      py      :     0.824577
      dz2     :     0.070955  d :     0.707558
      dxz     :     0.137106
      dyz     :     0.029687
      dx2y2   :     0.258684
      dxy     :     0.211126
      f0      :     0.019294  f :     0.317329
      f+1     :     0.031100
      f-1     :     0.019398
      f+2     :     0.026510
      f-2     :     0.030276
      f+3     :     0.090158
      f-3     :     0.100593

  7 C s       :     2.493657  s :     2.493657
      pz      :     0.602430  p :     2.262706
      px      :     0.822702
      py      :     0.837574
      dz2     :     0.064804  d :     0.728885
      dxz     :     0.160313
      dyz     :     0.026797
      dx2y2   :     0.270709
      dxy     :     0.206261
      f0      :     0.024200  f :     0.317686
      f+1     :     0.023852
      f-1     :     0.019246
      f+2     :     0.038953
      f-2     :     0.027322
      f+3     :     0.093281
      f-3     :     0.090832

  8 C s       :     2.462182  s :     2.462182
      pz      :     0.770671  p :     2.288300
      px      :     0.749730
      py      :     0.767898
      dz2     :     0.080815  d :     0.518981
      dxz     :     0.149758
      dyz     :     0.037483
      dx2y2   :     0.127812
      dxy     :     0.123113
      f0      :     0.015451  f :     0.183948
      f+1     :     0.027735
      f-1     :     0.015655
      f+2     :     0.024204
      f-2     :     0.014051
      f+3     :     0.035538
      f-3     :     0.051314

  9 H s       :     0.635518  s :     0.635518
      pz      :     0.128029  p :     0.309990
      px      :     0.088768
      py      :     0.093194
      dz2     :     0.075450  d :     0.219599
      dxz     :     0.041768
      dyz     :     0.043657
      dx2y2   :     0.042732
      dxy     :     0.015992

 10 H s       :     0.635512  s :     0.635512
      pz      :     0.128007  p :     0.309974
      px      :     0.088638
      py      :     0.093329
      dz2     :     0.075465  d :     0.219596
      dxz     :     0.041869
      dyz     :     0.043505
      dx2y2   :     0.042785
      dxy     :     0.015973

 11 H s       :     0.631629  s :     0.631629
      pz      :     0.085518  p :     0.315913
      px      :     0.082722
      py      :     0.147672
      dz2     :     0.016270  d :     0.227001
      dxz     :     0.004933
      dyz     :     0.082150
      dx2y2   :     0.053476
      dxy     :     0.070172

 12 H s       :     0.649547  s :     0.649547
      pz      :     0.075612  p :     0.310882
      px      :     0.095525
      py      :     0.139745
      dz2     :     0.025617  d :     0.224356
      dxz     :     0.005340
      dyz     :     0.058543
      dx2y2   :     0.061501
      dxy     :     0.073355

 13 H s       :     0.639723  s :     0.639723
      pz      :     0.079962  p :     0.313960
      px      :     0.093759
      py      :     0.140240
      dz2     :     0.026104  d :     0.231404
      dxz     :     0.006311
      dyz     :     0.060945
      dx2y2   :     0.063669
      dxy     :     0.074375

 14 H s       :     0.650609  s :     0.650609
      pz      :     0.079395  p :     0.301367
      px      :     0.093226
      py      :     0.128746
      dz2     :     0.023970  d :     0.216790
      dxz     :     0.012453
      dyz     :     0.050458
      dx2y2   :     0.065836
      dxy     :     0.064073

 15 H s       :     0.653767  s :     0.653767
      pz      :     0.079740  p :     0.298745
      px      :     0.103472
      py      :     0.115533
      dz2     :     0.023554  d :     0.215159
      dxz     :     0.023887
      dyz     :     0.039046
      dx2y2   :     0.078591
      dxy     :     0.050081

 16 C s       :     2.451425  s :     2.451425
      pz      :     0.769868  p :     2.282424
      px      :     0.742116
      py      :     0.770440
      dz2     :     0.082139  d :     0.510626
      dxz     :     0.112222
      dyz     :     0.068486
      dx2y2   :     0.098493
      dxy     :     0.149285
      f0      :     0.019095  f :     0.186110
      f+1     :     0.024708
      f-1     :     0.013471
      f+2     :     0.029656
      f-2     :     0.013438
      f+3     :     0.037615
      f-3     :     0.048128

 17 H s       :     0.628063  s :     0.628063
      pz      :     0.088832  p :     0.315116
      px      :     0.091192
      py      :     0.135091
      dz2     :     0.024269  d :     0.226659
      dxz     :     0.012957
      dyz     :     0.067877
      dx2y2   :     0.074347
      dxy     :     0.047210

 18 H s       :     0.628466  s :     0.628466
      pz      :     0.135516  p :     0.306541
      px      :     0.080563
      py      :     0.090462
      dz2     :     0.068090  d :     0.218893
      dxz     :     0.048300
      dyz     :     0.065432
      dx2y2   :     0.024219
      dxy     :     0.012853

 19 H s       :     0.628307  s :     0.628307
      pz      :     0.115303  p :     0.310552
      px      :     0.081385
      py      :     0.113865
      dz2     :     0.073756  d :     0.221440
      dxz     :     0.027890
      dyz     :     0.037515
      dx2y2   :     0.046074
      dxy     :     0.036205

 20 H s       :     0.654511  s :     0.654511
      pz      :     0.078763  p :     0.295129
      px      :     0.087460
      py      :     0.128906
      dz2     :     0.022824  d :     0.212266
      dxz     :     0.012748
      dyz     :     0.049955
      dx2y2   :     0.063824
      dxy     :     0.062916

 21 H s       :     0.644406  s :     0.644406
      pz      :     0.077831  p :     0.310682
      px      :     0.116959
      py      :     0.115891
      dz2     :     0.026250  d :     0.226530
      dxz     :     0.026011
      dyz     :     0.038372
      dx2y2   :     0.085347
      dxy     :     0.050549



                      *****************************
                      * MAYER POPULATION ANALYSIS *
                      *****************************

  NA   - Mulliken gross atomic population
  ZA   - Total nuclear charge
  QA   - Mulliken gross atomic charge
  VA   - Mayer's total valence
  BVA  - Mayer's bonded valence
  FA   - Mayer's free valence

  ATOM       NA         ZA         QA         VA         BVA        FA
  0 C      6.5983     6.0000    -0.5983     3.0841     3.0841     0.0000
  1 C      6.9066     6.0000    -0.9066     3.0697     3.0697    -0.0000
  2 C      5.1191     6.0000     0.8809     2.7221     2.7221    -0.0000
  3 C      6.6621     6.0000    -0.6621     2.9417     2.9417    -0.0000
  4 C      6.7326     6.0000    -0.7326     2.5026     2.5026     0.0000
  5 C      4.2485     6.0000     1.7515     0.4333     0.4333     0.0000
  6 C      5.9148     6.0000     0.0852     2.5324     2.5324     0.0000
  7 C      6.2961     6.0000    -0.2961     3.3018     3.3018    -0.0000
  8 C      6.4023     6.0000    -0.4023     3.9440     3.9440     0.0000
  9 H      0.8783     1.0000     0.1217     1.0385     1.0385     0.0000
 10 H      0.8814     1.0000     0.1186     1.0419     1.0419     0.0000
 11 H      0.8682     1.0000     0.1318     1.0442     1.0442    -0.0000
 12 H      0.8588     1.0000     0.1412     0.9143     0.9143    -0.0000
 13 H      0.9993     1.0000     0.0007     1.1053     1.1053     0.0000
 14 H      0.9272     1.0000     0.0728     1.1725     1.1725     0.0000
 15 H      0.8414     1.0000     0.1586     1.1519     1.1519     0.0000
 16 C      6.2693     6.0000    -0.2693     3.6802     3.6802    -0.0000
 17 H      0.8901     1.0000     0.1099     1.0506     1.0506    -0.0000
 18 H      0.8500     1.0000     0.1500     0.9815     0.9815    -0.0000
 19 H      0.8704     1.0000     0.1296     1.0132     1.0132     0.0000
 20 H      0.8536     1.0000     0.1464     1.1116     1.1116     0.0000
 21 H      1.1317     1.0000    -0.1317     1.0201     1.0201     0.0000

  Mayer bond orders larger than 0.100000
B(  0-C ,  1-C ) :   1.3127 B(  0-C ,  4-C ) :  -0.4711 B(  0-C ,  5-C ) :   0.4620 
B(  0-C ,  6-C ) :   0.1362 B(  0-C ,  7-C ) :   0.1551 B(  0-C , 21-H ) :   1.4054 
B(  1-C ,  2-C ) :   0.9362 B(  1-C ,  5-C ) :  -0.1237 B(  1-C , 20-H ) :   0.9146 
B(  2-C ,  3-C ) :   0.8807 B(  2-C ,  5-C ) :  -0.1166 B(  2-C ,  6-C ) :   0.1409 
B(  2-C , 16-C ) :   0.6545 B(  3-C ,  4-C ) :   1.5695 B(  3-C ,  5-C ) :  -0.1425 
B(  3-C , 15-H ) :   0.9004 B(  3-C , 16-C ) :  -0.1152 B(  4-C ,  5-C ) :   0.1782 
B(  4-C , 14-H ) :   1.1545 B(  5-C ,  6-C ) :   0.2851 B(  5-C ,  7-C ) :  -0.2298 
B(  5-C , 12-H ) :  -0.1208 B(  6-C ,  7-C ) :   1.0594 B(  6-C , 13-H ) :   1.1094 
B(  6-C , 14-H ) :  -0.1009 B(  7-C ,  8-C ) :   1.0377 B(  7-C , 11-H ) :   0.1104 
B(  7-C , 12-H ) :   1.1481 B(  8-C ,  9-H ) :   0.9851 B(  8-C , 10-H ) :   0.9867 
B(  8-C , 11-H ) :   0.9296 B( 16-C , 17-H ) :   0.9632 B( 16-C , 18-H ) :   0.9873 
B( 16-C , 19-H ) :   0.9890 

-------
TIMINGS
-------

Total SCF time: 0 days 0 hours 7 min 17 sec 

Total time                  ....     437.774 sec
Sum of individual times     ....     437.279 sec  ( 99.9%)

SCF preparation             ....       1.056 sec  (  0.2%)
Fock matrix formation       ....     423.677 sec  ( 96.8%)
  Startup                   ....       0.708 sec  (  0.2% of F)
  Split-RI-J                ....      22.789 sec  (  5.4% of F)
  Chain of spheres X        ....     255.049 sec  ( 60.2% of F)
  XC integration            ....     131.422 sec  ( 31.0% of F)
    XC Preparation          ....       0.000 sec  (  0.0% of XC)
    Basis function eval.    ....      11.422 sec  (  8.7% of XC)
    Density eval.           ....      48.932 sec  ( 37.2% of XC)
    XC-Functional eval.     ....       1.228 sec  (  0.9% of XC)
    XC-Potential eval.      ....      67.374 sec  ( 51.3% of XC)
  CPCM terms                ....      11.798 sec  (  2.8% of F)
Diagonalization             ....       0.000 sec  (  0.0%)
Density matrix formation    ....       1.845 sec  (  0.4%)
Total Energy calculation    ....       0.803 sec  (  0.2%)
Population analysis         ....       0.386 sec  (  0.1%)
Orbital Transformation      ....       0.766 sec  (  0.2%)
Orbital Orthonormalization  ....       0.000 sec  (  0.0%)
DIIS solution               ....       7.228 sec  (  1.7%)
SOSCF solution              ....       1.517 sec  (  0.3%)
Finished LeanSCF after 438.0 sec

Maximum memory used throughout the entire LEANSCF-calculation: 117.8 MB


-------------------------------------------------------------------------------
                          DFT DISPERSION CORRECTION                            
                                                                               
                              DFTD3 V3.1  Rev 1                                
                          USING Becke-Johnson damping                          
-------------------------------------------------------------------------------
The TPSSH functional is recognized
Active option DFTDOPT                   ...         4   

molecular C6(AA) [au] = 4874.974399 


            DFT-D V3
 parameters
 s6 scaling factor         :     1.0000 
 a1 scaling factor         :     0.4529 
 s8 scaling factor         :     2.2382 
 a2 scaling factor         :     4.6550 
 ad hoc parameters k1-k3   :    16.0000     1.3333    -4.0000 

 Edisp/kcal,au: -15.955540539925  -0.025426769630 
 E6   /kcal   :  -7.661664168 
 E8   /kcal   :  -8.293876372 
 % E8         :  51.981168242 

-------------------------   ----------------
Dispersion correction           -0.025426770
-------------------------   ----------------


-------------------------   --------------------
FINAL SINGLE POINT ENERGY      -388.483658007434
-------------------------   --------------------



           ************************************************************
           *        Program running with 4 parallel MPI-processes     *
           *              working on a common directory               *
           ************************************************************

------------------------------------------------------------------------------
                              ORCA PROPERTY CALCULATIONS
------------------------------------------------------------------------------

GBWName                                 ... cs_rporg_017_red_solv_01.gbw
Number of atoms                         ...     22
Number of basis functions               ...    796
Max core memory                         ...   3000 MB

Electric properties:
Dipole moment                           ... YES
Quadrupole moment                       ...  NO
Static polarizability (Dipole/Dipole)   ...  NO
Static polarizability (Dipole/Quad.)    ...  NO
Static polarizability (Quad./Quad.)     ...  NO
Static polarizability (Velocity)        ...  NO

Atomic electric properties:
Dipole moment                           ...  NO
Quadrupole moment                       ...  NO
Static polarizability                   ...  NO

Choice of electric origin               ... Center of mass
Position of electric origin             ...    -0.001602    -0.000151     0.000731

General magnetic properties:
Magnetizability                         ...  NO

EPR properties:
g-Tensor (aka g-matrix)                 ...  NO
Zero-Field splitting spin-orbit         ...  NO
Zero-field splitting spin-spin          ...  NO
Hyperfine couplings                     ...  NO (   0 nuclei)
Quadrupole couplings                    ...  NO (   0 nuclei)
Contact density                         ...  NO (   0 nuclei)

NMR properties:
Chemical shifts                         ...  NO (   0 nuclei)
Spin-rotation constants                 ...  NO (   0 nuclei)
Spin-spin couplings                     ...  NO (   0 nuclei,    0 pairs)

Choice of magnetic origin               ... GIAO
Position of magnetic origin             ...     0.000000     0.000000     0.000000

Properties with geometric perturbations:
SCF Hessian                             ...  NO
IR spectrum                             ...  NO
VCD spectrum                            ...  NO
X-ray spectroscopy properties:
SCF XES/XAS/RIXS spectra                ...  NO


-------------
DIPOLE MOMENT
-------------

Method             : SCF
Type of density    : Electron Density
Multiplicity       :   1
Irrep              :   0
Energy             :  -388.4582312378037727 Eh
Relativity type    : 
Basis              : AO
                                X                 Y                 Z
Electronic contribution:     -2.553285620       0.668397838       0.032002725
Nuclear contribution   :      2.550584305      -0.802045271      -0.048555466
                        -----------------------------------------
Total Dipole Moment    :     -0.002701315      -0.133647433      -0.016552741
                        -----------------------------------------
Magnitude (a.u.)       :      0.134695681
Magnitude (Debye)      :      0.342369214



--------------------
Rotational spectrum 
--------------------
 
Rotational constants in cm-1:             0.159882             0.020202             0.018058 
Rotational constants in MHz :          4793.148645           605.632668           541.352924 

Dipole components along the rotational axes: 
x,y,z [a.u.] :     0.002732    -0.133651    -0.016516 
x,y,z [Debye]:     0.006945    -0.339715    -0.041981 

 

Dipole moment calculation done in   0.1 sec 

Maximum memory used throughout the entire PROP-calculation: 69.8 MB

--------------------------------
SUGGESTED CITATIONS FOR THIS RUN
--------------------------------

Below you find a list of papers that are relevant to this ORCA run
We neither can nor want to force you to cite these papers, but we appreciate if you do
You receive ORCA, which is the product of decades of hard work by many enthusiastic individuals, for free
The only thing we kindly ask in return is that you cite our papers,
We deeply appreciate it, if you show your appreciation for ORCA by not just citing the generic ORCA reference.

Please note that relegating all ORCA citations to the supporting information does *not* help us.
SI sections are not indexed - citations you put there will not count into any citation statistics
But we need these citations in order to attract the funding resources that allow us to do what we are doing

Therefore, if you are a happy ORCA user, please consider citing a few of the papers listed below in the main body of your paper

In addition to the list printed below, the program has created the file cs_rporg_017_red_solv_01.bibtex that contains the list in bibtex format
You can import this file easily into all common literature databanks and citation aid programs


List of essential papers. We consider these as the minimum necessary citations

  1. Neese,F.
     Software update: the ORCA program system, version 5.0
     WIRES Comput. Molec. Sci., 2022 12(1)e1606
     doi.org/10.1002/wcms.1606

List of papers to cite with high priority. The work reported in these papers was absolutely
necessary for this run to complete.
Our perspective: the developers of density functionals and basis sets usually get cited in chemistry papers
Good! But without the algorithms to do something with them, the functionals or basis sets would not do anything.
Hence, in our opinion, the algorithm design and method developments papers are equally worthy of getting cited

  1. Neese,F.
     An improvement of the resolution of the identity approximation for the formation of the Coulomb matrix
     J. Comp. Chem., 2003 24(14)1740-1747
     doi.org/10.1002/jcc.10318
  2. Neese,F.; Wennmohs,F.; Hansen,A.; Becker,U.
     Efficient, approximate and parallel Hartree-Fock and hybrid DFT calculations. A 'chain-of-spheres' algorithm for the Hartree-Fock exchange
     Chem. Phys., 2009 356(1-3)98-109
     doi.org/10.1016/j.chemphys.2008.10.036
  3. Garcia-Rates,M.; Neese,F.
     Effect of the Solute Cavity on the Solvation Energy and its Derivatives within the Framework of the Gaussian Charge Scheme
     J. Comput. Chem., 2020 41 922-939
     doi.org/10.1002/jcc.26139
  4. Helmich-Paris,B.; de Souza,B.; Neese,F.; Izsák,R.
     An improved chain of spheres for exchange algorithm
     J. Chem. Phys., 2021 155 104109
     doi.org/doi: 10.1063/5.0058766.
  5. Neese,F.
     The SHARK Integral Generation and Digestion System
     J. Comp. Chem., 2022  1-16
     doi.org/10.1002/jcc.26942
  6. Grimme,S.; Antony,J.; Ehrlich,S.; Krieg,H.
     A consistent and accurate ab initio parametrization of density functional dispersion correction (DFT-D) for the 94 elements H-Pu
     J. Chem. Phys., 2010 132 154104-XXXX
     doi.org/10.1063/1.3382344
  7. Grimme,S.; Ehrlich,S.; Goerigk,L.
     Effect of the damping function in dispersion corrected density functional theory
     J. Comput. Chem., 2011 32(7)1456-1465
     doi.org/10.1002/jcc.21759

List of suggested additional citations. These are papers that are important in the 'surrounding' of 
of this run, or papers that preceded the highly important papers. If you like your results we are grateful for a citation.

  1. Izsak,R.; Neese,F.
     An overlap fitted chain of spheres exchange method
     J. Chem. Phys., 2011 135 144105
     doi.org/10.1063/1.3646921
  2. Izsak,R.; Hansen,A.; Neese,F.
     The resolution of identity and chain of spheres approximations for the LPNO-CCSD singles Fock term
     Molec. Phys., 2012 110 2413-2417
     doi.org/10.1080/00268976.2012.687466
  3. Neese,F.
     The ORCA program system
     WIRES Comput. Molec. Sci., 2012 2(1)73-78
     doi.org/10.1002/wcms.81
  4. Izsak,R.; Neese,F.; Klopper,W.
     Robust fitting techniques in the chain of spheres approximation to the Fock exchange: The role of the complementary space
     J. Chem. Phys., 2013 139 
     doi.org/10.1063/1.4819264
  5. Neese,F.
     Software update: the ORCA program system, version 4.0
     WIRES Comput. Molec. Sci., 2018 8(1)1-6
     doi.org/10.1002/wcms.1327
  6. Neese,F.; Wennmohs,F.; Becker,U.; Riplinger,C.
     The ORCA quantum chemistry program package
     J. Chem. Phys., 2020 152 Art. No. L224108
     doi.org/10.1063/5.0004608

List of optional additional citations

  1. Neese,F.
     Approximate second-order SCF convergence for spin unrestricted wavefunctions
     Chem. Phys. Lett., 2000 325(1-3)93-98
     doi.org/10.1016/s0009-2614(00)00662-x

Timings for individual modules:

Sum of individual times          ...      459.256 sec (=   7.654 min)
Startup calculation              ...       12.929 sec (=   0.215 min)   2.8 %
SCF iterations                   ...      444.364 sec (=   7.406 min)  96.8 %
Property calculations            ...        1.963 sec (=   0.033 min)   0.4 %
                             ****ORCA TERMINATED NORMALLY****
TOTAL RUN TIME: 0 days 0 hours 7 minutes 41 seconds 801 msec
