 vasp.6.3.2 27Jun22 (build Oct 25 2024 11:36:28) complex                        
  
 executed on             LinuxIFC date 2025.09.09  21:55:06
 running on   90 total cores
 distrk:  each k-point on   90 cores,    1 groups
 distr:  one band on NCORE=  15 cores,    6 groups


--------------------------------------------------------------------------------------------------------


 INCAR:
   SYSTEM = 111_ox
   ISTART = 1
   ICHARG = 2
   INIWAV = 1
   LHFCALC = .TRUE.
   HFSCREEN = 0.2
   NELM = 500
   ALGO = Damped
   ISPIN = 2
   EDIFF = 1E-05
   ISMEAR = 0
   SIGMA = 0.05
   PREC = accurate
   ENCUT = 500
   LREAL = auto  	
   LDIAG = .FALSE.
   LWAVE = .TRUE.
   LCHARG = .FALSE.
   LAECHG = .FALSE.
   LVHAR = .FALSE.
   LVTOT = .FALSE.
   EDIFFG = -0.02
   IBRION = 2
   NSW = 0
   ISIF = 2
   POTIM = 0.5
   IVDW = 12
   VDW_A1 = 0.383
   VDW_S8 = 2.310
   VDW_A2 = 5.685
   LPLANE = .TRUE.
   NCORE = 15
   LSCALU = .FALSE.
   NSIM = 4
   LSOL = .TRUE.
   ISOL = 2
   R_SOLV = 2.1900
   EPSILON_INF = 1.8069
   N_MOL = 0.0115
   P_MOL = 0.82
   EB_K = 35.6880
   NELECT = 53

 POTCAR:    PAW_PBE C 08Apr2002                   
 POTCAR:    PAW_PBE F 08Apr2002                   
 POTCAR:    PAW_PBE N 08Apr2002                   
 POTCAR:    PAW_PBE O 08Apr2002                   
 POTCAR:    PAW_PBE H 15Jun2001                   
 -----------------------------------------------------------------------------
|                                                                             |
|           W    W    AA    RRRRR   N    N  II  N    N   GGGG   !!!           |
|           W    W   A  A   R    R  NN   N  II  NN   N  G    G  !!!           |
|           W    W  A    A  R    R  N N  N  II  N N  N  G       !!!           |
|           W WW W  AAAAAA  RRRRR   N  N N  II  N  N N  G  GGG   !            |
|           WW  WW  A    A  R   R   N   NN  II  N   NN  G    G                |
|           W    W  A    A  R    R  N    N  II  N    N   GGGG   !!!           |
|                                                                             |
|     You use a magnetic or noncollinear calculation, but did not specify     |
|     the initial magnetic moment with the MAGMOM tag. Note that a            |
|     default of 1 will be used for all atoms. This ferromagnetic setup       |
|     may break the symmetry of the crystal, in particular it may rule        |
|     out finding an antiferromagnetic solution. Thence, we recommend         |
|     setting the initial magnetic moment manually or verifying carefully     |
|     that this magnetic setup is desired.                                    |
|                                                                             |
 -----------------------------------------------------------------------------

 POTCAR:    PAW_PBE C 08Apr2002                   
   SHA256 =  253f7b50bb8d59471dbedb8285d89021f4a42ed1a2c5d38a03a736e69125dd95 C/POTCAR              
   COPYR  = (c) Copyright 08Apr2002 Georg Kresse                                                    
   COPYR  = This file is part of the software VASP. Any use, copying, and all other rights are regul
   COPYR  = If you do not have a valid VASP license, you may not use, copy or distribute this file. 
   VRHFIN =C: s2p2                                                                                  
   LEXCH  = PE                                                                                      
   EATOM  =   147.1560 eV,   10.8157 Ry                                                             
                                                                                                    
   TITEL  = PAW_PBE C 08Apr2002                                                                     
   LULTRA =        F    use ultrasoft PP ?                                                          
   IUNSCR =        1    unscreen: 0-lin 1-nonlin 2-no                                               
   RPACOR =    1.200    partial core radius                                                         
   POMASS =   12.011; ZVAL   =    4.000    mass and valenz                                          
   RCORE  =    1.500    outmost cutoff radius                                                       
   RWIGS  =    1.630; RWIGS  =    0.863    wigner-seitz radius (au A)                               
   ENMAX  =  400.000; ENMIN  =  300.000 eV                                                          
   ICORE  =        2    local potential                                                             
   LCOR   =        T    correct aug charges                                                         
   LPAW   =        T    paw PP                                                                      
   EAUG   =  644.873                                                                                
   DEXC   =    0.000                                                                                
   RMAX   =    1.529    core radius for proj-oper                                                   
   RAUG   =    1.300    factor for augmentation sphere                                              
   RDEP   =    1.501    radius for radial grids                                                     
   RDEPT  =    1.300    core radius for aug-charge                                                  
                                                                                                    
   Atomic configuration                                                                             
    4 entries                                                                                       
     n  l   j            E        occ.                                                              
     1  0  0.50      -273.3789   2.0000                                                             
     2  0  0.50       -13.7508   2.0000                                                             
     2  1  0.50        -5.2854   2.0000                                                             
     3  2  1.50        -5.4423   0.0000                                                             
   Description                                                                                      
     l       E           TYP  RCUT    TYP  RCUT                                                     
     0    -13.7508458     23  1.200                                                                 
     0     -8.2022199     23  1.200                                                                 
     1     -5.2854383     23  1.500                                                                 
     1     34.0145650     23  1.500                                                                 
     2     -5.4423304      7  1.500                                                                 
  local pseudopotential read in
  partial core-charges read in
  partial kinetic energy density read in
  atomic valenz-charges read in
  non local Contribution for L=           0  read in
    real space projection operators read in
  non local Contribution for L=           0  read in
    real space projection operators read in
  non local Contribution for L=           1  read in
    real space projection operators read in
  non local Contribution for L=           1  read in
    real space projection operators read in
    PAW grid and wavefunctions read in
 
   number of l-projection  operators is LMAX  =           4
   number of lm-projection operators is LMMAX =           8
 
 POTCAR:    PAW_PBE F 08Apr2002                   
   SHA256 =  53c630871ac675939349fc2b976745ee17808dedc90b5bdde026bc81f0faf456 F/POTCAR              
   COPYR  = (c) Copyright 08Apr2002 Georg Kresse                                                    
   COPYR  = This file is part of the software VASP. Any use, copying, and all other rights are regul
   COPYR  = If you do not have a valid VASP license, you may not use, copy or distribute this file. 
   VRHFIN =F: s2p5                                                                                  
   LEXCH  = PE                                                                                      
   EATOM  =   659.6475 eV,   48.4827 Ry                                                             
                                                                                                    
   TITEL  = PAW_PBE F 08Apr2002                                                                     
   LULTRA =        F    use ultrasoft PP ?                                                          
   IUNSCR =        1    unscreen: 0-lin 1-nonlin 2-no                                               
   RPACOR =    1.200    partial core radius                                                         
   POMASS =   18.998; ZVAL   =    7.000    mass and valenz                                          
   RCORE  =    1.520    outmost cutoff radius                                                       
   RWIGS  =    1.500; RWIGS  =    0.794    wigner-seitz radius (au A)                               
   ENMAX  =  400.000; ENMIN  =  300.000 eV                                                          
   ICORE  =        2    local potential                                                             
   LCOR   =        T    correct aug charges                                                         
   LPAW   =        T    paw PP                                                                      
   EAUG   =  613.614                                                                                
   RMAX   =    1.555    core radius for proj-oper                                                   
   RAUG   =    1.300    factor for augmentation sphere                                              
   RDEP   =    1.539    radius for radial grids                                                     
   RDEPT  =    1.299    core radius for aug-charge                                                  
                                                                                                    
   Atomic configuration                                                                             
    4 entries                                                                                       
     n  l   j            E        occ.                                                              
     1  0  0.50      -663.3661   2.0000                                                             
     2  0  0.50       -29.8995   2.0000                                                             
     2  1  0.50       -11.1114   5.0000                                                             
     3  2  1.50       -10.8847   0.0000                                                             
   Description                                                                                      
     l       E           TYP  RCUT    TYP  RCUT                                                     
     0    -29.8995018     23  1.200                                                                 
     0     -9.5240782     23  1.200                                                                 
     1    -11.1113914     23  1.520                                                                 
     1      1.3605826     23  1.520                                                                 
     2    -10.8846608      7  1.500                                                                 
  local pseudopotential read in
  partial core-charges read in
  partial kinetic energy density read in
  atomic valenz-charges read in
  non local Contribution for L=           0  read in
    real space projection operators read in
  non local Contribution for L=           0  read in
    real space projection operators read in
  non local Contribution for L=           1  read in
    real space projection operators read in
  non local Contribution for L=           1  read in
    real space projection operators read in
    PAW grid and wavefunctions read in
 
   number of l-projection  operators is LMAX  =           4
   number of lm-projection operators is LMMAX =           8
 
 POTCAR:    PAW_PBE N 08Apr2002                   
   SHA256 =  e053789ff3a61a86a1b75d8a110fcc91f86041011e7b0817c7c99e4e8a6349d7 N/POTCAR              
   COPYR  = (c) Copyright 08Apr2002 Georg Kresse                                                    
   COPYR  = This file is part of the software VASP. Any use, copying, and all other rights are regul
   COPYR  = If you do not have a valid VASP license, you may not use, copy or distribute this file. 
   VRHFIN =N: s2p3                                                                                  
   LEXCH  = PE                                                                                      
   EATOM  =   264.5486 eV,   19.4438 Ry                                                             
                                                                                                    
   TITEL  = PAW_PBE N 08Apr2002                                                                     
   LULTRA =        F    use ultrasoft PP ?                                                          
   IUNSCR =        1    unscreen: 0-lin 1-nonlin 2-no                                               
   RPACOR =    1.200    partial core radius                                                         
   POMASS =   14.001; ZVAL   =    5.000    mass and valenz                                          
   RCORE  =    1.500    outmost cutoff radius                                                       
   RWIGS  =    1.400; RWIGS  =    0.741    wigner-seitz radius (au A)                               
   ENMAX  =  400.000; ENMIN  =  300.000 eV                                                          
   ICORE  =        2    local potential                                                             
   LCOR   =        T    correct aug charges                                                         
   LPAW   =        T    paw PP                                                                      
   EAUG   =  627.112                                                                                
   DEXC   =    0.000                                                                                
   RMAX   =    1.529    core radius for proj-oper                                                   
   RAUG   =    1.300    factor for augmentation sphere                                              
   RDEP   =    1.514    radius for radial grids                                                     
   RDEPT  =    1.338    core radius for aug-charge                                                  
                                                                                                    
   Atomic configuration                                                                             
    4 entries                                                                                       
     n  l   j            E        occ.                                                              
     1  0  0.50      -384.7179   2.0000                                                             
     2  0  0.50       -18.5828   2.0000                                                             
     2  1  0.50        -7.0898   3.0000                                                             
     3  2  1.50        -6.8029   0.0000                                                             
   Description                                                                                      
     l       E           TYP  RCUT    TYP  RCUT                                                     
     0    -18.5828119     23  1.200                                                                 
     0    -13.5018863     23  1.200                                                                 
     1     -7.0897853     23  1.500                                                                 
     1      9.5240782     23  1.500                                                                 
     2     -6.8029130      7  1.500                                                                 
  local pseudopotential read in
  partial core-charges read in
  partial kinetic energy density read in
  atomic valenz-charges read in
  non local Contribution for L=           0  read in
    real space projection operators read in
  non local Contribution for L=           0  read in
    real space projection operators read in
  non local Contribution for L=           1  read in
    real space projection operators read in
  non local Contribution for L=           1  read in
    real space projection operators read in
    PAW grid and wavefunctions read in
 
   number of l-projection  operators is LMAX  =           4
   number of lm-projection operators is LMMAX =           8
 
 POTCAR:    PAW_PBE O 08Apr2002                   
   SHA256 =  818f92134a0a090dccd8ba1447fa70422a3b330e708bb4f08108d8ae51209ddf O/POTCAR              
   COPYR  = (c) Copyright 08Apr2002 Georg Kresse                                                    
   COPYR  = This file is part of the software VASP. Any use, copying, and all other rights are regul
   COPYR  = If you do not have a valid VASP license, you may not use, copy or distribute this file. 
   VRHFIN =O: s2p4                                                                                  
   LEXCH  = PE                                                                                      
   EATOM  =   432.3788 eV,   31.7789 Ry                                                             
                                                                                                    
   TITEL  = PAW_PBE O 08Apr2002                                                                     
   LULTRA =        F    use ultrasoft PP ?                                                          
   IUNSCR =        1    unscreen: 0-lin 1-nonlin 2-no                                               
   RPACOR =    1.200    partial core radius                                                         
   POMASS =   16.000; ZVAL   =    6.000    mass and valenz                                          
   RCORE  =    1.520    outmost cutoff radius                                                       
   RWIGS  =    1.550; RWIGS  =    0.820    wigner-seitz radius (au A)                               
   ENMAX  =  400.000; ENMIN  =  300.000 eV                                                          
   ICORE  =        2    local potential                                                             
   LCOR   =        T    correct aug charges                                                         
   LPAW   =        T    paw PP                                                                      
   EAUG   =  605.392                                                                                
   DEXC   =    0.000                                                                                
   RMAX   =    1.553    core radius for proj-oper                                                   
   RAUG   =    1.300    factor for augmentation sphere                                              
   RDEP   =    1.550    radius for radial grids                                                     
   RDEPT  =    1.329    core radius for aug-charge                                                  
                                                                                                    
   Atomic configuration                                                                             
    4 entries                                                                                       
     n  l   j            E        occ.                                                              
     1  0  0.50      -514.6923   2.0000                                                             
     2  0  0.50       -23.9615   2.0000                                                             
     2  1  0.50        -9.0305   4.0000                                                             
     3  2  1.50        -9.5241   0.0000                                                             
   Description                                                                                      
     l       E           TYP  RCUT    TYP  RCUT                                                     
     0    -23.9615318     23  1.200                                                                 
     0     -9.5240782     23  1.200                                                                 
     1     -9.0304911     23  1.520                                                                 
     1      8.1634956     23  1.520                                                                 
     2     -9.5240782      7  1.500                                                                 
  local pseudopotential read in
  partial core-charges read in
  partial kinetic energy density read in
  kinetic energy density of atom read in
  atomic valenz-charges read in
  non local Contribution for L=           0  read in
    real space projection operators read in
  non local Contribution for L=           0  read in
    real space projection operators read in
  non local Contribution for L=           1  read in
    real space projection operators read in
  non local Contribution for L=           1  read in
    real space projection operators read in
    PAW grid and wavefunctions read in
 
   number of l-projection  operators is LMAX  =           4
   number of lm-projection operators is LMMAX =           8
 
 POTCAR:    PAW_PBE H 15Jun2001                   
   SHA256 =  030f79b5d3ab3cf0e668861823c8fb652ff669f3e15e46930bd03bfd63a607b6 H/POTCAR              
   COPYR  = (c) Copyright 15Jun2001 Georg Kresse                                                    
   COPYR  = This file is part of the software VASP. Any use, copying, and all other rights are regul
   COPYR  = If you do not have a valid VASP license, you may not use, copy or distribute this file. 
   VRHFIN =H: ultrasoft test                                                                        
   LEXCH  = PE                                                                                      
   EATOM  =    12.4884 eV,    0.9179 Ry                                                             
                                                                                                    
   TITEL  = PAW_PBE H 15Jun2001                                                                     
   LULTRA =        F    use ultrasoft PP ?                                                          
   IUNSCR =        0    unscreen: 0-lin 1-nonlin 2-no                                               
   RPACOR =    0.000    partial core radius                                                         
   POMASS =    1.000; ZVAL   =    1.000    mass and valenz                                          
   RCORE  =    1.100    outmost cutoff radius                                                       
   RWIGS  =    0.700; RWIGS  =    0.370    wigner-seitz radius (au A)                               
   ENMAX  =  250.000; ENMIN  =  200.000 eV                                                          
   RCLOC  =    0.701    cutoff for local pot                                                        
   LCOR   =        T    correct aug charges                                                         
   LPAW   =        T    paw PP                                                                      
   EAUG   =  400.000                                                                                
   RMAX   =    1.123    core radius for proj-oper                                                   
   RAUG   =    1.200    factor for augmentation sphere                                              
   RDEP   =    1.112    radius for radial grids                                                     
   RDEPT  =    0.926    core radius for aug-charge                                                  
                                                                                                    
   Atomic configuration                                                                             
    2 entries                                                                                       
     n  l   j            E        occ.                                                              
     1  0  0.50        -6.4927   1.0000                                                             
     2  1  0.50        -3.4015   0.0000                                                             
   Description                                                                                      
     l       E           TYP  RCUT    TYP  RCUT                                                     
     0     -6.4927494     23  1.100                                                                 
     0      6.8029130     23  1.100                                                                 
     1     -4.0817478     23  1.100                                                                 
  local pseudopotential read in
  atomic valenz-charges read in
  non local Contribution for L=           0  read in
    real space projection operators read in
  non local Contribution for L=           0  read in
    real space projection operators read in
  non local Contribution for L=           1  read in
    real space projection operators read in
    PAW grid and wavefunctions read in
 
   number of l-projection  operators is LMAX  =           3
   number of lm-projection operators is LMMAX =           5
 
 Optimization of the real space projectors (new method)

 maximal supplied QI-value         = 25.13
 optimisation between [QCUT,QGAM] = [ 11.31, 22.87] = [ 35.82,146.48] Ry 
 Optimized for a Real-space Cutoff    1.03 Angstroem

   l    n(q)    QCUT    max X(q) W(low)/X(q) W(high)/X(q)  e(spline) 
   0      7    11.310   115.676    0.20E-03    0.90E-03    0.20E-06
   0      7    11.310    87.132    0.20E-03    0.89E-03    0.19E-06
   1      6    11.310     4.429    0.16E-03    0.28E-03    0.12E-06
   1      6    11.310     2.733    0.12E-03    0.21E-03    0.99E-07
 Optimization of the real space projectors (new method)

 maximal supplied QI-value         = 24.76
 optimisation between [QCUT,QGAM] = [ 11.39, 22.77] = [ 36.31,145.25] Ry 
 Optimized for a Real-space Cutoff    1.10 Angstroem

   l    n(q)    QCUT    max X(q) W(low)/X(q) W(high)/X(q)  e(spline) 
   0      7    11.387    14.049    0.19E-03    0.36E-03    0.12E-06
   0      7    11.387     8.945    0.22E-03    0.47E-03    0.17E-06
   1      7    11.387     7.086    0.20E-03    0.70E-03    0.23E-06
   1      7    11.387     6.747    0.18E-03    0.60E-03    0.21E-06
 Optimization of the real space projectors (new method)

 maximal supplied QI-value         = 25.13
 optimisation between [QCUT,QGAM] = [ 11.31, 22.87] = [ 35.82,146.48] Ry 
 Optimized for a Real-space Cutoff    1.43 Angstroem

   l    n(q)    QCUT    max X(q) W(low)/X(q) W(high)/X(q)  e(spline) 
   0     10    11.310    79.467    0.42E-04    0.81E-04    0.60E-06
   0     10    11.310    66.151    0.40E-04    0.81E-04    0.60E-06
   1      9    11.310    17.416    0.14E-03    0.88E-04    0.14E-05
   1      9    11.310    12.382    0.15E-03    0.93E-04    0.14E-05
 Optimization of the real space projectors (new method)

 maximal supplied QI-value         = 24.76
 optimisation between [QCUT,QGAM] = [ 11.39, 22.77] = [ 36.31,145.25] Ry 
 Optimized for a Real-space Cutoff    1.10 Angstroem

   l    n(q)    QCUT    max X(q) W(low)/X(q) W(high)/X(q)  e(spline) 
   0      7    11.387    20.381    0.22E-03    0.48E-03    0.18E-06
   0      7    11.387    15.268    0.22E-03    0.52E-03    0.19E-06
   1      7    11.387     5.964    0.22E-03    0.73E-03    0.24E-06
   1      7    11.387     5.382    0.19E-03    0.60E-03    0.21E-06
 Optimization of the real space projectors (new method)

 maximal supplied QI-value         = 34.20
 optimisation between [QCUT,QGAM] = [ 11.29, 22.57] = [ 35.68,142.71] Ry 
 Optimized for a Real-space Cutoff    1.20 Angstroem

   l    n(q)    QCUT    max X(q) W(low)/X(q) W(high)/X(q)  e(spline) 
   0      8    11.287    19.460    0.22E-03    0.50E-03    0.19E-06
   0      8    11.287    12.209    0.21E-03    0.48E-03    0.18E-06
   1      8    11.287     4.655    0.21E-03    0.11E-04    0.26E-06
  PAW_PBE C 08Apr2002                   :
 energy of atom  1       EATOM= -147.1560
 kinetic energy error for atom=    0.0076 (will be added to EATOM!!)
  PAW_PBE F 08Apr2002                   :
 energy of atom  2       EATOM= -659.6475
 kinetic energy error for atom=    0.0354 (will be added to EATOM!!)
  PAW_PBE N 08Apr2002                   :
 energy of atom  3       EATOM= -264.5486
 kinetic energy error for atom=    0.0138 (will be added to EATOM!!)
  PAW_PBE O 08Apr2002                   :
 energy of atom  4       EATOM= -432.3788
 kinetic energy error for atom=    0.0224 (will be added to EATOM!!)
  PAW_PBE H 15Jun2001                   :
 energy of atom  5       EATOM=  -12.4884
 kinetic energy error for atom=    0.0020 (will be added to EATOM!!)
 
 
 POSCAR: C F N O H
  positions in direct lattice
  velocities in cartesian coordinates
 exchange correlation table for  LEXCH =        8
   RHO(1)=    0.500       N(1)  =     2000
   RHO(2)=  100.500       N(2)  =     4000
 
 POSCAR: C F N O H
  positions in direct lattice
  velocities in cartesian coordinates
 
 POSCAR: C F N O H
  positions in direct lattice
  velocities in cartesian coordinates
 


--------------------------------------------------------------------------------------------------------


 ion  position               nearest neighbor table
   1  0.470  0.469  0.500-  14 1.09   2 1.39   6 1.40
   2  0.505  0.469  0.500-  13 1.09   1 1.39   3 1.42
   3  0.523  0.500  0.500-   8 1.40   4 1.42   2 1.42
   4  0.505  0.531  0.500-  12 1.09   5 1.39   3 1.42
   5  0.470  0.531  0.500-  11 1.09   4 1.39   6 1.40
   6  0.453  0.500  0.500-   7 1.39   1 1.40   5 1.40
   7  0.419  0.500  0.500-   6 1.39
   8  0.558  0.500  0.500-  10 1.30   9 1.30   3 1.40
   9  0.574  0.472  0.500-   8 1.30
  10  0.574  0.528  0.500-   8 1.30
  11  0.456  0.554  0.500-   5 1.09
  12  0.519  0.554  0.500-   4 1.09
  13  0.519  0.446  0.500-   2 1.09
  14  0.456  0.446  0.500-   1 1.09
 
  LATTYP: Found a simple cubic cell.
 ALAT       =    40.0000000000
  
  Lattice vectors:
  
 A1 = (  40.0000000000,   0.0000000000,   0.0000000000)
 A2 = (   0.0000000000,  40.0000000000,   0.0000000000)
 A3 = (   0.0000000000,   0.0000000000,  40.0000000000)


Analysis of symmetry for initial positions (statically):
=====================================================================
 Subroutine PRICEL returns:
 Original cell was already a primitive cell.
 

 Routine SETGRP: Setting up the symmetry group for a 
 simple cubic supercell.


 Subroutine GETGRP returns: Found  4 space group operations
 (whereof  4 operations were pure point group operations)
 out of a pool of 48 trial point group operations.


The static configuration has the point symmetry C_2v.


Analysis of symmetry for dynamics (positions and initial velocities):
=====================================================================
 Subroutine PRICEL returns:
 Original cell was already a primitive cell.
 

 Routine SETGRP: Setting up the symmetry group for a 
 simple cubic supercell.


 Subroutine GETGRP returns: Found  4 space group operations
 (whereof  4 operations were pure point group operations)
 out of a pool of 48 trial point group operations.


The dynamic configuration has the point symmetry C_2v.


Analysis of constrained symmetry for selective dynamics:
=====================================================================
 Subroutine PRICEL returns:
 Original cell was already a primitive cell.
 

 Routine SETGRP: Setting up the symmetry group for a 
 simple cubic supercell.


 Subroutine GETGRP returns: Found  4 space group operations
 (whereof  4 operations were pure point group operations)
 out of a pool of 48 trial point group operations.


The constrained configuration has the point symmetry C_2v.


Analysis of structural, dynamic, and magnetic symmetry:
=====================================================================
 Subroutine PRICEL returns:
 Original cell was already a primitive cell.
 

 Routine SETGRP: Setting up the symmetry group for a 
 simple cubic supercell.


 Subroutine GETGRP returns: Found  4 space group operations
 (whereof  4 operations were pure point group operations)
 out of a pool of 48 trial point group operations.


The overall configuration has the point symmetry C_2v.


 Subroutine INISYM returns: Found  4 space group operations
 (whereof  4 operations are pure point group operations),
 and found     1 'primitive' translations


----------------------------------------------------------------------------------------

                                     Primitive cell                                     

  volume of cell :   64000.0000

  direct lattice vectors                    reciprocal lattice vectors
    40.000000000  0.000000000  0.000000000     0.025000000  0.000000000  0.000000000
     0.000000000 40.000000000  0.000000000     0.000000000  0.025000000  0.000000000
     0.000000000  0.000000000 40.000000000     0.000000000  0.000000000  0.025000000

  length of vectors
    40.000000000 40.000000000 40.000000000     0.025000000  0.025000000  0.025000000

  position of ions in fractional coordinates (direct lattice)
     0.470143953  0.469486439  0.499997083
     0.504917609  0.469374214  0.499998323
     0.522945812  0.499999696  0.500000008
     0.504918095  0.530625324  0.500001835
     0.470144088  0.530513857  0.500002643
     0.453223460  0.499999899  0.499999794
     0.418551159  0.500000181  0.499999469
     0.557900396  0.499999684  0.499999941
     0.573647136  0.471646819  0.499998869
     0.573647307  0.528352331  0.500000636
     0.456015596  0.553820445  0.500004150
     0.518965388  0.553910033  0.500004529
     0.518964986  0.446089421  0.499996267
     0.456015014  0.446179658  0.499995453

  ion indices of the primitive-cell ions
   primitive index   ion index
                 1           1
                 2           2
                 3           3
                 4           4
                 5           5
                 6           6
                 7           7
                 8           8
                 9           9
                10          10
                11          11
                12          12
                13          13
                14          14

----------------------------------------------------------------------------------------

 
 
 KPOINTS: K-Point Grid                            

Automatic generation of k-mesh.
 Grid dimensions read from file:
 generate k-points for:    1    1    1

 Generating k-lattice:

  Cartesian coordinates                     Fractional coordinates (reciprocal lattice)
     0.025000000  0.000000000  0.000000000     1.000000000  0.000000000  0.000000000
     0.000000000  0.025000000  0.000000000     0.000000000  1.000000000  0.000000000
     0.000000000  0.000000000  0.025000000     0.000000000  0.000000000  1.000000000

  Length of vectors
     0.025000000  0.025000000  0.025000000

  Shift w.r.t. Gamma in fractional coordinates (k-lattice)
     0.000000000  0.000000000  0.000000000

 
 Subroutine IBZKPT returns following result:
 ===========================================
 
 Found      1 irreducible k-points:
 
 Following reciprocal coordinates:
            Coordinates               Weight
  0.000000  0.000000  0.000000      1.000000
 
 Following cartesian coordinates:
            Coordinates               Weight
  0.000000  0.000000  0.000000      1.000000
 
 
 Subroutine IBZKPT_HF returns following result:
 ==============================================
 
 Found      1 k-points in 1st BZ
 the following      1 k-points will be used (e.g. in the exchange kernel)
 Following reciprocal coordinates:   # in IRBZ
  0.000000  0.000000  0.000000    1.00000000   1 t-inv F


--------------------------------------------------------------------------------------------------------




 Dimension of arrays:
   k-points           NKPTS =      1   k-points in BZ     NKDIM =      1   number of bands    NBANDS=     42
   number of dos      NEDOS =    301   number of ions     NIONS =     14
   non local maximal  LDIM  =      4   non local SUM 2l+1 LMDIM =      8
   total plane-waves  NPLWV = ******
   max r-space proj   IRMAX =   4928   max aug-charges    IRDMAX=   5350
   dimension x,y,z NGX =   294 NGY =  294 NGZ =  294
   dimension x,y,z NGXF=   588 NGYF=  588 NGZF=  588
   support grid    NGXF=   588 NGYF=  588 NGZF=  588
   ions per type =               6   1   1   2   4
   NGX,Y,Z   is equivalent  to a cutoff of  12.22, 12.22, 12.22 a.u.
   NGXF,Y,Z  is equivalent  to a cutoff of  24.44, 24.44, 24.44 a.u.

 SYSTEM =  111_ox                                  
 POSCAR =  C F N O H                               

 Startparameter for this run:
   NWRITE =      2    write-flag & timer
   PREC   = accura    normal or accurate (medium, high low for compatibility)
   ISTART =      1    job   : 0-new  1-cont  2-samecut
   ICHARG =      2    charge: 1-file 2-atom 10-const
   ISPIN  =      2    spin polarized calculation?
   LNONCOLLINEAR =      F non collinear calculations
   LSORBIT =      F    spin-orbit coupling
   INIWAV =      1    electr: 0-lowe 1-rand  2-diag
   LASPH  =      F    aspherical Exc in radial PAW
 Electronic Relaxation 1
   ENCUT  =  500.0 eV  36.75 Ry    6.06 a.u.  72.93 72.93 72.93*2*pi/ulx,y,z
   ENINI  =  500.0     initial cutoff
   ENAUG  =  644.9 eV  augmentation charge cutoff
   NELM   =    500;   NELMIN=  2; NELMDL=  0     # of ELM steps 
   EDIFF  = 0.1E-04   stopping-criterion for ELM
   LREAL  =      T    real-space projection
   NLSPLINE    = F    spline interpolate recip. space projectors
   LCOMPAT=      F    compatible to vasp.4.4
   GGA_COMPAT  = T    GGA compatible to vasp.4.4-vasp.4.6
   LMAXPAW     = -100 max onsite density
   LMAXMIX     =    2 max onsite mixed and CHGCAR
   VOSKOWN=      0    Vosko Wilk Nusair interpolation
   ROPT   =   -0.00025  -0.00025  -0.00025  -0.00025
   ROPT   =   -0.00025
 Ionic relaxation
   EDIFFG = -.2E-01   stopping-criterion for IOM
   NSW    =      0    number of steps for IOM
   NBLOCK =      1;   KBLOCK =      1    inner block; outer block 
   IBRION =     -1    ionic relax: 0-MD 1-quasi-New 2-CG
   NFREE  =      1    steps in history (QN), initial steepest desc. (CG)
   ISIF   =      2    stress and relaxation
   IWAVPR =     10    prediction:  0-non 1-charg 2-wave 3-comb
   ISYM   =      3    0-nonsym 1-usesym 2-fastsym
   LCORR  =      T    Harris-Foulkes like correction to forces

   POTIM  = 0.5000    time-step for ionic-motion
   TEIN   =    0.0    initial temperature
   TEBEG  =    0.0;   TEEND  =   0.0 temperature during run
   SMASS  =  -3.00    Nose mass-parameter (am)
   estimated Nose-frequenzy (Omega)   =  0.10E-29 period in steps = 0.13E+47 mass=  -0.366E-25a.u.
   SCALEE = 1.0000    scale energy and forces
   NPACO  =    256;   APACO  = 10.0  distance and # of slots for P.C.
   PSTRESS=    0.0 pullay stress

  Mass of Ions in am
   POMASS =  12.01 19.00 14.00 16.00  1.00
  Ionic Valenz
   ZVAL   =   4.00  7.00  5.00  6.00  1.00
  Atomic Wigner-Seitz radii
   RWIGS  =  -1.00 -1.00 -1.00 -1.00 -1.00
  virtual crystal weights 
   VCA    =   1.00  1.00  1.00  1.00  1.00
   NELECT =      53.0000    total number of electrons
   NUPDOWN=      -1.0000    fix difference up-down

 DOS related values:
   EMIN   =  10.00;   EMAX   =-10.00  energy-range for DOS
   EFERMI =   0.00
   ISMEAR =     0;   SIGMA  =   0.05  broadening in eV -4-tet -1-fermi 0-gaus

 Electronic relaxation 2 (details)
   IALGO  =     53    algorithm
   LDIAG  =      F    sub-space diagonalisation (order eigenvalues)
   LSUBROT=      F    optimize rotation matrix (better conditioning)
   TURBO    =      0    0=normal 1=particle mesh
   IRESTART =      0    0=no restart 2=restart with 2 vectors
   NREBOOT  =      0    no. of reboots
   NMIN     =      0    reboot dimension
   EREF     =   0.00    reference energy to select bands
   IMIX   =      4    mixing-type and parameters
     AMIX     =   0.40;   BMIX     =  1.00
     AMIX_MAG =   1.60;   BMIX_MAG =  1.00
     AMIN     =   0.10
     WC   =   100.;   INIMIX=   1;  MIXPRE=   1;  MAXMIX= -45

 Intra band minimization:
   WEIMIN = 0.0000     energy-eigenvalue tresh-hold
   EBREAK =  0.60E-07  absolut break condition
   DEPER  =   0.30     relativ break condition  

   TIME   =   0.40     timestep for ELM

  volume/ion in A,a.u.               =    4571.43     30849.52
  Fermi-wavevector in a.u.,A,eV,Ry     =   0.153735  0.290518  0.321567  0.023635
  Thomas-Fermi vector in A             =   0.836066
 
 Write flags
   LWAVE        =      T    write WAVECAR
   LDOWNSAMPLE  =      F    k-point downsampling of WAVECAR
   LCHARG       =      F    write CHGCAR
   LVTOT        =      F    write LOCPOT, total local potential
   LVHAR        =      F    write LOCPOT, Hartree potential only
   LELF         =      F    write electronic localiz. function (ELF)
   LORBIT       =      0    0 simple, 1 ext, 2 COOP (PROOUT), +10 PAW based schemes


 Dipole corrections
   LMONO  =      F    monopole corrections only (constant potential shift)
   LDIPOL =      F    correct potential (dipole corrections)
   IDIPOL =      0    1-x, 2-y, 3-z, 4-all directions 
   EPSILON=  1.0000000 bulk dielectric constant

 Exchange correlation treatment:
   GGA     =    --    GGA type
   LEXCH   =     8    internal setting for exchange type
   LIBXC   =     F    Libxc                    
   VOSKOWN =     0    Vosko Wilk Nusair interpolation
   EXXOEP  =     0    0=HF, 1=EXX-LHF (local Hartree Fock) 2=EXX OEP
   LHFCALC =     T    Hartree Fock is set to
   LSYMGRAD=     F    symmetrize gradient (conserves proper symmetry)
   PRECFOCK=normal    Normal, Fast or Accurate (Low or Medium for compatibility)
   LRHFCALC=     F    long range Hartree Fock
   LRSCOR  =     F    long range correlation only (use DFT for short range part)
   LTHOMAS =     F    Thomas Fermi screening in HF
   LMODELHF=     F    short range full HF, long range fraction AEXX
   FOCKCORR=     1    mode to apply convergence corrections
   LFOCKACE=     T    use Adeptively-Compressed-Exchange operator
   ENCUT4O =  -1.0   cutoff for four orbital integrals eV
   LMAXFOCK=     4    L truncation for augmentation on plane wave grid
   LMAXFOCKAE=  -1    L truncation for all-electron charge restoration on plane wave grid
   NMAXFOCKAE=   1    number of basis functions for all-electron charge restoration
   LFOCKAEDFT=     F  apply the AE augmentation even for DFT
   NKREDX  =     1    reduce k-point grid by
   NKREDY  =     1    reduce k-point grid by
   NKREDZ  =     1    reduce k-point grid by
   SHIFTRED=     F    shift reduced grid of Gamma
   HFKIDENT=     F    idential grid for each k-point
   ODDONLY =     F    use only odd q-grid points
   EVENONLY=     F    use only even q-grid points
   HFALPHA =   -1.0000 decay constant for conv. correction
   MCALPHA =    0.0000 extent of test-charge in conv. correction in multipole expansion
   AEXX    =    0.2500 exact exchange contribution
   HFSCREEN=    0.2000 screening length (either q_TF or 0.3 A-1)
   HFSCREENC=   0.2000 screening length for correlation (either q_TF or 0.3 A-1)
   HFRCUT  =    0.0000 spherical cutoff for potential kernel
   ALDAX   =    0.7500 LDA exchange part
   AGGAX   =    0.7500 GGA exchange part
   ALDAC   =    1.0000 LDA correlation
   AGGAC   =    1.0000 GGA correlation
   ENCUTFOCK=  -1.0 apply spherical cutoff to Coloumb kernel
   NBANDSGWLOW=     1    first orbital included in HF term
   NBLOCK_FOCK=    64    blocking factor in FOCK_ACC

 Linear response parameters
   LEPSILON=     F    determine dielectric tensor
   LRPA    =     F    only Hartree local field effects (RPA)
   LNABLA  =     F    use nabla operator in PAW spheres
   LVEL    =     F    velocity operator in full k-point grid
   CSHIFT  =0.1000    complex shift for real part using Kramers Kronig
   OMEGAMAX=  -1.0    maximum frequency
   DEG_THRESHOLD= 0.2000000E-02 threshold for treating states as degnerate
   RTIME   =   -0.100 relaxation time in fs
  (WPLASMAI=    0.000 imaginary part of plasma frequency in eV, 0.658/RTIME)
   DFIELD  = 0.0000000 0.0000000 0.0000000 field for delta impulse in time
 
  Optional k-point grid parameters
   LKPOINTS_OPT  =     F    use optional k-point grid
   KPOINTS_OPT_MODE=     1    mode for optional k-point grid
 
 Orbital magnetization related:
   ORBITALMAG=     F  switch on orbital magnetization
   LCHIMAG   =     F  perturbation theory with respect to B field
   DQ        =  0.001000  dq finite difference perturbation B field
   LLRAUG    =     F  two centre corrections for induced B field

 Solvation model:
   LSOL             =     T         switch on solvation model
   LSOL_SCF         =     T         include solvation in SCF
   ISOL             =     2         solvation model type
   EFERMI_ref       =  0.000000         reference Fermi level
   capacitance_init =  1.000000         initial capacitance
 Nonlinear solvation model:
   LNLDIEL     =     T         switch on non-linear dielectric mode
   LNLION      =     T         switch on non-linear ionic mode
   LNLTEST     =     F         test non-linear model in linear regime
   I_NLOC_SOL  =     1         type of nonlocal dielectric response
   NC_K        =  0.015000     cutoff charge density for cavities (1/Angstrom**3)
   TAU         =  0.000879     cavity formation energy (eV/Angstrom**2)
   SIGMA_K     =  0.600000     cavity width
   A_K         =  0.125000     smoothing length (Angstrom)
   R_SOLV      =  2.190000     solvent radius (Angstrom)
   R_CAV       =  0.000000     cavity radius (Angstrom)
   R_DIEL      =  1.000000     dielectric radius (Angstrom)
   R_ION       =  0.000000     ionic radius (Angstrom)
   R_B         =  0.000000     bound charge radius (Angstrom)
   SOLTEMP     =298.000000     solvent temperature (K)
   EB_K        = 35.688000     relative permittivity of the bulk solvent
   EPSILON_INF =  1.806900     optical relative permittivity of bulk solvent
   N_MOL       =  0.011500     molar density of solvent (1/Angstrom**3)
   P_MOL       =  0.820000     solvent dipole moment (e*Angstrom)
   C_MOLAR     =  0.000000     electrolyte concentration (mol/L)
   LAMBDA_D_K  =  0.000000     Debye length (Angstrom)
   ZION        =  1.000000     charge of ions in electrolyte (e)
   D_ION       = -1.000000     minimum ion packing diameter (Angstrom)



--------------------------------------------------------------------------------------------------------


 Static calculation
 charge density and potential will be updated during run
 spin polarized calculation
 Conjugate gradient for all bands (Kresse, et al. variant)
 perform Loewdin sub-space diagonalisation
    ordering is kept fixed
    before iterative eigenvector-optimisation
 modified Broyden-mixing scheme, WC =      100.0
 initial mixing is a Kerker type mixing with AMIX =  0.4000 and BMIX =      1.0000
 Hartree-type preconditioning will be used
 using additional bands           15
 real space projection scheme for non local part
 use partial core corrections
 no Harris-corrections to forces 
 use gradient corrections 
 use of overlap-Matrix (Vanderbilt PP)
 Gauss-broadening in eV      SIGMA  =   0.05


--------------------------------------------------------------------------------------------------------


  energy-cutoff  :      500.00
  volume of cell :    64000.00
      direct lattice vectors                 reciprocal lattice vectors
    40.000000000  0.000000000  0.000000000     0.025000000  0.000000000  0.000000000
     0.000000000 40.000000000  0.000000000     0.000000000  0.025000000  0.000000000
     0.000000000  0.000000000 40.000000000     0.000000000  0.000000000  0.025000000

  length of vectors
    40.000000000 40.000000000 40.000000000     0.025000000  0.025000000  0.025000000


 
 old parameters found on file WAVECAR:
  energy-cutoff  :      500.00
  volume of cell :    64000.00
      direct lattice vectors                 reciprocal lattice vectors
    40.000000000  0.000000000  0.000000000     0.025000000  0.000000000  0.000000000
     0.000000000 40.000000000  0.000000000     0.000000000  0.025000000  0.000000000
     0.000000000  0.000000000 40.000000000     0.000000000  0.000000000  0.025000000

  length of vectors

 
 k-points in units of 2pi/SCALE and weight: K-Point Grid                            
   0.00000000  0.00000000  0.00000000       1.000
 
 k-points in reciprocal lattice and weights: K-Point Grid                            
   0.00000000  0.00000000  0.00000000       1.000
 
 position of ions in fractional coordinates (direct lattice) 
   0.47014395  0.46948644  0.49999708
   0.50491761  0.46937421  0.49999832
   0.52294581  0.49999970  0.50000001
   0.50491809  0.53062532  0.50000183
   0.47014409  0.53051386  0.50000264
   0.45322346  0.49999990  0.49999979
   0.41855116  0.50000018  0.49999947
   0.55790040  0.49999968  0.49999994
   0.57364714  0.47164682  0.49999887
   0.57364731  0.52835233  0.50000064
   0.45601560  0.55382044  0.50000415
   0.51896539  0.55391003  0.50000453
   0.51896499  0.44608942  0.49999627
   0.45601501  0.44617966  0.49999545
 
 position of ions in cartesian coordinates  (Angst):
  18.80575812 18.77945754 19.99988332
  20.19670435 18.77496857 19.99993292
  20.91783250 19.99998782 20.00000032
  20.19672378 21.22501296 20.00007340
  18.80576354 21.22055429 20.00010573
  18.12893838 19.99999597 19.99999178
  16.74204637 20.00000723 19.99997874
  22.31601584 19.99998734 19.99999763
  22.94588543 18.86587278 19.99995474
  22.94589228 21.13409323 20.00002546
  18.24062383 22.15281779 20.00016601
  20.75861553 22.15640130 20.00018115
  20.75859945 17.84357685 19.99985068
  18.24060058 17.84718632 19.99981810
 


--------------------------------------------------------------------------------------------------------


 k-point   1 :   0.0000 0.0000 0.0000  plane waves: 1624525

 maximum and minimum number of plane-waves per node :    108307   108296

 maximum number of plane-waves:   1624525
 maximum index in each direction: 
   IXMAX=   72   IYMAX=   72   IZMAX=   72
   IXMIN=  -72   IYMIN=  -72   IZMIN=  -72


 real space projection operators:
  total allocation   :       1803.41 KBytes
  max/ min on nodes  :        149.97         86.19


 parallel 3D FFT for wavefunctions:
    minimum data exchange during FFTs selected (reduces bandwidth)
 parallel 3D FFT for charge:
    minimum data exchange during FFTs selected (reduces bandwidth)


 FFT grid for exact exchange (Hartree Fock) 
  NGX =224; NGY =224; NGZ =224

 
 Radii for the augmentation spheres in the non-local exchange
 for species   1 augmentation radius   0.874 (default was   0.699)
       energy cutoff for augmentation   2000.0
 for species   2 augmentation radius   0.896 (default was   0.717)
       energy cutoff for augmentation   2000.0
 for species   3 augmentation radius   0.886 (default was   0.709)
       energy cutoff for augmentation   2000.0
 for species   4 augmentation radius   0.902 (default was   0.722)
       energy cutoff for augmentation   2000.0
 for species   5 augmentation radius   0.650 (default was   0.520)
       energy cutoff for augmentation   2000.0

 real space projection operators:
  total allocation   :        407.88 KBytes
  max/ min on nodes  :         38.11         17.02

 Maximum index for augmentation-charges in exchange           72
  SETUP_FOCK is finished

 total amount of memory used by VASP MPI-rank0   670761. kBytes
=======================================================================

   base      :      30000. kBytes
   nonlr-proj:       1505. kBytes
   fftplans  :     175546. kBytes
   grid      :     390911. kBytes
   one-center:          6. kBytes
   HF        :          4. kBytes
   wavefun   :      72789. kBytes
 
     INWAV:  cpu time     11.7562: real time     11.7577
 Broyden mixing: mesh for mixing (old mesh)
   NGX =145   NGY =145   NGZ =145
  (NGX  =588   NGY  =588   NGZ  =588)
  gives a total of ****** points

 initial charge density was supplied:
 charge density of overlapping atoms calculated
 number of electron      52.0000000 magnetization      14.0000000
 charge density for first step will be calculated from the start-wavefunctions


--------------------------------------------------------------------------------------------------------


 Maximum index for non-local projection operator          341
 Maximum index for augmentation-charges          293 (set IRDMAX)


--------------------------------------------------------------------------------------------------------


 initial charge from wavefunction
 First call to EWALD:  gamma=   0.044
 Maximum number of real-space cells 3x 3x 3
 Maximum number of reciprocal cells 3x 3x 3

    FEWALD:  cpu time      0.0044: real time      0.0044


--------------------------------------- Iteration      1(   1)  ---------------------------------------


    POTLOK:  cpu time     13.5811: real time     13.5821
    SETDIJ:  cpu time      0.0709: real time      0.0709
    TRIAL :  cpu time    121.3573: real time    121.3733
    CORREC:  cpu time      0.0046: real time      0.0046
    CHARGE:  cpu time      2.5970: real time      2.5971
    --------------------------------------------
      LOOP:  cpu time    137.6544: real time    137.6771

 eigenvalue-minimisations  :     0
 total energy-change (2. order) :-0.1107556E+03  (-0.3954566E+00)
 number of electron      52.9999995 magnetization       0.9999999
 augmentation part        3.3493939 magnetization       0.1623338

 Free energy of the ion-electron system (eV)
  ---------------------------------------------------
  alpha Z        PSCENC =         0.18356186
  Ewald energy   TEWEN  =      5434.19987813
  -Hartree energ DENC   =     -7916.77173056
  -exchange      EXHF   =       139.13036308
  -V(xc)+E(xc)   XCENC  =       160.88395746
  PAW double counting   =      4944.25462216    -4953.77543339
  entropy T*S    EENTRO =        -0.00000000
  eigenvalues    EBANDS =      -617.25271197
  atomic energy  EATOM  =      2698.39193557
  ---------------------------------------------------
  free energy    TOTEN  =      -110.75555765 eV

  energy without entropy =     -110.75555765  energy(sigma->0) =     -110.75555765
  exchange ACFDT corr.  =        -0.00000000  see jH, gK, PRB 81, 115126


--------------------------------------------------------------------------------------------------------




--------------------------------------- Iteration      1(   2)  ---------------------------------------


    --------------------------------------------
      INIT:  cpu time      0.3904: real time      0.3904
  FINALIZE:  cpu time    182.2309: real time    182.2448
    --------------------------------------------
    POTLOK:  cpu time    198.2736: real time    198.2920
    SETDIJ:  cpu time      0.0731: real time      0.0731
    TRIAL :  cpu time    120.0325: real time    120.0430
    CORREC:  cpu time      0.0018: real time      0.0018
    CHARGE:  cpu time      2.7910: real time      2.7912
    --------------------------------------------
      LOOP:  cpu time    321.2117: real time    321.2474

 eigenvalue-minimisations  :     0
 total energy-change (2. order) :-0.1369146E+01  (-0.8293797E-01)
 number of electron      52.9999995 magnetization       0.9999999
 augmentation part        3.3534494 magnetization       0.1617105

 Free energy of the ion-electron system (eV)
  ---------------------------------------------------
  alpha Z        PSCENC =         0.18356186
  Ewald energy   TEWEN  =      5434.19987813
  -Hartree energ DENC   =     -7907.63916965
  -exchange      EXHF   =       138.82548349
  -V(xc)+E(xc)   XCENC  =       160.63781791
  PAW double counting   =      4925.83898601    -4935.33662995
  entropy T*S    EENTRO =        -0.00000000
  eigenvalues    EBANDS =      -744.49896778
  atomic energy  EATOM  =      2698.39193557
  ---------------------------------------------------
  free energy    TOTEN  =      -112.12470354 eV

  energy without entropy =     -112.12470354  energy(sigma->0) =     -112.12470354
  exchange ACFDT corr.  =         0.00000000  see jH, gK, PRB 81, 115126


--------------------------------------------------------------------------------------------------------




--------------------------------------- Iteration      1(   3)  ---------------------------------------


    --------------------------------------------
      INIT:  cpu time      0.3909: real time      0.3910
  FINALIZE:  cpu time     56.4899: real time     56.4949
    --------------------------------------------
    POTLOK:  cpu time     74.2681: real time     74.2746
    SETDIJ:  cpu time      0.0713: real time      0.0713
    TRIAL :  cpu time    118.9766: real time    118.9860
    CORREC:  cpu time      0.0681: real time      0.0681
    CHARGE:  cpu time      2.5982: real time      2.5985
    --------------------------------------------
      LOOP:  cpu time    196.0052: real time    196.0312

 eigenvalue-minimisations  :     0
 total energy-change (2. order) :-0.4177896E-01  (-0.2779875E-01)
 number of electron      52.9999995 magnetization       0.9999999
 augmentation part        3.3555173 magnetization       0.1611415

 Free energy of the ion-electron system (eV)
  ---------------------------------------------------
  alpha Z        PSCENC =         0.18356186
  Ewald energy   TEWEN  =      5434.19987813
  -Hartree energ DENC   =     -7912.47080155
  -exchange      EXHF   =       138.95449784
  -V(xc)+E(xc)   XCENC  =       160.77115761
  PAW double counting   =      4925.31782100    -4934.82398100
  entropy T*S    EENTRO =        -0.00000000
  eigenvalues    EBANDS =      -740.47286383
  atomic energy  EATOM  =      2698.39193557
  ---------------------------------------------------
  free energy    TOTEN  =      -112.16648250 eV

  energy without entropy =     -112.16648250  energy(sigma->0) =     -112.16648250
  exchange ACFDT corr.  =        -0.00000000  see jH, gK, PRB 81, 115126


--------------------------------------------------------------------------------------------------------




--------------------------------------- Iteration      1(   4)  ---------------------------------------


    --------------------------------------------
      INIT:  cpu time      0.5788: real time      0.5789
  FINALIZE:  cpu time     54.7929: real time     54.7970
    --------------------------------------------
    POTLOK:  cpu time     73.7032: real time     73.7088
    SETDIJ:  cpu time      0.0721: real time      0.0721
    TRIAL :  cpu time    121.2862: real time    121.2952
    CORREC:  cpu time      0.2057: real time      0.2057
    CHARGE:  cpu time      2.5993: real time      2.5994
    --------------------------------------------
      LOOP:  cpu time    197.9013: real time    197.9229

 eigenvalue-minimisations  :     0
 total energy-change (2. order) :-0.1452177E-01  (-0.1268868E-01)
 number of electron      52.9999995 magnetization       0.9999999
 augmentation part        3.3528811 magnetization       0.1604603

 Free energy of the ion-electron system (eV)
  ---------------------------------------------------
  alpha Z        PSCENC =         0.18356186
  Ewald energy   TEWEN  =      5434.19987813
  -Hartree energ DENC   =     -7915.14108424
  -exchange      EXHF   =       139.01362108
  -V(xc)+E(xc)   XCENC  =       160.82834036
  PAW double counting   =      4927.02804598    -4936.54425855
  entropy T*S    EENTRO =        -0.00000000
  eigenvalues    EBANDS =      -737.97810202
  atomic energy  EATOM  =      2698.39193557
  ---------------------------------------------------
  free energy    TOTEN  =      -112.18100427 eV

  energy without entropy =     -112.18100427  energy(sigma->0) =     -112.18100427
  exchange ACFDT corr.  =         0.00000000  see jH, gK, PRB 81, 115126


--------------------------------------------------------------------------------------------------------




--------------------------------------- Iteration      1(   5)  ---------------------------------------


    --------------------------------------------
      INIT:  cpu time      0.3886: real time      0.3887
  FINALIZE:  cpu time     58.5944: real time     58.6037
    --------------------------------------------
    POTLOK:  cpu time     77.1628: real time     77.1736
    SETDIJ:  cpu time      0.0729: real time      0.0729
    TRIAL :  cpu time    118.8318: real time    118.8413
    CORREC:  cpu time      0.1697: real time      0.1698
    CHARGE:  cpu time      2.5928: real time      2.5931
    --------------------------------------------
      LOOP:  cpu time    198.8600: real time    198.8870

 eigenvalue-minimisations  :     0
 total energy-change (2. order) :-0.5315948E-02  (-0.3951334E-02)
 number of electron      52.9999995 magnetization       0.9999999
 augmentation part        3.3521806 magnetization       0.1603073

 Free energy of the ion-electron system (eV)
  ---------------------------------------------------
  alpha Z        PSCENC =         0.18356186
  Ewald energy   TEWEN  =      5434.19987813
  -Hartree energ DENC   =     -7913.34660703
  -exchange      EXHF   =       138.94565999
  -V(xc)+E(xc)   XCENC  =       160.76410442
  PAW double counting   =      4925.62388127    -4935.13740255
  entropy T*S    EENTRO =        -0.00000000
  eigenvalues    EBANDS =      -739.43956450
  atomic energy  EATOM  =      2698.39193557
  ---------------------------------------------------
  free energy    TOTEN  =      -112.18632022 eV

  energy without entropy =     -112.18632022  energy(sigma->0) =     -112.18632022
  exchange ACFDT corr.  =        -0.00000000  see jH, gK, PRB 81, 115126


--------------------------------------------------------------------------------------------------------




--------------------------------------- Iteration      1(   6)  ---------------------------------------


    --------------------------------------------
      INIT:  cpu time      0.3833: real time      0.3834
  FINALIZE:  cpu time     53.7321: real time     53.7371
    --------------------------------------------
    POTLOK:  cpu time     71.6920: real time     71.6985
    SETDIJ:  cpu time      0.0709: real time      0.0709
    TRIAL :  cpu time    119.1151: real time    119.1246
    CORREC:  cpu time      0.3006: real time      0.3007
    CHARGE:  cpu time      3.5727: real time      3.5730
    --------------------------------------------
      LOOP:  cpu time    194.7858: real time    194.8067

 eigenvalue-minimisations  :     0
 total energy-change (2. order) :-0.2055064E-02  (-0.1708666E-02)
 number of electron      52.9999995 magnetization       0.9999999
 augmentation part        3.3527618 magnetization       0.1603333

 Free energy of the ion-electron system (eV)
  ---------------------------------------------------
  alpha Z        PSCENC =         0.18356186
  Ewald energy   TEWEN  =      5434.19987813
  -Hartree energ DENC   =     -7913.19862913
  -exchange      EXHF   =       138.95043048
  -V(xc)+E(xc)   XCENC  =       160.76485998
  PAW double counting   =      4925.37596712    -4934.88203915
  entropy T*S    EENTRO =        -0.00000000
  eigenvalues    EBANDS =      -739.55113025
  atomic energy  EATOM  =      2698.39193557
  ---------------------------------------------------
  free energy    TOTEN  =      -112.18837529 eV

  energy without entropy =     -112.18837529  energy(sigma->0) =     -112.18837529
  exchange ACFDT corr.  =         0.00000000  see jH, gK, PRB 81, 115126


--------------------------------------------------------------------------------------------------------




--------------------------------------- Iteration      1(   7)  ---------------------------------------


    --------------------------------------------
      INIT:  cpu time      0.3941: real time      0.3941
  FINALIZE:  cpu time     56.3397: real time     56.3439
    --------------------------------------------
    POTLOK:  cpu time     75.8469: real time     75.8526
    SETDIJ:  cpu time      0.0701: real time      0.0701
    TRIAL :  cpu time    118.6784: real time    118.6873
    CORREC:  cpu time      0.0534: real time      0.0534
    CHARGE:  cpu time      3.3898: real time      3.3901
    --------------------------------------------
      LOOP:  cpu time    198.0718: real time    198.0929

 eigenvalue-minimisations  :     0
 total energy-change (2. order) :-0.9189547E-03  (-0.9043550E-03)
 number of electron      52.9999995 magnetization       0.9999999
 augmentation part        3.3527363 magnetization       0.1602786

 Free energy of the ion-electron system (eV)
  ---------------------------------------------------
  alpha Z        PSCENC =         0.18356186
  Ewald energy   TEWEN  =      5434.19987813
  -Hartree energ DENC   =     -7913.71307017
  -exchange      EXHF   =       138.97252949
  -V(xc)+E(xc)   XCENC  =       160.78387518
  PAW double counting   =      4925.69147032    -4935.19650212
  entropy T*S    EENTRO =        -0.00000000
  eigenvalues    EBANDS =      -739.10090143
  atomic energy  EATOM  =      2698.39193557
  ---------------------------------------------------
  free energy    TOTEN  =      -112.18929424 eV

  energy without entropy =     -112.18929424  energy(sigma->0) =     -112.18929424
  exchange ACFDT corr.  =         0.00000000  see jH, gK, PRB 81, 115126


--------------------------------------------------------------------------------------------------------




--------------------------------------- Iteration      1(   8)  ---------------------------------------


    --------------------------------------------
      INIT:  cpu time      0.5863: real time      0.5864
  FINALIZE:  cpu time     57.0811: real time     57.0861
    --------------------------------------------
    POTLOK:  cpu time     76.1194: real time     76.1259
    SETDIJ:  cpu time      0.0712: real time      0.0712
    TRIAL :  cpu time    120.6616: real time    120.6710
    CORREC:  cpu time      0.2040: real time      0.2040
    CHARGE:  cpu time      3.1679: real time      3.1682
    --------------------------------------------
      LOOP:  cpu time    200.2648: real time    200.2863

 eigenvalue-minimisations  :     0
 total energy-change (2. order) :-0.5232929E-03  (-0.3372820E-03)
 number of electron      52.9999995 magnetization       0.9999999
 augmentation part        3.3525914 magnetization       0.1602696

 Free energy of the ion-electron system (eV)
  ---------------------------------------------------
  alpha Z        PSCENC =         0.18356186
  Ewald energy   TEWEN  =      5434.19987813
  -Hartree energ DENC   =     -7913.61479382
  -exchange      EXHF   =       138.96702316
  -V(xc)+E(xc)   XCENC  =       160.77951477
  PAW double counting   =      4925.59140400    -4935.09748735
  entropy T*S    EENTRO =        -0.00000000
  eigenvalues    EBANDS =      -739.19137637
  atomic energy  EATOM  =      2698.39193557
  ---------------------------------------------------
  free energy    TOTEN  =      -112.18981753 eV

  energy without entropy =     -112.18981753  energy(sigma->0) =     -112.18981753
  exchange ACFDT corr.  =         0.00000000  see jH, gK, PRB 81, 115126


--------------------------------------------------------------------------------------------------------




--------------------------------------- Iteration      1(   9)  ---------------------------------------


    --------------------------------------------
      INIT:  cpu time      0.5870: real time      0.5870
  FINALIZE:  cpu time     55.0933: real time     55.0974
    --------------------------------------------
    POTLOK:  cpu time     71.1300: real time     71.1353
    SETDIJ:  cpu time      0.0721: real time      0.0721
    TRIAL :  cpu time    119.9476: real time    119.9565
    CORREC:  cpu time      0.1859: real time      0.1860
    CHARGE:  cpu time      2.5927: real time      2.5929
    --------------------------------------------
      LOOP:  cpu time    193.9694: real time    193.9898

 eigenvalue-minimisations  :     0
 total energy-change (2. order) :-0.1972032E-03  (-0.1464123E-03)
 number of electron      52.9999995 magnetization       0.9999999
 augmentation part        3.3526905 magnetization       0.1603192

 Free energy of the ion-electron system (eV)
  ---------------------------------------------------
  alpha Z        PSCENC =         0.18356186
  Ewald energy   TEWEN  =      5434.19987813
  -Hartree energ DENC   =     -7913.51122136
  -exchange      EXHF   =       138.96255925
  -V(xc)+E(xc)   XCENC  =       160.77585871
  PAW double counting   =      4925.59633139    -4935.10215886
  entropy T*S    EENTRO =        -0.00000000
  eigenvalues    EBANDS =      -739.28655950
  atomic energy  EATOM  =      2698.39193557
  ---------------------------------------------------
  free energy    TOTEN  =      -112.19001474 eV

  energy without entropy =     -112.19001474  energy(sigma->0) =     -112.19001474
  exchange ACFDT corr.  =         0.00000000  see jH, gK, PRB 81, 115126


--------------------------------------------------------------------------------------------------------




--------------------------------------- Iteration      1(  10)  ---------------------------------------


    --------------------------------------------
      INIT:  cpu time      0.3812: real time      0.3812
  FINALIZE:  cpu time     53.2712: real time     53.2760
    --------------------------------------------
    POTLOK:  cpu time     68.9009: real time     68.9070
    SETDIJ:  cpu time      0.0722: real time      0.0722
    TRIAL :  cpu time    122.5854: real time    122.5954
    CORREC:  cpu time      0.3570: real time      0.3570
    CHARGE:  cpu time      2.7892: real time      2.7894
    --------------------------------------------
      LOOP:  cpu time    194.7355: real time    194.7582

 eigenvalue-minimisations  :     0
 total energy-change (2. order) :-0.8773633E-04  (-0.6278741E-04)
 number of electron      52.9999995 magnetization       0.9999999
 augmentation part        3.3527157 magnetization       0.1603335

 Free energy of the ion-electron system (eV)
  ---------------------------------------------------
  alpha Z        PSCENC =         0.18356186
  Ewald energy   TEWEN  =      5434.19987813
  -Hartree energ DENC   =     -7913.58039015
  -exchange      EXHF   =       138.96531227
  -V(xc)+E(xc)   XCENC  =       160.77851003
  PAW double counting   =      4925.76551660    -4935.27110510
  entropy T*S    EENTRO =        -0.00000000
  eigenvalues    EBANDS =      -739.22479424
  atomic energy  EATOM  =      2698.39193557
  ---------------------------------------------------
  free energy    TOTEN  =      -112.19010247 eV

  energy without entropy =     -112.19010247  energy(sigma->0) =     -112.19010247
  exchange ACFDT corr.  =         0.00000000  see jH, gK, PRB 81, 115126


--------------------------------------------------------------------------------------------------------




--------------------------------------- Iteration      1(  11)  ---------------------------------------


    --------------------------------------------
      INIT:  cpu time      0.9934: real time      0.9935
  FINALIZE:  cpu time     58.8946: real time     58.9017
    --------------------------------------------
    POTLOK:  cpu time     75.8259: real time     75.8343
    SETDIJ:  cpu time      0.0695: real time      0.0695
    TRIAL :  cpu time    120.5594: real time    120.5690
    CORREC:  cpu time      0.1699: real time      0.1699
    CHARGE:  cpu time      3.3827: real time      3.3830
    --------------------------------------------
      LOOP:  cpu time    200.0321: real time    200.0595

 eigenvalue-minimisations  :     0
 total energy-change (2. order) :-0.4305821E-04  (-0.3627478E-04)
 number of electron      52.9999995 magnetization       0.9999999
 augmentation part        3.3526622 magnetization       0.1603223

 Free energy of the ion-electron system (eV)
  ---------------------------------------------------
  alpha Z        PSCENC =         0.18356186
  Ewald energy   TEWEN  =      5434.19987813
  -Hartree energ DENC   =     -7913.58113289
  -exchange      EXHF   =       138.96513507
  -V(xc)+E(xc)   XCENC  =       160.77852293
  PAW double counting   =      4925.83195243    -4935.33768913
  entropy T*S    EENTRO =        -0.00000000
  eigenvalues    EBANDS =      -739.22308186
  atomic energy  EATOM  =      2698.39193557
  ---------------------------------------------------
  free energy    TOTEN  =      -112.19014553 eV

  energy without entropy =     -112.19014553  energy(sigma->0) =     -112.19014553
  exchange ACFDT corr.  =         0.00000000  see jH, gK, PRB 81, 115126


--------------------------------------------------------------------------------------------------------




--------------------------------------- Iteration      1(  12)  ---------------------------------------


    --------------------------------------------
      INIT:  cpu time      0.3944: real time      0.3944
  FINALIZE:  cpu time     55.5349: real time     55.5398
    --------------------------------------------
    POTLOK:  cpu time     72.3234: real time     72.3297
    SETDIJ:  cpu time      0.0703: real time      0.0703
    TRIAL :  cpu time    119.0821: real time    119.0912
    CORREC:  cpu time      0.4394: real time      0.4394
    CHARGE:  cpu time      3.0028: real time      3.0031
    --------------------------------------------
      LOOP:  cpu time    194.9590: real time    194.9794

 eigenvalue-minimisations  :     0
 total energy-change (2. order) :-0.2643255E-04  (-0.2092531E-04)
 number of electron      52.9999995 magnetization       0.9999999
 augmentation part        3.3526697 magnetization       0.1603243

 Free energy of the ion-electron system (eV)
  ---------------------------------------------------
  alpha Z        PSCENC =         0.18356186
  Ewald energy   TEWEN  =      5434.19987813
  -Hartree energ DENC   =     -7913.54394734
  -exchange      EXHF   =       138.96341036
  -V(xc)+E(xc)   XCENC  =       160.77709928
  PAW double counting   =      4925.83304499    -4935.33881246
  entropy T*S    EENTRO =        -0.00000000
  eigenvalues    EBANDS =      -739.25760654
  atomic energy  EATOM  =      2698.39193557
  ---------------------------------------------------
  free energy    TOTEN  =      -112.19017196 eV

  energy without entropy =     -112.19017196  energy(sigma->0) =     -112.19017196
  exchange ACFDT corr.  =         0.00000000  see jH, gK, PRB 81, 115126


--------------------------------------------------------------------------------------------------------




--------------------------------------- Iteration      1(  13)  ---------------------------------------


    --------------------------------------------
      INIT:  cpu time      0.3951: real time      0.3951
  FINALIZE:  cpu time     59.7039: real time     59.7083
    --------------------------------------------
    POTLOK:  cpu time     76.3283: real time     76.3340
    SETDIJ:  cpu time      0.0685: real time      0.0685
    TRIAL :  cpu time    119.9377: real time    119.9467
    CORREC:  cpu time      0.2363: real time      0.2363
    CHARGE:  cpu time      3.1361: real time      3.1363
    --------------------------------------------
      LOOP:  cpu time    199.7433: real time    199.7658

 eigenvalue-minimisations  :     0
 total energy-change (2. order) :-0.1680850E-04  (-0.1257914E-04)
 number of electron      52.9999995 magnetization       0.9999999
 augmentation part        3.3526799 magnetization       0.1603262

 Free energy of the ion-electron system (eV)
  ---------------------------------------------------
  alpha Z        PSCENC =         0.18356186
  Ewald energy   TEWEN  =      5434.19987813
  -Hartree energ DENC   =     -7913.56259275
  -exchange      EXHF   =       138.96384552
  -V(xc)+E(xc)   XCENC  =       160.77758438
  PAW double counting   =      4925.85627917    -4935.36199672
  entropy T*S    EENTRO =        -0.00000000
  eigenvalues    EBANDS =      -739.24362068
  atomic energy  EATOM  =      2698.39193557
  ---------------------------------------------------
  free energy    TOTEN  =      -112.19018877 eV

  energy without entropy =     -112.19018877  energy(sigma->0) =     -112.19018877
  exchange ACFDT corr.  =         0.00000000  see jH, gK, PRB 81, 115126


--------------------------------------------------------------------------------------------------------




--------------------------------------- Iteration      1(  14)  ---------------------------------------


    --------------------------------------------
      INIT:  cpu time      0.3860: real time      0.3860
  FINALIZE:  cpu time     63.9833: real time     63.9888
    --------------------------------------------
    POTLOK:  cpu time     80.9348: real time     80.9417
    SETDIJ:  cpu time      0.0714: real time      0.0714
    TRIAL :  cpu time    120.2459: real time    120.2552
    CORREC:  cpu time      0.2093: real time      0.2094
    CHARGE:  cpu time      2.6032: real time      2.6035
    --------------------------------------------
      LOOP:  cpu time    204.0989: real time    204.1231

 eigenvalue-minimisations  :     0
 total energy-change (2. order) :-0.1042555E-04  (-0.7845922E-05)
 number of electron      52.9999995 magnetization       0.9999999
 augmentation part        3.3526642 magnetization       0.1603209

 Free energy of the ion-electron system (eV)
  ---------------------------------------------------
  alpha Z        PSCENC =         0.18356186
  Ewald energy   TEWEN  =      5434.19987813
  -Hartree energ DENC   =     -7913.57297938
  -exchange      EXHF   =       138.96407107
  -V(xc)+E(xc)   XCENC  =       160.77787133
  PAW double counting   =      4925.85891511    -4935.36460628
  entropy T*S    EENTRO =        -0.00000000
  eigenvalues    EBANDS =      -739.23625530
  atomic energy  EATOM  =      2698.39193557
  ---------------------------------------------------
  free energy    TOTEN  =      -112.19019920 eV

  energy without entropy =     -112.19019920  energy(sigma->0) =     -112.19019920
  exchange ACFDT corr.  =         0.00000000  see jH, gK, PRB 81, 115126


--------------------------------------------------------------------------------------------------------




--------------------------------------- Iteration      1(  15)  ---------------------------------------


    --------------------------------------------
      INIT:  cpu time      0.3797: real time      0.3797
  FINALIZE:  cpu time     68.8178: real time     68.8234
    --------------------------------------------
    POTLOK:  cpu time     84.1829: real time     84.1896
    SETDIJ:  cpu time      0.0714: real time      0.0714
    TRIAL :  cpu time    119.4435: real time    119.4523
    CORREC:  cpu time      0.0390: real time      0.0390
    CHARGE:  cpu time      2.6031: real time      2.6033
    --------------------------------------------
      LOOP:  cpu time    206.3725: real time    206.3949

 eigenvalue-minimisations  :     0
 total energy-change (2. order) :-0.6553241E-05  (-0.4704435E-05)
 number of electron      52.9999995 magnetization       0.9999999
 augmentation part        3.3526550 magnetization       0.1603151

 Free energy of the ion-electron system (eV)
  ---------------------------------------------------
  alpha Z        PSCENC =         0.18356186
  Ewald energy   TEWEN  =      5434.19987813
  -Hartree energ DENC   =     -7913.56302855
  -exchange      EXHF   =       138.96356311
  -V(xc)+E(xc)   XCENC  =       160.77748638
  PAW double counting   =      4925.84449770    -4935.35016193
  entropy T*S    EENTRO =        -0.00000000
  eigenvalues    EBANDS =      -739.24629663
  atomic energy  EATOM  =      2698.39193557
  ---------------------------------------------------
  free energy    TOTEN  =      -112.19020575 eV

  energy without entropy =     -112.19020575  energy(sigma->0) =     -112.19020575
  exchange ACFDT corr.  =         0.00000000  see jH, gK, PRB 81, 115126


--------------------------------------------------------------------------------------------------------


  average scaling for gradient   1.5007


 average (electrostatic) potential at core
  the test charge radii are     0.6991  0.7167  0.7089  0.7215  0.5201
  (the norm of the test charge is              1.0000)
       1 -54.6855       2 -54.4564       3 -55.1129       4 -54.4564       5 -54.6855
       6 -56.2922       7 -78.0130       8 -70.7006       9 -71.8935      10 -71.8935
      11 -37.8152      12 -37.2744      13 -37.2743      14 -37.8151
 
 
 
 E-fermi :  -2.5364     XC(G=0):  -0.0258     alpha+bet : -0.0159

 Fermi energy:        -2.5364307773

 spin component 1

 k-point     1 :       0.0000    0.0000    0.0000
  band No.  band energies     occupation 
      1     -33.0875      1.00000
      2     -30.0132      1.00000
      3     -25.4678      1.00000
      4     -23.2628      1.00000
      5     -20.8990      1.00000
      6     -20.2811      1.00000
      7     -18.0177      1.00000
      8     -16.4576      1.00000
      9     -14.2452      1.00000
     10     -15.2586      1.00000
     11     -12.8536      1.00000
     12     -12.2618      1.00000
     13     -12.0060      1.00000
     14     -12.8660      1.00000
     15     -11.6221      1.00000
     16     -11.1425      1.00000
     17     -10.4288      1.00000
     18     -10.2257      1.00000
     19     -11.2952      1.00000
     20      -9.2657      1.00000
     21      -8.7125      1.00000
     22      -6.4653      1.00000
     23      -6.2727      1.00000
     24      -6.3052      1.00000
     25      -5.5234      1.00000
     26      -6.8269      1.00000
     27      -2.8442      1.00000
     28      -0.2090      0.00000
     29       0.0612      0.00000
     30       0.0877      0.00000
     31       0.0600      0.00000
     32       0.0240      0.00000
     33       0.4418      0.00000
     34       0.1061      0.00000
     35      -0.3661      0.00000
     36       0.1066      0.00000
     37       0.1362      0.00000
     38       0.1427      0.00000
     39       0.1388      0.00000
     40       0.1554      0.00000
     41       0.1977      0.00000
     42       0.2000      0.00000
 Fermi energy:        -2.5364307773

 spin component 2

 k-point     1 :       0.0000    0.0000    0.0000
  band No.  band energies     occupation 
      1     -33.0433      1.00000
      2     -29.6302      1.00000
      3     -25.1401      1.00000
      4     -23.1886      1.00000
      5     -20.7169      1.00000
      6     -20.2312      1.00000
      7     -17.7000      1.00000
      8     -16.4061      1.00000
      9     -14.1988      1.00000
     10     -15.1597      1.00000
     11     -12.6560      1.00000
     12     -12.8123      1.00000
     13     -11.1123      1.00000
     14     -12.0506      1.00000
     15     -11.0018      1.00000
     16     -11.5979      1.00000
     17     -11.1479      1.00000
     18     -10.1755      1.00000
     19     -10.3669      1.00000
     20      -8.9802      1.00000
     21      -8.6899      1.00000
     22      -5.9088      1.00000
     23      -5.3483      1.00000
     24      -5.3693      1.00000
     25      -6.1295      1.00000
     26      -6.5759      1.00000
     27      -0.9828      0.00000
     28       0.1067      0.00000
     29      -0.1498      0.00000
     30       0.1070      0.00000
     31       0.0252      0.00000
     32       0.0843      0.00000
     33       0.2146      0.00000
     34       0.1028      0.00000
     35       0.0863      0.00000
     36      -0.2117      0.00000
     37       0.1518      0.00000
     38       0.1558      0.00000
     39       0.1419      0.00000
     40       0.1854      0.00000
     41       0.2022      0.00000
     42       0.2003      0.00000


--------------------------------------------------------------------------------------------------------


 soft charge-density along one line, spin component           1
         0         1         2         3         4         5         6         7         8         9
 total charge-density along one line
 
 soft charge-density along one line, spin component           2
         0         1         2         3         4         5         6         7         8         9
 total charge-density along one line
 
 pseudopotential strength for first ion, spin component:           1
  9.960  13.243   0.001   0.000  -0.001  -0.004  -0.000   0.002
 13.243  17.606   0.001   0.000  -0.001  -0.005  -0.000   0.002
  0.001   0.001  -4.188  -0.000   0.000   8.166   0.000  -0.001
  0.000   0.000  -0.000  -4.179  -0.000   0.000   8.153   0.000
 -0.001  -0.001   0.000  -0.000  -4.187  -0.001   0.000   8.163
 -0.004  -0.005   8.166   0.000  -0.001 -18.038  -0.000   0.001
 -0.000  -0.000   0.000   8.153   0.000  -0.000 -18.020  -0.000
  0.002   0.002  -0.001   0.000   8.163   0.001  -0.000 -18.031
 pseudopotential strength for first ion, spin component:           2
  9.970  13.257   0.001   0.000  -0.001  -0.005  -0.000   0.002
 13.257  17.626   0.002   0.000  -0.001  -0.006  -0.000   0.002
  0.001   0.002  -4.189  -0.000   0.001   8.166  -0.000  -0.001
  0.000   0.000  -0.000  -4.189  -0.000  -0.000   8.169   0.000
 -0.001  -0.001   0.001  -0.000  -4.188  -0.001   0.000   8.163
 -0.005  -0.006   8.166  -0.000  -0.001 -18.032   0.000   0.002
 -0.000  -0.000  -0.000   8.169   0.000   0.000 -18.043  -0.000
  0.002   0.002  -0.001   0.000   8.163   0.002  -0.000 -18.026
 total augmentation occupancy for first ion, spin component:           1
  8.935  -4.060   0.242   0.000   0.116   0.050   0.000   0.021
 -4.060   1.880  -0.162  -0.000  -0.064  -0.030  -0.000  -0.012
  0.242  -0.162   1.785   0.000  -0.036   0.170   0.000  -0.009
  0.000  -0.000   0.000   1.208   0.000   0.000   0.077   0.000
  0.116  -0.064  -0.036   0.000   1.868  -0.009   0.000   0.180
  0.050  -0.030   0.170   0.000  -0.009   0.017   0.000  -0.002
  0.000  -0.000   0.000   0.077   0.000   0.000   0.005   0.000
  0.021  -0.012  -0.009   0.000   0.180  -0.002   0.000   0.018
 total augmentation occupancy for first ion, spin component:           2
  0.021  -0.020   0.001   0.000   0.002   0.001   0.000   0.001
 -0.020   0.014  -0.002   0.000  -0.002  -0.001  -0.000  -0.000
  0.001  -0.002  -0.006   0.000   0.002   0.000   0.000  -0.000
  0.000   0.000   0.000  -0.075   0.000   0.000  -0.001  -0.000
  0.002  -0.002   0.002   0.000  -0.008  -0.000  -0.000   0.000
  0.001  -0.001   0.000   0.000  -0.000   0.000  -0.000  -0.000
  0.000  -0.000   0.000  -0.001  -0.000  -0.000   0.000  -0.000
  0.001  -0.000  -0.000  -0.000   0.000  -0.000  -0.000   0.000


------------------------ aborting loop because EDIFF is reached ----------------------------------------


    FORLOC:  cpu time      0.3416: real time      0.3416
    FORHF :  cpu time     72.8871: real time     72.8934
    FORNL :  cpu time      3.5240: real time      3.5243
    STRESS:  cpu time     10.7241: real time     10.7251
    FORCOR:  cpu time     14.9455: real time     14.9468
    OFIELD:  cpu time      0.0187: real time      0.0187
 WARNING: Using user supplied parameters
     VDW_A1 = 0.383
     VDW_A2 = 5.685
     VDW_S8 = 2.31
     because the xc functional is not supported. Required parameters not
     defined in the INCAR file will be replaced with PBE defaults ones.


 ---------------------------------------------------------------------------------------------

         DFTD3 V3.0 Rev 1        
 IVDW         = 12
 DF unknown   
 parameters
 VDW_S6       =    1.0000
 VDW_S8       =    2.3100
 VDW_A1       =    0.3830
 VDW_A2       =    5.6850
 k1-k3        =   16.0000    1.3333   -4.0000
 VDW_RADIUS   =   50.2022 A
 VDW_CNRADIUS =   21.1671 A
 Edisp (eV)   -0.26000

 E6    (eV) :    -0.1322
 E8    (eV) :    -0.1278
 % E8        : 49.17
    FORVDW:  cpu time      0.0081: real time      0.0081

  FORCE on cell =-STRESS in cart. coord.  units (eV):
  Direction    XX          YY          ZZ          XY          YZ          ZX
  --------------------------------------------------------------------------------------
  Alpha Z     0.18356     0.18356     0.18356
  Ewald    3742.81374  2155.30202  -463.91659    -0.01039     0.15984     0.00660
  Hartree  4114.87537  2677.93846  1003.08489    -0.00649     0.10152     0.00395
  E(xc)    -169.27721  -169.50475  -171.80266    -0.00000     0.00014     0.00000
  Local   -8440.85080 -5408.44139 -1226.64177     0.01612    -0.25481    -0.01013
  n-local  -107.28007  -108.92651  -107.24961    -0.00003    -0.00006     0.00001
  augment    26.44082    27.06732    29.89522     0.00002    -0.00010    -0.00003
  Kinetic   903.58817   897.56999  1008.17755     0.00030    -0.00652    -0.00042
  Fock      -76.08078   -76.45772   -72.29463     0.00001    -0.00028    -0.00000
  vdW        -0.10436    -0.04742    -0.00000     0.00000    -0.00000    -0.00000
  -------------------------------------------------------------------------------------
  Total      -5.69156    -5.31644    -0.56404     0.00000     0.00000     0.00000
  in kB      -0.14248    -0.13309    -0.01412     0.00000     0.00000     0.00000
  external pressure =       -0.10 kB  Pullay stress =        0.00 kB


 VOLUME and BASIS-vectors are now :
 -----------------------------------------------------------------------------
  energy-cutoff  :      500.00
  volume of cell :    64000.00
      direct lattice vectors                 reciprocal lattice vectors
    40.000000000  0.000000000  0.000000000     0.025000000  0.000000000  0.000000000
     0.000000000 40.000000000  0.000000000     0.000000000  0.025000000  0.000000000
     0.000000000  0.000000000 40.000000000     0.000000000  0.000000000  0.025000000

  length of vectors
    40.000000000 40.000000000 40.000000000     0.025000000  0.025000000  0.025000000


 FORCES acting on ions:
    Electron-Ion                     Ewald-Force                    Non-Local-Force
 -----------------------------------------------------------------------------------------------
   0.895E+02 0.197E+03 0.223E-01   -.891E+02 -.198E+03 -.226E-01   -.348E+00 0.160E+01 0.000E+00
   -.167E+02 0.195E+03 0.515E-02   0.180E+02 -.196E+03 -.504E-02   -.126E+01 0.184E+01 0.000E+00
   0.103E+02 0.146E-02 -.646E-03   -.143E+02 -.158E-02 0.631E-03   0.386E+01 0.000E+00 0.000E+00
   -.167E+02 -.195E+03 -.785E-02   0.180E+02 0.196E+03 0.774E-02   -.126E+01 -.184E+01 0.000E+00
   0.895E+02 -.197E+03 -.218E-01   -.891E+02 0.198E+03 0.221E-01   -.348E+00 -.160E+01 0.000E+00
   0.650E+02 -.139E-02 -.866E-03   -.558E+02 0.191E-02 0.950E-03   -.897E+01 0.000E+00 0.000E+00
   0.431E+03 -.221E-02 0.326E-02   -.480E+03 0.269E-02 -.375E-02   0.417E+02 0.000E+00 0.000E+00
   -.732E+02 0.112E-02 -.238E-02   0.707E+02 -.144E-02 0.246E-02   0.238E+01 0.000E+00 0.000E+00
   -.305E+03 0.342E+03 0.118E-01   0.330E+03 -.384E+03 -.133E-01   -.220E+02 0.369E+02 0.000E+00
   -.305E+03 -.342E+03 -.781E-02   0.330E+03 0.384E+03 0.875E-02   -.220E+02 -.369E+02 0.000E+00
   0.421E+02 -.825E+02 -.617E-02   -.450E+02 0.873E+02 0.653E-02   0.289E+01 -.479E+01 0.000E+00
   -.231E+02 -.884E+02 -.904E-02   0.262E+02 0.931E+02 0.950E-02   -.310E+01 -.482E+01 0.000E+00
   -.231E+02 0.884E+02 0.677E-02   0.262E+02 -.931E+02 -.713E-02   -.310E+01 0.482E+01 0.000E+00
   0.421E+02 0.825E+02 0.645E-02   -.450E+02 -.873E+02 -.683E-02   0.289E+01 0.479E+01 0.000E+00
 -----------------------------------------------------------------------------------------------
   0.738E+01 0.643E-03 -.874E-03   -.135E-12 0.000E+00 0.781E-17   -.874E+01 0.000E+00 0.000E+00
 
 
 POSITION                                       TOTAL-FORCE (eV/Angst)
 -----------------------------------------------------------------------------------
     18.80576     18.77946     19.99988         0.003744      0.262788      0.000000
     20.19670     18.77497     19.99993         0.020317      0.260113      0.000000
     20.91783     19.99999     20.00000         0.050409      0.000000      0.000000
     20.19672     21.22501     20.00007         0.020317     -0.260113      0.000000
     18.80576     21.22055     20.00011         0.003744     -0.262788      0.000000
     18.12894     20.00000     19.99999        -0.144901      0.000000      0.000000
     16.74205     20.00001     19.99998         0.797035      0.000000      0.000000
     22.31602     19.99999     20.00000         0.140524      0.000000      0.000000
     22.94589     18.86587     19.99995        -0.459399      0.749472      0.000000
     22.94589     21.13409     20.00003        -0.459399     -0.749472      0.000000
     18.24062     22.15282     20.00017         0.127806     -0.211010      0.000000
     20.75862     22.15640     20.00018        -0.114001     -0.243376      0.000000
     20.75860     17.84358     19.99985        -0.114001      0.243376      0.000000
     18.24060     17.84719     19.99982         0.127806      0.211010      0.000000
 -----------------------------------------------------------------------------------
    total drift:                               -0.010105      0.000643     -0.000874


--------------------------------------------------------------------------------------------------------



  FREE ENERGIE OF THE ION-ELECTRON SYSTEM (eV)
  ---------------------------------------------------
  free  energy   TOTEN  =      -112.45020291 eV

  energy  without entropy=     -112.45020291  energy(sigma->0) =     -112.45020291
 


--------------------------------------------------------------------------------------------------------


    --------------------------------------------
      INIT:  cpu time      0.7537: real time      0.7538
  FINALIZE:  cpu time     57.0585: real time     57.0637
    --------------------------------------------
    POTLOK:  cpu time     76.7906: real time     76.7974


--------------------------------------------------------------------------------------------------------


 writing wavefunctions
     LOOP+:  cpu time   3272.1596: real time   3274.4637
    4ORBIT:  cpu time      0.0000: real time      0.0000

 total amount of memory used by VASP MPI-rank0  1829085. kBytes
=======================================================================

   base      :      30000. kBytes
   nonlr-proj:       2702. kBytes
   fftplans  :     175546. kBytes
   grid      :     390911. kBytes
   one-center:          6. kBytes
   HF        :          4. kBytes
   wavefun   :      72789. kBytes
   fock_wrk  :    1157127. kBytes
 
  
  
 General timing and accounting informations for this job:
 ========================================================
  
                  Total CPU time used (sec):     3324.520
                            User time (sec):     2112.117
                          System time (sec):     1212.402
                         Elapsed time (sec):     3328.626
  
                   Maximum memory used (kb):     3131292.
                   Average memory used (kb):          N/A
  
                          Minor page faults:     26673279
                          Major page faults:            5
                 Voluntary context switches:        21710
