 vasp.6.4.2 20Jul23 (build Sep 06 2024 14:39:43) complex                        
  
 executed on             LinuxIFC date 2025.10.04  03:18:03
 running   90 mpi-ranks, on    6 nodes
 distrk:  each k-point on   90 cores,    1 groups
 distr:  one band on NCORE=  15 cores,    6 groups


--------------------------------------------------------------------------------------------------------


 INCAR:
   SYSTEM = 103_red
   ISTART = 1
   ICHARG = 2
   INIWAV = 1
   NELM = 100
   ALGO = fast   	
   ISPIN = 2
   EDIFF = 1E-05
   ISMEAR = 0
   SIGMA = 0.05
   PREC = accurate
   ENCUT = 500
   LREAL = auto  	
   LWAVE = .TRUE.
   LCHARG = .FALSE.
   LAECHG = .FALSE.
   LVHAR = .FALSE.
   LVTOT = .FALSE.
   EDIFFG = -0.02
   IBRION = 2
   NSW = 500
   ISIF = 2
   POTIM = 0.5
   IVDW = 11
   LPLANE = .TRUE.
   NCORE = 15
   LSCALU = .FALSE.
   NSIM = 4
   LSOL = .TRUE.
   EB_K = 35.6880
   LAMBDA_D_K = 6.60
   TAU = 0
   NELECT = 67

 POTCAR:    PAW_PBE C 08Apr2002                   
 POTCAR:    PAW_PBE H 15Jun2001                   
 -----------------------------------------------------------------------------
|                                                                             |
|           W    W    AA    RRRRR   N    N  II  N    N   GGGG   !!!           |
|           W    W   A  A   R    R  NN   N  II  NN   N  G    G  !!!           |
|           W    W  A    A  R    R  N N  N  II  N N  N  G       !!!           |
|           W WW W  AAAAAA  RRRRR   N  N N  II  N  N N  G  GGG   !            |
|           WW  WW  A    A  R   R   N   NN  II  N   NN  G    G                |
|           W    W  A    A  R    R  N    N  II  N    N   GGGG   !!!           |
|                                                                             |
|     You use a magnetic or noncollinear calculation, but did not specify     |
|     the initial magnetic moment with the MAGMOM tag. Note that a            |
|     default of 1 will be used for all atoms. This ferromagnetic setup       |
|     may break the symmetry of the crystal, in particular it may rule        |
|     out finding an antiferromagnetic solution. Thence, we recommend         |
|     setting the initial magnetic moment manually or verifying carefully     |
|     that this magnetic setup is desired.                                    |
|                                                                             |
 -----------------------------------------------------------------------------

 POTCAR:    PAW_PBE C 08Apr2002                   
   SHA256 =  253f7b50bb8d59471dbedb8285d89021f4a42ed1a2c5d38a03a736e69125dd95 C/POTCAR              
   COPYR  = (c) Copyright 08Apr2002 Georg Kresse                                                    
   COPYR  = This file is part of the software VASP. Any use, copying, and all other rights are regul
   COPYR  = If you do not have a valid VASP license, you may not use, copy or distribute this file. 
   VRHFIN =C: s2p2                                                                                  
   LEXCH  = PE                                                                                      
   EATOM  =   147.1560 eV,   10.8157 Ry                                                             
                                                                                                    
   TITEL  = PAW_PBE C 08Apr2002                                                                     
   LULTRA =        F    use ultrasoft PP ?                                                          
   IUNSCR =        1    unscreen: 0-lin 1-nonlin 2-no                                               
   RPACOR =    1.200    partial core radius                                                         
   POMASS =   12.011; ZVAL   =    4.000    mass and valenz                                          
   RCORE  =    1.500    outmost cutoff radius                                                       
   RWIGS  =    1.630; RWIGS  =    0.863    wigner-seitz radius (au A)                               
   ENMAX  =  400.000; ENMIN  =  300.000 eV                                                          
   ICORE  =        2    local potential                                                             
   LCOR   =        T    correct aug charges                                                         
   LPAW   =        T    paw PP                                                                      
   EAUG   =  644.873                                                                                
   DEXC   =    0.000                                                                                
   RMAX   =    1.529    core radius for proj-oper                                                   
   RAUG   =    1.300    factor for augmentation sphere                                              
   RDEP   =    1.501    radius for radial grids                                                     
   RDEPT  =    1.300    core radius for aug-charge                                                  
                                                                                                    
   Atomic configuration                                                                             
    4 entries                                                                                       
     n  l   j            E        occ.                                                              
     1  0  0.50      -273.3789   2.0000                                                             
     2  0  0.50       -13.7508   2.0000                                                             
     2  1  0.50        -5.2854   2.0000                                                             
     3  2  1.50        -5.4423   0.0000                                                             
   Description                                                                                      
     l       E           TYP  RCUT    TYP  RCUT                                                     
     0    -13.7508458     23  1.200                                                                 
     0     -8.2022199     23  1.200                                                                 
     1     -5.2854383     23  1.500                                                                 
     1     34.0145650     23  1.500                                                                 
     2     -5.4423304      7  1.500                                                                 
  local pseudopotential read in
  partial core-charges read in
  partial kinetic energy density read in
  atomic valenz-charges read in
  non local Contribution for L=           0  read in
    real space projection operators read in
  non local Contribution for L=           0  read in
    real space projection operators read in
  non local Contribution for L=           1  read in
    real space projection operators read in
  non local Contribution for L=           1  read in
    real space projection operators read in
    PAW grid and wavefunctions read in
 
   number of l-projection  operators is LMAX  =           4
   number of lm-projection operators is LMMAX =           8
 
 POTCAR:    PAW_PBE H 15Jun2001                   
   SHA256 =  030f79b5d3ab3cf0e668861823c8fb652ff669f3e15e46930bd03bfd63a607b6 H/POTCAR              
   COPYR  = (c) Copyright 15Jun2001 Georg Kresse                                                    
   COPYR  = This file is part of the software VASP. Any use, copying, and all other rights are regul
   COPYR  = If you do not have a valid VASP license, you may not use, copy or distribute this file. 
   VRHFIN =H: ultrasoft test                                                                        
   LEXCH  = PE                                                                                      
   EATOM  =    12.4884 eV,    0.9179 Ry                                                             
                                                                                                    
   TITEL  = PAW_PBE H 15Jun2001                                                                     
   LULTRA =        F    use ultrasoft PP ?                                                          
   IUNSCR =        0    unscreen: 0-lin 1-nonlin 2-no                                               
   RPACOR =    0.000    partial core radius                                                         
   POMASS =    1.000; ZVAL   =    1.000    mass and valenz                                          
   RCORE  =    1.100    outmost cutoff radius                                                       
   RWIGS  =    0.700; RWIGS  =    0.370    wigner-seitz radius (au A)                               
   ENMAX  =  250.000; ENMIN  =  200.000 eV                                                          
   RCLOC  =    0.701    cutoff for local pot                                                        
   LCOR   =        T    correct aug charges                                                         
   LPAW   =        T    paw PP                                                                      
   EAUG   =  400.000                                                                                
   RMAX   =    1.123    core radius for proj-oper                                                   
   RAUG   =    1.200    factor for augmentation sphere                                              
   RDEP   =    1.112    radius for radial grids                                                     
   RDEPT  =    0.926    core radius for aug-charge                                                  
                                                                                                    
   Atomic configuration                                                                             
    2 entries                                                                                       
     n  l   j            E        occ.                                                              
     1  0  0.50        -6.4927   1.0000                                                             
     2  1  0.50        -3.4015   0.0000                                                             
   Description                                                                                      
     l       E           TYP  RCUT    TYP  RCUT                                                     
     0     -6.4927494     23  1.100                                                                 
     0      6.8029130     23  1.100                                                                 
     1     -4.0817478     23  1.100                                                                 
  local pseudopotential read in
  atomic valenz-charges read in
  non local Contribution for L=           0  read in
    real space projection operators read in
  non local Contribution for L=           0  read in
    real space projection operators read in
  non local Contribution for L=           1  read in
    real space projection operators read in
    PAW grid and wavefunctions read in
 
   number of l-projection  operators is LMAX  =           3
   number of lm-projection operators is LMMAX =           5
 
 Optimization of the real space projectors (new method)

 maximal supplied QI-value         = 25.13
 optimisation between [QCUT,QGAM] = [ 11.31, 22.87] = [ 35.82,146.48] Ry 
 Optimized for a Real-space Cutoff    1.03 Angstroem

   l    n(q)    QCUT    max X(q) W(low)/X(q) W(high)/X(q)  e(spline) 
   0      7    11.310   115.676    0.20E-03    0.90E-03    0.20E-06
   0      7    11.310    87.132    0.20E-03    0.89E-03    0.19E-06
   1      6    11.310     4.429    0.16E-03    0.28E-03    0.12E-06
   1      6    11.310     2.733    0.12E-03    0.21E-03    0.99E-07
 Optimization of the real space projectors (new method)

 maximal supplied QI-value         = 34.20
 optimisation between [QCUT,QGAM] = [ 11.29, 22.57] = [ 35.68,142.71] Ry 
 Optimized for a Real-space Cutoff    1.20 Angstroem

   l    n(q)    QCUT    max X(q) W(low)/X(q) W(high)/X(q)  e(spline) 
   0      8    11.287    19.460    0.22E-03    0.50E-03    0.19E-06
   0      8    11.287    12.209    0.21E-03    0.48E-03    0.18E-06
   1      8    11.287     4.655    0.21E-03    0.11E-04    0.26E-06
  PAW_PBE C 08Apr2002                   :
 energy of atom  1       EATOM= -147.1560
 kinetic energy error for atom=    0.0076 (will be added to EATOM!!)
  PAW_PBE H 15Jun2001                   :
 energy of atom  2       EATOM=  -12.4884
 kinetic energy error for atom=    0.0020 (will be added to EATOM!!)
 
 
 POSCAR: C H
  positions in direct lattice
  velocities in cartesian coordinates
 exchange correlation table for  LEXCH =        8
   RHO(1)=    0.500       N(1)  =     2000
   RHO(2)=  100.500       N(2)  =     4000
 


--------------------------------------------------------------------------------------------------------


 ion  position               nearest neighbor table
   1  0.561  0.478  0.515-  26 1.09   6 1.39   2 1.42
   2  0.532  0.490  0.499-   1 1.42   3 1.42   7 1.46
   3  0.534  0.521  0.482-  18 1.09   4 1.39   2 1.42
   4  0.564  0.539  0.480-  17 1.09   3 1.39   5 1.40
   5  0.592  0.526  0.496-  16 1.09   4 1.40   6 1.41
   6  0.590  0.496  0.514-  15 1.09   1 1.39   5 1.41
   7  0.500  0.472  0.500-   8 1.39   9 1.46   2 1.46
   8  0.500  0.437  0.500-  20 1.09  19 1.09   7 1.39
   9  0.468  0.490  0.501-  10 1.42  14 1.42   7 1.46
  10  0.439  0.478  0.485-  25 1.09  11 1.39   9 1.42
  11  0.410  0.496  0.486-  24 1.09  10 1.39  12 1.41
  12  0.408  0.526  0.504-  23 1.09  13 1.40  11 1.41
  13  0.436  0.539  0.520-  22 1.09  14 1.39  12 1.40
  14  0.466  0.521  0.518-  21 1.09  13 1.39   9 1.42
  15  0.612  0.486  0.527-   6 1.09
  16  0.615  0.540  0.495-   5 1.09
  17  0.565  0.562  0.466-   4 1.09
  18  0.512  0.530  0.468-   3 1.09
  19  0.477  0.423  0.499-   8 1.09
  20  0.523  0.423  0.501-   8 1.09
  21  0.488  0.530  0.532-  14 1.09
  22  0.435  0.562  0.534-  13 1.09
  23  0.385  0.540  0.505-  12 1.09
  24  0.388  0.486  0.473-  11 1.09
  25  0.441  0.454  0.471-  10 1.09
  26  0.559  0.454  0.529-   1 1.09
 
  LATTYP: Found a simple cubic cell.
 ALAT       =    40.0000000000
  
  Lattice vectors:
  
 A1 = (  40.0000000000,   0.0000000000,   0.0000000000)
 A2 = (   0.0000000000,  40.0000000000,   0.0000000000)
 A3 = (   0.0000000000,   0.0000000000,  40.0000000000)


Analysis of symmetry for initial positions (statically):
=====================================================================
 Subroutine PRICEL returns:
 Original cell was already a primitive cell.
 

 Routine SETGRP: Setting up the symmetry group for a 
 simple cubic supercell.


 Subroutine GETGRP returns: Found  2 space group operations
 (whereof  2 operations were pure point group operations)
 out of a pool of 48 trial point group operations.


The static configuration has the point symmetry C_2 .


Analysis of symmetry for dynamics (positions and initial velocities):
=====================================================================
 Subroutine PRICEL returns:
 Original cell was already a primitive cell.
 

 Routine SETGRP: Setting up the symmetry group for a 
 simple cubic supercell.


 Subroutine GETGRP returns: Found  2 space group operations
 (whereof  2 operations were pure point group operations)
 out of a pool of 48 trial point group operations.


The dynamic configuration has the point symmetry C_2 .


Analysis of constrained symmetry for selective dynamics:
=====================================================================
 Subroutine PRICEL returns:
 Original cell was already a primitive cell.
 

 Routine SETGRP: Setting up the symmetry group for a 
 simple cubic supercell.


 Subroutine GETGRP returns: Found  2 space group operations
 (whereof  2 operations were pure point group operations)
 out of a pool of 48 trial point group operations.


The constrained configuration has the point symmetry C_2 .


Analysis of structural, dynamic, and magnetic symmetry:
=====================================================================
 Subroutine PRICEL returns:
 Original cell was already a primitive cell.
 

 Routine SETGRP: Setting up the symmetry group for a 
 simple cubic supercell.


 Subroutine GETGRP returns: Found  2 space group operations
 (whereof  2 operations were pure point group operations)
 out of a pool of 48 trial point group operations.


The overall configuration has the point symmetry C_2 .


 Subroutine INISYM returns: Found  2 space group operations
 (whereof  2 operations are pure point group operations),
 and found     1 'primitive' translations


----------------------------------------------------------------------------------------

                                     Primitive cell                                     

  volume of cell :   64000.0000

  direct lattice vectors                    reciprocal lattice vectors
    40.000000000  0.000000000  0.000000000     0.025000000  0.000000000  0.000000000
     0.000000000 40.000000000  0.000000000     0.000000000  0.025000000  0.000000000
     0.000000000  0.000000000 40.000000000     0.000000000  0.000000000  0.025000000

  length of vectors
    40.000000000 40.000000000 40.000000000     0.025000000  0.025000000  0.025000000

  position of ions in fractional coordinates (direct lattice)
     0.560609812  0.477695177  0.515056556
     0.531547711  0.490348600  0.499128792
     0.533573020  0.521137580  0.481533275
     0.563527281  0.538557951  0.480041590
     0.591863966  0.525972419  0.496379105
     0.590233331  0.495628540  0.514019077
     0.500000000  0.472118374  0.500000000
     0.500000000  0.437436049  0.499999000
     0.468452289  0.490348600  0.500871208
     0.439390188  0.477696177  0.484943444
     0.409766669  0.495629540  0.485980923
     0.408136034  0.525973419  0.503620895
     0.436472719  0.538557951  0.519959410
     0.466426980  0.521137580  0.518467725
     0.612242076  0.486284966  0.527025244
     0.615368246  0.539682182  0.495211332
     0.565066081  0.561797986  0.465948363
     0.511731828  0.530309087  0.468097162
     0.476751196  0.423317982  0.499343945
     0.523247804  0.423316982  0.500654055
     0.488268172  0.530308087  0.531903838
     0.434933919  0.561796986  0.534053637
     0.384631754  0.539683182  0.504789668
     0.387757924  0.486285966  0.472973756
     0.440711295  0.454488820  0.470769059
     0.559288705  0.454487820  0.529228941

  ion indices of the primitive-cell ions
   primitive index   ion index
                 1           1
                 2           2
                 3           3
                 4           4
                 5           5
                 6           6
                 7           7
                 8           8
                 9           9
                10          10
                11          11
                12          12
                13          13
                14          14
                15          15
                16          16
                17          17
                18          18
                19          19
                20          20
                21          21
                22          22
                23          23
                24          24
                25          25
                26          26

----------------------------------------------------------------------------------------

 
 
 KPOINTS: K-Point Grid                            

Automatic generation of k-mesh.
 Grid dimensions read from file:
 generate k-points for:    1    1    1

 Generating k-lattice:

  Cartesian coordinates                     Fractional coordinates (reciprocal lattice)
     0.025000000  0.000000000  0.000000000     1.000000000  0.000000000  0.000000000
     0.000000000  0.025000000  0.000000000     0.000000000  1.000000000  0.000000000
     0.000000000  0.000000000  0.025000000     0.000000000  0.000000000  1.000000000

  Length of vectors
     0.025000000  0.025000000  0.025000000

  Shift w.r.t. Gamma in fractional coordinates (k-lattice)
     0.000000000  0.000000000  0.000000000

 
 Subroutine IBZKPT returns following result:
 ===========================================
 
 Found      1 irreducible k-points:
 
 Following reciprocal coordinates:
            Coordinates               Weight
  0.000000  0.000000  0.000000      1.000000
 
 Following cartesian coordinates:
            Coordinates               Weight
  0.000000  0.000000  0.000000      1.000000
 


--------------------------------------------------------------------------------------------------------




 Dimension of arrays:
   k-points           NKPTS =      1   k-points in BZ     NKDIM =      1   number of bands    NBANDS=     60
   number of dos      NEDOS =    301   number of ions     NIONS =     26
   non local maximal  LDIM  =      4   non local SUM 2l+1 LMDIM =      8
   total plane-waves  NPLWV = ******
   max r-space proj   IRMAX =   2915   max aug-charges    IRDMAX=   4885
   dimension x,y,z NGX =   294 NGY =  294 NGZ =  294
   dimension x,y,z NGXF=   588 NGYF=  588 NGZF=  588
   support grid    NGXF=   588 NGYF=  588 NGZF=  588
   ions per type =              14  12
   NGX,Y,Z   is equivalent  to a cutoff of  12.22, 12.22, 12.22 a.u.
   NGXF,Y,Z  is equivalent  to a cutoff of  24.44, 24.44, 24.44 a.u.

 SYSTEM =  103_red                                 
 POSCAR =  C H                                     

 Startparameter for this run:
   NWRITE =      2    write-flag & timer
   PREC   = accura    normal or accurate (medium, high low for compatibility)
   ISTART =      1    job   : 0-new  1-cont  2-samecut
   ICHARG =      2    charge: 1-file 2-atom 10-const
   ISPIN  =      2    spin polarized calculation?
   LNONCOLLINEAR =      F non collinear calculations
   LSORBIT =      F    spin-orbit coupling
   INIWAV =      1    electr: 0-lowe 1-rand  2-diag
   LASPH  =      F    aspherical Exc in radial PAW
 Electronic Relaxation 1
   ENCUT  =  500.0 eV  36.75 Ry    6.06 a.u.  72.93 72.93 72.93*2*pi/ulx,y,z
   ENINI  =  500.0     initial cutoff
   ENAUG  =  644.9 eV  augmentation charge cutoff
   NELM   =    100;   NELMIN=  2; NELMDL=  0     # of ELM steps 
   EDIFF  = 0.1E-04   stopping-criterion for ELM
   LREAL  =      T    real-space projection
   NLSPLINE    = F    spline interpolate recip. space projectors
   LCOMPAT=      F    compatible to vasp.4.4
   GGA_COMPAT  = T    GGA compatible to vasp.4.4-vasp.4.6
   LMAXPAW     = -100 max onsite density
   LMAXMIX     =    2 max onsite mixed and CHGCAR
   VOSKOWN=      0    Vosko Wilk Nusair interpolation
   ROPT   =   -0.00025  -0.00025
 Ionic relaxation
   EDIFFG = -.2E-01   stopping-criterion for IOM
   NSW    =    500    number of steps for IOM
   NBLOCK =      1;   KBLOCK =    500    inner block; outer block 
   IBRION =      2    ionic relax: 0-MD 1-quasi-New 2-CG
   NFREE  =      1    steps in history (QN), initial steepest desc. (CG)
   ISIF   =      2    stress and relaxation
   IWAVPR =     11    prediction:  0-non 1-charg 2-wave 3-comb
   ISYM   =      2    0-nonsym 1-usesym 2-fastsym
   LCORR  =      T    Harris-Foulkes like correction to forces

   POTIM  = 0.5000    time-step for ionic-motion
   TEIN   =    0.0    initial temperature
   TEBEG  =    0.0;   TEEND  =   0.0 temperature during run
   SMASS  =  -3.00    Nose mass-parameter (am)
   estimated Nose-frequenzy (Omega)   =  0.10E-29 period in steps = 0.13E+47 mass=  -0.366E-25a.u.
   SCALEE = 1.0000    scale energy and forces
   NPACO  =    256;   APACO  = 10.0  distance and # of slots for P.C.
   PSTRESS=    0.0 pullay stress

  Mass of Ions in am
   POMASS =  12.01  1.00
  Ionic Valenz
   ZVAL   =   4.00  1.00
  Atomic Wigner-Seitz radii
   RWIGS  =  -1.00 -1.00
  virtual crystal weights 
   VCA    =   1.00  1.00
   NELECT =      67.0000    total number of electrons
   NUPDOWN=      -1.0000    fix difference up-down

 DOS related values:
   EMIN   =  10.00;   EMAX   =-10.00  energy-range for DOS
   EFERMI =   0.00;   METHOD = LEGACY      
   ISMEAR =     0;   SIGMA  =   0.05  broadening in eV -4-tet -1-fermi 0-gaus

 Electronic relaxation 2 (details)
   IALGO  =     68    algorithm
   LDIAG  =      T    sub-space diagonalisation (order eigenvalues)
   LSUBROT=      F    optimize rotation matrix (better conditioning)
   TURBO    =      0    0=normal 1=particle mesh
   IRESTART =      0    0=no restart 2=restart with 2 vectors
   NREBOOT  =      0    no. of reboots
   NMIN     =      0    reboot dimension
   EREF     =   0.00    reference energy to select bands
   IMIX   =      4    mixing-type and parameters
     AMIX     =   0.40;   BMIX     =  1.00
     AMIX_MAG =   1.60;   BMIX_MAG =  1.00
     AMIN     =   0.10
     WC   =   100.;   INIMIX=   1;  MIXPRE=   1;  MAXMIX= -45

 Intra band minimization:
   WEIMIN = 0.0010     energy-eigenvalue tresh-hold
   EBREAK =  0.42E-07  absolut break condition
   DEPER  =   0.30     relativ break condition  

   TIME   =   0.40     timestep for ELM

  volume/ion in A,a.u.               =    2461.54     16611.28
  Fermi-wavevector in a.u.,A,eV,Ry     =   0.166229  0.314127  0.375957  0.027632
  Thomas-Fermi vector in A             =   0.869375
 
 Write flags
   LWAVE        =      T    write WAVECAR
   LDOWNSAMPLE  =      F    k-point downsampling of WAVECAR
   LCHARG       =      F    write CHGCAR
   LVTOT        =      F    write LOCPOT, total local potential
   LVHAR        =      F    write LOCPOT, Hartree potential only
   LELF         =      F    write electronic localiz. function (ELF)
   LORBIT       =      0    0 simple, 1 ext, 2 COOP (PROOUT), +10 PAW based schemes


 Dipole corrections
   LMONO  =      F    monopole corrections only (constant potential shift)
   LDIPOL =      F    correct potential (dipole corrections)
   IDIPOL =      0    1-x, 2-y, 3-z, 4-all directions 
   EPSILON=  1.0000000 bulk dielectric constant

 Exchange correlation treatment:
   GGA     =    --    GGA type
   LEXCH   =     8    internal setting for exchange type
   LIBXC   =     F    Libxc                    
   VOSKOWN =     0    Vosko Wilk Nusair interpolation
   LHFCALC =     F    Hartree Fock is set to
   LHFONE  =     F    Hartree Fock one center treatment
   AEXX    =    0.0000 exact exchange contribution

 Linear response parameters
   LEPSILON=     F    determine dielectric tensor
   LRPA    =     F    only Hartree local field effects (RPA)
   LNABLA  =     F    use nabla operator in PAW spheres
   LVEL    =     F    velocity operator in full k-point grid
   CSHIFT  =0.1000    complex shift for real part using Kramers Kronig
   OMEGAMAX=  -1.0    maximum frequency
   DEG_THRESHOLD= 0.2000000E-02 threshold for treating states as degnerate
   RTIME   =   -0.100 relaxation time in fs
  (WPLASMAI=    0.000 imaginary part of plasma frequency in eV, 0.658/RTIME)
   DFIELD  = 0.0000000 0.0000000 0.0000000 field for delta impulse in time
 
  Optional k-point grid parameters
   LKPOINTS_OPT  =     F    use optional k-point grid
   KPOINTS_OPT_MODE=     1    mode for optional k-point grid
 
 Orbital magnetization related:
   ORBITALMAG=     F  switch on orbital magnetization
   LCHIMAG   =     F  perturbation theory with respect to B field
   DQ        =  0.001000  dq finite difference perturbation B field
   LLRAUG    =     F  two centre corrections for induced B field
   LBONE     =     F  B-component reconstruction in AE one-centre
   LVGVCALC  =     T  calculate vGv susceptibility
   LVGVAPPL  =     F  apply vGv susceptibility instead of pGv for G=0

 Random number generation:
   RANDOM_GENERATOR = DEFAULT
   PCG_SEED         = not used
 Solvation model:
   LSOL    =     T         switch on solvation model
   EB_K    = 35.688000     relative permittivity of the bulk solvent
   SIGMA_K =  0.600000     width of the dielectric cavity
   NC_K    =  0.002500     cutoff charge density
   TAU     =  0.000000     cavity surface tension
   LAMBDA_D_K    =  6.600000     Debye length in Angstroms
   LRHOB     =     F     write boundcharge  density
   LRHOION     =     F     write ioniccharge density



--------------------------------------------------------------------------------------------------------


 conjugate gradient relaxation of ions
   using selective dynamics as specified on POSCAR
 charge density and potential will be updated during run
 spin polarized calculation
 RMM-DIIS sequential band-by-band and
  variant of blocked Davidson during initial phase
 perform sub-space diagonalisation
    before iterative eigenvector-optimisation
 modified Broyden-mixing scheme, WC =      100.0
 initial mixing is a Kerker type mixing with AMIX =  0.4000 and BMIX =      1.0000
 Hartree-type preconditioning will be used
 using additional bands           26
 real space projection scheme for non local part
 use partial core corrections
 calculate Harris-corrections to forces 
   (improved forces if not selfconsistent)
 use gradient corrections 
 use of overlap-Matrix (Vanderbilt PP)
 Gauss-broadening in eV      SIGMA  =   0.05


--------------------------------------------------------------------------------------------------------


  energy-cutoff  :      500.00
  volume of cell :    64000.00
      direct lattice vectors                 reciprocal lattice vectors
    40.000000000  0.000000000  0.000000000     0.025000000  0.000000000  0.000000000
     0.000000000 40.000000000  0.000000000     0.000000000  0.025000000  0.000000000
     0.000000000  0.000000000 40.000000000     0.000000000  0.000000000  0.025000000

  length of vectors
    40.000000000 40.000000000 40.000000000     0.025000000  0.025000000  0.025000000


 
 old parameters found on file WAVECAR:
  energy-cutoff  :      500.00
  volume of cell :    64000.00
      direct lattice vectors                 reciprocal lattice vectors
    40.000000000  0.000000000  0.000000000     0.025000000  0.000000000  0.000000000
     0.000000000 40.000000000  0.000000000     0.000000000  0.025000000  0.000000000
     0.000000000  0.000000000 40.000000000     0.000000000  0.000000000  0.025000000

  length of vectors

 
 k-points in units of 2pi/SCALE and weight: K-Point Grid                            
   0.00000000  0.00000000  0.00000000       1.000
 
 k-points in reciprocal lattice and weights: K-Point Grid                            
   0.00000000  0.00000000  0.00000000       1.000
 
 position of ions in fractional coordinates (direct lattice) 
   0.56060981  0.47769518  0.51505656
   0.53154771  0.49034860  0.49912879
   0.53357302  0.52113758  0.48153328
   0.56352728  0.53855795  0.48004159
   0.59186397  0.52597242  0.49637910
   0.59023333  0.49562854  0.51401908
   0.50000000  0.47211837  0.50000000
   0.50000000  0.43743605  0.49999900
   0.46845229  0.49034860  0.50087121
   0.43939019  0.47769618  0.48494344
   0.40976667  0.49562954  0.48598092
   0.40813603  0.52597342  0.50362090
   0.43647272  0.53855795  0.51995941
   0.46642698  0.52113758  0.51846772
   0.61224208  0.48628497  0.52702524
   0.61536825  0.53968218  0.49521133
   0.56506608  0.56179799  0.46594836
   0.51173183  0.53030909  0.46809716
   0.47675120  0.42331798  0.49934395
   0.52324780  0.42331698  0.50065405
   0.48826817  0.53030809  0.53190384
   0.43493392  0.56179699  0.53405364
   0.38463175  0.53968318  0.50478967
   0.38775792  0.48628597  0.47297376
   0.44071130  0.45448882  0.47076906
   0.55928870  0.45448782  0.52922894
 
 position of ions in cartesian coordinates  (Angst):
  22.42439247 19.10780709 20.60226225
  21.26190844 19.61394399 19.96515166
  21.34292079 20.84550320 19.26133101
  22.54109123 21.54231802 19.20166361
  23.67455863 21.03889675 19.85516420
  23.60933325 19.82514159 20.56076306
  20.00000000 18.88473498 20.00000000
  20.00000000 17.49744197 19.99996000
  18.73809156 19.61394399 20.03484834
  17.57560753 19.10784709 19.39773775
  16.39066675 19.82518159 19.43923694
  16.32544137 21.03893675 20.14483580
  17.45890877 21.54231802 20.79837639
  18.65707921 20.84550320 20.73870899
  24.48968302 19.45139862 21.08100975
  24.61472984 21.58728726 19.80845326
  22.60264323 22.47191946 18.63793451
  20.46927312 21.21236348 18.72388649
  19.07004783 16.93271929 19.97375781
  20.92991217 16.93267929 20.02616219
  19.53072688 21.21232348 21.27615351
  17.39735677 22.47187946 21.36214549
  15.38527016 21.58732726 20.19158674
  15.51031698 19.45143862 18.91895025
  17.62845181 18.17955278 18.83076235
  22.37154819 18.17951278 21.16915765
 


--------------------------------------------------------------------------------------------------------


 k-point   1 :   0.0000 0.0000 0.0000  plane waves: 1624525

 maximum and minimum number of plane-waves per node :    108307   108296

 maximum number of plane-waves:   1624525
 maximum index in each direction: 
   IXMAX=   72   IYMAX=   72   IZMAX=   72
   IXMIN=  -72   IYMIN=  -72   IZMIN=  -72


 real space projection operators:
  total allocation   :       2864.66 KBytes
  max/ min on nodes  :        203.30        181.91


 parallel 3D FFT for wavefunctions:
    minimum data exchange during FFTs selected (reduces bandwidth)
 parallel 3D FFT for charge:
    minimum data exchange during FFTs selected (reduces bandwidth)


 total amount of memory used by VASP MPI-rank0   530243. kBytes
=======================================================================

   base      :      30000. kBytes
   nonlr-proj:       1509. kBytes
   fftplans  :     131430. kBytes
   grid      :     332629. kBytes
   one-center:         12. kBytes
   wavefun   :      34663. kBytes
 
     INWAV:  cpu time     16.1614: real time     16.1694
 Broyden mixing: mesh for mixing (old mesh)
   NGX =145   NGY =145   NGZ =145
  (NGX  =588   NGY  =588   NGZ  =588)
  gives a total of ****** points

 initial charge density was supplied:
 charge density of overlapping atoms calculated
 number of electron      68.0000000 magnetization      26.0000000
 keeping initial charge density in first step


--------------------------------------------------------------------------------------------------------


 Maximum index for non-local projection operator          241
 Maximum index for augmentation-charges          273 (set IRDMAX)


--------------------------------------------------------------------------------------------------------


 First call to EWALD:  gamma=   0.044
 Maximum number of real-space cells 3x 3x 3
 Maximum number of reciprocal cells 3x 3x 3

    FEWALD:  cpu time      0.5850: real time      0.5853


--------------------------------------- Ionic step        1  -------------------------------------------




--------------------------------------- Iteration      1(   1)  ---------------------------------------


    POTLOK:  cpu time    364.5305: real time    364.9317
    SETDIJ:  cpu time      0.0325: real time      0.0325
     EDDAV:  cpu time     50.0818: real time     50.0817
       DOS:  cpu time      0.1783: real time      0.1783
    CHARGE:  cpu time      8.7591: real time      8.7590
    MIXING:  cpu time      0.0861: real time      0.0862
    --------------------------------------------
      LOOP:  cpu time    423.6683: real time    424.0694

 eigenvalue-minimisations  :   324
 total energy-change (2. order) :-0.1505398E+03  (-0.1115142E+02)
 number of electron      66.9999995 magnetization      25.0368054
 augmentation part        1.6894948 magnetization      24.1369053

 Broyden mixing:
  rms(total) = 0.32189E+01    rms(broyden)= 0.32186E+01
  rms(prec ) = 0.32499E+01
  weight for this iteration     100.00

 Free energy of the ion-electron system (eV)
  ---------------------------------------------------
  alpha Z        PSCENC =         0.33654424
  Ewald energy   TEWEN  =      8137.37242178
  -Hartree energ DENC   =     -9558.94020238
  -exchange      EXHF   =         0.00000000
  -V(xc)+E(xc)   XCENC  =       215.55326941
  PAW double counting   =      1539.04512886    -1546.99331561
  entropy T*S    EENTRO =        -0.00000000
  eigenvalues    EBANDS =     -1135.74526609
  atomic energy  EATOM  =      2209.91506195
  Solvation  Ediel_sol  =       -11.08343648
  ---------------------------------------------------
  free energy    TOTEN  =      -150.53979433 eV

  energy without entropy =     -150.53979433  energy(sigma->0) =     -150.53979433


--------------------------------------------------------------------------------------------------------




--------------------------------------- Iteration      1(   2)  ---------------------------------------


    POTLOK:  cpu time    351.4486: real time    351.5111
    SETDIJ:  cpu time      0.0343: real time      0.0343
    EDDIAG:  cpu time      5.8539: real time      5.8539
  RMM-DIIS:  cpu time     10.3580: real time     10.3579
    ORTHCH:  cpu time      1.5300: real time      1.5300
       DOS:  cpu time      0.1607: real time      0.1607
    CHARGE:  cpu time      9.3175: real time      9.3174
    MIXING:  cpu time      0.1070: real time      0.1070
    --------------------------------------------
      LOOP:  cpu time    378.8100: real time    378.8722

 eigenvalue-minimisations  :   240
 total energy-change (2. order) : 0.7080544E+02  (-0.1264985E+02)
 number of electron      66.9999994 magnetization      23.9809171
 augmentation part        1.6849879 magnetization      22.9852485

 Broyden mixing:
  rms(total) = 0.16116E+01    rms(broyden)= 0.16116E+01
  rms(prec ) = 0.16370E+01
  weight for this iteration     100.00

 eigenvalues of (default mixing * dielectric matrix)
  average eigenvalue GAMMA=   0.9487
  0.9487

 Free energy of the ion-electron system (eV)
  ---------------------------------------------------
  alpha Z        PSCENC =         0.33654424
  Ewald energy   TEWEN  =      8137.37242178
  -Hartree energ DENC   =     -9665.60311917
  -exchange      EXHF   =         0.00000000
  -V(xc)+E(xc)   XCENC  =       281.13838784
  PAW double counting   =      2887.13774036    -2896.43728673
  entropy T*S    EENTRO =        -0.00000000
  eigenvalues    EBANDS =      -995.59073796
  atomic energy  EATOM  =      2209.91506195
  Solvation  Ediel_sol  =       -38.00336214
  ---------------------------------------------------
  free energy    TOTEN  =       -79.73434985 eV

  energy without entropy =      -79.73434985  energy(sigma->0) =      -79.73434985


--------------------------------------------------------------------------------------------------------




--------------------------------------- Iteration      1(   3)  ---------------------------------------


    POTLOK:  cpu time    367.4057: real time    367.4384
    SETDIJ:  cpu time      0.0329: real time      0.0329
    EDDIAG:  cpu time      5.9455: real time      5.9455
  RMM-DIIS:  cpu time     10.6022: real time     10.6029
    ORTHCH:  cpu time      1.5499: real time      1.5499
       DOS:  cpu time      0.1606: real time      0.1606
    CHARGE:  cpu time      8.9630: real time      8.9631
    MIXING:  cpu time      0.1113: real time      0.1113
    --------------------------------------------
      LOOP:  cpu time    394.7711: real time    394.8045

 eigenvalue-minimisations  :   240
 total energy-change (2. order) :-0.4184658E+02  (-0.4547303E+01)
 number of electron      66.9999993 magnetization      22.6588465
 augmentation part        1.6380231 magnetization      21.6229720

 Broyden mixing:
  rms(total) = 0.95731E+00    rms(broyden)= 0.95725E+00
  rms(prec ) = 0.96590E+00
  weight for this iteration     100.00

 eigenvalues of (default mixing * dielectric matrix)
  average eigenvalue GAMMA=   1.1677
  0.7797  1.5556

 Free energy of the ion-electron system (eV)
  ---------------------------------------------------
  alpha Z        PSCENC =         0.33654424
  Ewald energy   TEWEN  =      8137.37242178
  -Hartree energ DENC   =     -9750.93921446
  -exchange      EXHF   =         0.00000000
  -V(xc)+E(xc)   XCENC  =       251.36340940
  PAW double counting   =      4106.96588869    -4117.06269429
  entropy T*S    EENTRO =        -0.00000000
  eigenvalues    EBANDS =      -893.24087784
  atomic energy  EATOM  =      2209.91506195
  Solvation  Ediel_sol  =       -66.29146911
  ---------------------------------------------------
  free energy    TOTEN  =      -121.58092965 eV

  energy without entropy =     -121.58092965  energy(sigma->0) =     -121.58092965


--------------------------------------------------------------------------------------------------------




--------------------------------------- Iteration      1(   4)  ---------------------------------------


    POTLOK:  cpu time    361.9772: real time    362.0379
    SETDIJ:  cpu time      0.0338: real time      0.0338
    EDDIAG:  cpu time      6.0506: real time      6.0507
  RMM-DIIS:  cpu time     10.5904: real time     10.5904
    ORTHCH:  cpu time      1.5678: real time      1.5678
       DOS:  cpu time      0.1738: real time      0.1738
    CHARGE:  cpu time      9.3318: real time      9.3319
    MIXING:  cpu time      0.1183: real time      0.1183
    --------------------------------------------
      LOOP:  cpu time    389.8437: real time    389.9045

 eigenvalue-minimisations  :   240
 total energy-change (2. order) :-0.1355459E+02  (-0.2046068E+01)
 number of electron      66.9999992 magnetization      21.6049253
 augmentation part        1.5935112 magnetization      20.5721670

 Broyden mixing:
  rms(total) = 0.63478E+00    rms(broyden)= 0.63472E+00
  rms(prec ) = 0.63930E+00
  weight for this iteration     100.00

 eigenvalues of (default mixing * dielectric matrix)
  average eigenvalue GAMMA=   1.1559
  1.7558  1.0296  0.6824

 Free energy of the ion-electron system (eV)
  ---------------------------------------------------
  alpha Z        PSCENC =         0.33654424
  Ewald energy   TEWEN  =      8137.37242178
  -Hartree energ DENC   =     -9798.98476041
  -exchange      EXHF   =         0.00000000
  -V(xc)+E(xc)   XCENC  =       244.50381734
  PAW double counting   =      5228.27892304    -5238.67556498
  entropy T*S    EENTRO =        -0.00000000
  eigenvalues    EBANDS =      -821.77029722
  atomic energy  EATOM  =      2209.91506195
  Solvation  Ediel_sol  =       -96.11166042
  ---------------------------------------------------
  free energy    TOTEN  =      -135.13551469 eV

  energy without entropy =     -135.13551469  energy(sigma->0) =     -135.13551469


--------------------------------------------------------------------------------------------------------




--------------------------------------- Iteration      1(   5)  ---------------------------------------


    POTLOK:  cpu time    356.6533: real time    356.6987
    SETDIJ:  cpu time      0.0339: real time      0.0339
    EDDIAG:  cpu time      6.1538: real time      6.1537
  RMM-DIIS:  cpu time     10.4645: real time     10.4645
    ORTHCH:  cpu time      1.3071: real time      1.3071
       DOS:  cpu time      0.1409: real time      0.1409
    CHARGE:  cpu time      8.9642: real time      8.9641
    MIXING:  cpu time      0.1204: real time      0.1204
    --------------------------------------------
      LOOP:  cpu time    383.8382: real time    383.8833

 eigenvalue-minimisations  :   240
 total energy-change (2. order) :-0.8157519E+01  (-0.4973950E+00)
 number of electron      66.9999992 magnetization      19.7916006
 augmentation part        1.5758381 magnetization      18.7699595

 Broyden mixing:
  rms(total) = 0.43682E+00    rms(broyden)= 0.43680E+00
  rms(prec ) = 0.44012E+00
  weight for this iteration     100.00

 eigenvalues of (default mixing * dielectric matrix)
  average eigenvalue GAMMA=   1.3683
  2.1161  1.8643  0.8412  0.6517

 Free energy of the ion-electron system (eV)
  ---------------------------------------------------
  alpha Z        PSCENC =         0.33654424
  Ewald energy   TEWEN  =      8137.37242178
  -Hartree energ DENC   =     -9788.75400434
  -exchange      EXHF   =         0.00000000
  -V(xc)+E(xc)   XCENC  =       238.73142967
  PAW double counting   =      5576.62517228    -5586.83664854
  entropy T*S    EENTRO =        -0.00000000
  eigenvalues    EBANDS =      -821.22927956
  atomic energy  EATOM  =      2209.91506195
  Solvation  Ediel_sol  =      -109.45373158
  ---------------------------------------------------
  free energy    TOTEN  =      -143.29303412 eV

  energy without entropy =     -143.29303412  energy(sigma->0) =     -143.29303412


--------------------------------------------------------------------------------------------------------




--------------------------------------- Iteration      1(   6)  ---------------------------------------


    POTLOK:  cpu time    365.8181: real time    365.8687
    SETDIJ:  cpu time      0.0326: real time      0.0326
    EDDIAG:  cpu time      5.8281: real time      5.8281
  RMM-DIIS:  cpu time     10.3682: real time     10.3682
    ORTHCH:  cpu time      1.2832: real time      1.2832
       DOS:  cpu time      0.0084: real time      0.0084
    CHARGE:  cpu time      9.1127: real time      9.1127
    MIXING:  cpu time      0.1345: real time      0.1345
    --------------------------------------------
      LOOP:  cpu time    392.5858: real time    392.6364

 eigenvalue-minimisations  :   240
 total energy-change (2. order) :-0.1170464E+02  (-0.5794411E+00)
 number of electron      66.9999992 magnetization      18.9179168
 augmentation part        1.5676034 magnetization      17.9156306

 Broyden mixing:
  rms(total) = 0.25916E+00    rms(broyden)= 0.25914E+00
  rms(prec ) = 0.26104E+00
  weight for this iteration     100.00

 eigenvalues of (default mixing * dielectric matrix)
  average eigenvalue GAMMA=   1.3769
  2.5641  1.8406  1.0393  0.7985  0.6422

 Free energy of the ion-electron system (eV)
  ---------------------------------------------------
  alpha Z        PSCENC =         0.33654424
  Ewald energy   TEWEN  =      8137.37242178
  -Hartree energ DENC   =     -9765.42264151
  -exchange      EXHF   =         0.00000000
  -V(xc)+E(xc)   XCENC  =       229.75609198
  PAW double counting   =      5950.80356170    -5960.69969205
  entropy T*S    EENTRO =        -0.00000000
  eigenvalues    EBANDS =      -832.07316386
  atomic energy  EATOM  =      2209.91506195
  Solvation  Ediel_sol  =      -124.98586241
  ---------------------------------------------------
  free energy    TOTEN  =      -154.99767818 eV

  energy without entropy =     -154.99767818  energy(sigma->0) =     -154.99767818


--------------------------------------------------------------------------------------------------------




--------------------------------------- Iteration      1(   7)  ---------------------------------------


    POTLOK:  cpu time    337.7286: real time    337.7726
    SETDIJ:  cpu time      0.0342: real time      0.0342
    EDDIAG:  cpu time      5.4792: real time      5.4792
  RMM-DIIS:  cpu time     10.5646: real time     10.5645
    ORTHCH:  cpu time      1.3559: real time      1.3559
       DOS:  cpu time      0.3814: real time      0.3813
    CHARGE:  cpu time      9.3357: real time      9.3356
    MIXING:  cpu time      0.1409: real time      0.1409
    --------------------------------------------
      LOOP:  cpu time    365.0204: real time    365.0642

 eigenvalue-minimisations  :   240
 total energy-change (2. order) :-0.1929480E+01  (-0.1488599E+00)
 number of electron      66.9999992 magnetization      17.2359968
 augmentation part        1.5536978 magnetization      16.2499689

 Broyden mixing:
  rms(total) = 0.22699E+00    rms(broyden)= 0.22698E+00
  rms(prec ) = 0.22884E+00
  weight for this iteration     100.00

 eigenvalues of (default mixing * dielectric matrix)
  average eigenvalue GAMMA=   1.2895
  2.4453  2.1805  0.8730  0.8730  0.6825  0.6825

 Free energy of the ion-electron system (eV)
  ---------------------------------------------------
  alpha Z        PSCENC =         0.33654424
  Ewald energy   TEWEN  =      8137.37242178
  -Hartree energ DENC   =     -9759.46034664
  -exchange      EXHF   =         0.00000000
  -V(xc)+E(xc)   XCENC  =       228.38877100
  PAW double counting   =      5975.61043040    -5985.51652138
  entropy T*S    EENTRO =        -0.00000000
  eigenvalues    EBANDS =      -834.07989589
  atomic energy  EATOM  =      2209.91506195
  Solvation  Ediel_sol  =      -129.49362396
  ---------------------------------------------------
  free energy    TOTEN  =      -156.92715850 eV

  energy without entropy =     -156.92715850  energy(sigma->0) =     -156.92715850


--------------------------------------------------------------------------------------------------------




--------------------------------------- Iteration      1(   8)  ---------------------------------------


    POTLOK:  cpu time    337.2503: real time    337.2943
    SETDIJ:  cpu time      0.0362: real time      0.0362
    EDDIAG:  cpu time      5.7964: real time      5.7964
  RMM-DIIS:  cpu time     10.3884: real time     10.3884
    ORTHCH:  cpu time      1.3417: real time      1.3416
       DOS:  cpu time      0.1654: real time      0.1654
    CHARGE:  cpu time      8.7509: real time      8.7536
    MIXING:  cpu time      0.1347: real time      0.1347
    --------------------------------------------
      LOOP:  cpu time    363.8639: real time    363.9107

 eigenvalue-minimisations  :   240
 total energy-change (2. order) :-0.2656572E+01  (-0.1068630E+00)
 number of electron      66.9999992 magnetization      14.4550737
 augmentation part        1.5549045 magnetization      13.4805097

 Broyden mixing:
  rms(total) = 0.17089E+00    rms(broyden)= 0.17088E+00
  rms(prec ) = 0.17204E+00
  weight for this iteration     100.00

 eigenvalues of (default mixing * dielectric matrix)
  average eigenvalue GAMMA=   1.6362
  4.0560  2.6003  1.6521  1.0663  0.8157  0.6516  0.6118

 Free energy of the ion-electron system (eV)
  ---------------------------------------------------
  alpha Z        PSCENC =         0.33654424
  Ewald energy   TEWEN  =      8137.37242178
  -Hartree energ DENC   =     -9735.90088730
  -exchange      EXHF   =         0.00000000
  -V(xc)+E(xc)   XCENC  =       225.71971544
  PAW double counting   =      5838.58275314    -5848.41416487
  entropy T*S    EENTRO =        -0.00000000
  eigenvalues    EBANDS =      -852.08608578
  atomic energy  EATOM  =      2209.91506195
  Solvation  Ediel_sol  =      -135.10908939
  ---------------------------------------------------
  free energy    TOTEN  =      -159.58373081 eV

  energy without entropy =     -159.58373081  energy(sigma->0) =     -159.58373081


--------------------------------------------------------------------------------------------------------




--------------------------------------- Iteration      1(   9)  ---------------------------------------


    POTLOK:  cpu time    350.0984: real time    350.1318
    SETDIJ:  cpu time      0.0340: real time      0.0340
    EDDIAG:  cpu time      5.4242: real time      5.4241
  RMM-DIIS:  cpu time     11.3153: real time     11.3152
    ORTHCH:  cpu time      1.7289: real time      1.7288
       DOS:  cpu time      0.0067: real time      0.0067
    CHARGE:  cpu time      9.2027: real time      9.2026
    MIXING:  cpu time      0.1399: real time      0.1399
    --------------------------------------------
      LOOP:  cpu time    377.9500: real time    377.9832

 eigenvalue-minimisations  :   253
 total energy-change (2. order) :-0.1848495E+01  (-0.1752116E+00)
 number of electron      66.9999992 magnetization      13.5285108
 augmentation part        1.5477756 magnetization      12.5692934

 Broyden mixing:
  rms(total) = 0.11161E+00    rms(broyden)= 0.11160E+00
  rms(prec ) = 0.11264E+00
  weight for this iteration     100.00

 eigenvalues of (default mixing * dielectric matrix)
  average eigenvalue GAMMA=   1.6936
  5.2690  2.2305  2.0687  0.9605  0.8219  0.8219  0.6221  0.7545

 Free energy of the ion-electron system (eV)
  ---------------------------------------------------
  alpha Z        PSCENC =         0.33654424
  Ewald energy   TEWEN  =      8137.37242178
  -Hartree energ DENC   =     -9708.77588852
  -exchange      EXHF   =         0.00000000
  -V(xc)+E(xc)   XCENC  =       223.93470625
  PAW double counting   =      5743.38858265    -5753.20477376
  entropy T*S    EENTRO =        -0.00000000
  eigenvalues    EBANDS =      -867.63044774
  atomic energy  EATOM  =      2209.91506195
  Solvation  Ediel_sol  =      -146.76843230
  ---------------------------------------------------
  free energy    TOTEN  =      -161.43222547 eV

  energy without entropy =     -161.43222547  energy(sigma->0) =     -161.43222547


--------------------------------------------------------------------------------------------------------




--------------------------------------- Iteration      1(  10)  ---------------------------------------


    POTLOK:  cpu time    337.9607: real time    338.0052
    SETDIJ:  cpu time      0.0341: real time      0.0340
    EDDIAG:  cpu time      5.8341: real time      5.8341
  RMM-DIIS:  cpu time     10.5780: real time     10.5780
    ORTHCH:  cpu time      1.3720: real time      1.3719
       DOS:  cpu time      0.2029: real time      0.2031
    CHARGE:  cpu time      8.7541: real time      8.7541
    MIXING:  cpu time      0.1466: real time      0.1466
    --------------------------------------------
      LOOP:  cpu time    364.8824: real time    364.9271

 eigenvalue-minimisations  :   240
 total energy-change (2. order) :-0.9826689E+00  (-0.1815328E-01)
 number of electron      66.9999992 magnetization      12.2880026
 augmentation part        1.5466662 magnetization      11.3325645

 Broyden mixing:
  rms(total) = 0.77550E-01    rms(broyden)= 0.77547E-01
  rms(prec ) = 0.78186E-01
  weight for this iteration     100.00

 eigenvalues of (default mixing * dielectric matrix)
  average eigenvalue GAMMA=   1.7574
  6.3527  2.2049  2.2049  1.2339  0.8283  0.8283  0.8125  0.7356  0.6154

 Free energy of the ion-electron system (eV)
  ---------------------------------------------------
  alpha Z        PSCENC =         0.33654424
  Ewald energy   TEWEN  =      8137.37242178
  -Hartree energ DENC   =     -9705.70044950
  -exchange      EXHF   =         0.00000000
  -V(xc)+E(xc)   XCENC  =       223.10703592
  PAW double counting   =      5773.72157395    -5783.57585230
  entropy T*S    EENTRO =        -0.00000000
  eigenvalues    EBANDS =      -866.27948578
  atomic energy  EATOM  =      2209.91506195
  Solvation  Ediel_sol  =      -151.31174458
  ---------------------------------------------------
  free energy    TOTEN  =      -162.41489433 eV

  energy without entropy =     -162.41489433  energy(sigma->0) =     -162.41489433


--------------------------------------------------------------------------------------------------------




--------------------------------------- Iteration      1(  11)  ---------------------------------------


    POTLOK:  cpu time    327.3093: real time    327.3432
    SETDIJ:  cpu time      0.0338: real time      0.0338
    EDDIAG:  cpu time      5.4233: real time      5.4233
  RMM-DIIS:  cpu time     10.8079: real time     10.8078
    ORTHCH:  cpu time      1.3156: real time      1.3156
       DOS:  cpu time      0.0037: real time      0.0036
    CHARGE:  cpu time      9.1176: real time      9.1175
    MIXING:  cpu time      0.1571: real time      0.1571
    --------------------------------------------
      LOOP:  cpu time    354.1683: real time    354.2019

 eigenvalue-minimisations  :   245
 total energy-change (2. order) :-0.7761813E+00  (-0.1198569E-01)
 number of electron      66.9999992 magnetization      10.9261495
 augmentation part        1.5454038 magnetization       9.9741023

 Broyden mixing:
  rms(total) = 0.59647E-01    rms(broyden)= 0.59645E-01
  rms(prec ) = 0.59986E-01
  weight for this iteration     100.00

 eigenvalues of (default mixing * dielectric matrix)
  average eigenvalue GAMMA=   1.8632
  7.3859  2.3124  2.3124  1.8013  0.9630  0.9630  0.7981  0.7981  0.6186  0.6797

 Free energy of the ion-electron system (eV)
  ---------------------------------------------------
  alpha Z        PSCENC =         0.33654424
  Ewald energy   TEWEN  =      8137.37242178
  -Hartree energ DENC   =     -9699.59017231
  -exchange      EXHF   =         0.00000000
  -V(xc)+E(xc)   XCENC  =       222.34728038
  PAW double counting   =      5773.17443168    -5783.04812460
  entropy T*S    EENTRO =        -0.00000000
  eigenvalues    EBANDS =      -867.29838548
  atomic energy  EATOM  =      2209.91506195
  Solvation  Ediel_sol  =      -156.40013329
  ---------------------------------------------------
  free energy    TOTEN  =      -163.19107565 eV

  energy without entropy =     -163.19107565  energy(sigma->0) =     -163.19107565


--------------------------------------------------------------------------------------------------------




--------------------------------------- Iteration      1(  12)  ---------------------------------------


    POTLOK:  cpu time    342.0971: real time    342.1424
    SETDIJ:  cpu time      0.0344: real time      0.0344
    EDDIAG:  cpu time      6.0641: real time      6.0641
  RMM-DIIS:  cpu time     10.7592: real time     10.7592
    ORTHCH:  cpu time      0.9495: real time      0.9495
       DOS:  cpu time      0.3257: real time      0.3257
    CHARGE:  cpu time      9.1269: real time      9.1269
    MIXING:  cpu time      0.1620: real time      0.1620
    --------------------------------------------
      LOOP:  cpu time    369.5189: real time    369.5642

 eigenvalue-minimisations  :   251
 total energy-change (2. order) :-0.3914202E+00  (-0.4649253E-02)
 number of electron      66.9999992 magnetization       9.4854702
 augmentation part        1.5444648 magnetization       8.5358325

 Broyden mixing:
  rms(total) = 0.46923E-01    rms(broyden)= 0.46922E-01
  rms(prec ) = 0.47104E-01
  weight for this iteration     100.00

 eigenvalues of (default mixing * dielectric matrix)
  average eigenvalue GAMMA=   1.9334
  8.1256  2.9190  2.1810  2.1810  1.1664  0.9135  0.9135  0.7948  0.7948  0.6211
  0.6569

 Free energy of the ion-electron system (eV)
  ---------------------------------------------------
  alpha Z        PSCENC =         0.33654424
  Ewald energy   TEWEN  =      8137.37242178
  -Hartree energ DENC   =     -9692.90234683
  -exchange      EXHF   =         0.00000000
  -V(xc)+E(xc)   XCENC  =       221.88778419
  PAW double counting   =      5757.96987116    -5767.84941102
  entropy T*S    EENTRO =        -0.00000000
  eigenvalues    EBANDS =      -869.21585975
  atomic energy  EATOM  =      2209.91506195
  Solvation  Ediel_sol  =      -161.09656155
  ---------------------------------------------------
  free energy    TOTEN  =      -163.58249584 eV

  energy without entropy =     -163.58249584  energy(sigma->0) =     -163.58249584


--------------------------------------------------------------------------------------------------------




--------------------------------------- Iteration      1(  13)  ---------------------------------------


    POTLOK:  cpu time    316.9536: real time    317.0020
    SETDIJ:  cpu time      0.0336: real time      0.0336
    EDDIAG:  cpu time      5.4029: real time      5.4029
  RMM-DIIS:  cpu time     10.3577: real time     10.3577
    ORTHCH:  cpu time      1.7398: real time      1.7398
       DOS:  cpu time      0.1821: real time      0.1821
    CHARGE:  cpu time      8.7488: real time      8.7488
    MIXING:  cpu time      0.1629: real time      0.1629
    --------------------------------------------
      LOOP:  cpu time    343.5813: real time    343.6297

 eigenvalue-minimisations  :   240
 total energy-change (2. order) :-0.1039179E+00  (-0.1148991E-02)
 number of electron      66.9999992 magnetization       8.2513107
 augmentation part        1.5448056 magnetization       7.3024192

 Broyden mixing:
  rms(total) = 0.36545E-01    rms(broyden)= 0.36545E-01
  rms(prec ) = 0.36592E-01
  weight for this iteration     100.00

 eigenvalues of (default mixing * dielectric matrix)
  average eigenvalue GAMMA=   2.0458
  9.0411  3.9821  2.2212  2.2212  1.4757  1.0036  1.0036  0.8131  0.7628  0.7628
  0.6241  0.6383

 Free energy of the ion-electron system (eV)
  ---------------------------------------------------
  alpha Z        PSCENC =         0.33654424
  Ewald energy   TEWEN  =      8137.37242178
  -Hartree energ DENC   =     -9687.66269148
  -exchange      EXHF   =         0.00000000
  -V(xc)+E(xc)   XCENC  =       221.74702865
  PAW double counting   =      5770.90366242    -5780.77365201
  entropy T*S    EENTRO =        -0.00000000
  eigenvalues    EBANDS =      -870.08573059
  atomic energy  EATOM  =      2209.91506195
  Solvation  Ediel_sol  =      -165.43905872
  ---------------------------------------------------
  free energy    TOTEN  =      -163.68641378 eV

  energy without entropy =     -163.68641378  energy(sigma->0) =     -163.68641378


--------------------------------------------------------------------------------------------------------




--------------------------------------- Iteration      1(  14)  ---------------------------------------


    POTLOK:  cpu time    321.2523: real time    321.2942
    SETDIJ:  cpu time      0.0331: real time      0.0331
    EDDIAG:  cpu time      6.0515: real time      6.0515
  RMM-DIIS:  cpu time     10.6240: real time     10.6241
    ORTHCH:  cpu time      1.3179: real time      1.3179
       DOS:  cpu time      0.2143: real time      0.2143
    CHARGE:  cpu time      9.1190: real time      9.1190
    MIXING:  cpu time      0.1715: real time      0.1716
    --------------------------------------------
      LOOP:  cpu time    348.7836: real time    348.8256

 eigenvalue-minimisations  :   242
 total energy-change (2. order) :-0.9539645E-01  (-0.4564935E-03)
 number of electron      66.9999992 magnetization       7.2128376
 augmentation part        1.5450140 magnetization       6.2643172

 Broyden mixing:
  rms(total) = 0.31181E-01    rms(broyden)= 0.31181E-01
  rms(prec ) = 0.31226E-01
  weight for this iteration     100.00

 eigenvalues of (default mixing * dielectric matrix)
  average eigenvalue GAMMA=   2.0800
  9.6218  4.6243  2.1787  2.1787  1.7710  1.1959  0.9367  0.9367  0.8085  0.8085
  0.7191  0.6302  0.6302

 Free energy of the ion-electron system (eV)
  ---------------------------------------------------
  alpha Z        PSCENC =         0.33654424
  Ewald energy   TEWEN  =      8137.37242178
  -Hartree energ DENC   =     -9684.75100475
  -exchange      EXHF   =         0.00000000
  -V(xc)+E(xc)   XCENC  =       221.64073129
  PAW double counting   =      5782.81833718    -5792.68546178
  entropy T*S    EENTRO =        -0.00000000
  eigenvalues    EBANDS =      -869.99912216
  atomic energy  EATOM  =      2209.91506195
  Solvation  Ediel_sol  =      -168.42931796
  ---------------------------------------------------
  free energy    TOTEN  =      -163.78181023 eV

  energy without entropy =     -163.78181023  energy(sigma->0) =     -163.78181023


--------------------------------------------------------------------------------------------------------




--------------------------------------- Iteration      1(  15)  ---------------------------------------


    POTLOK:  cpu time    326.9835: real time    327.0239
    SETDIJ:  cpu time      0.0334: real time      0.0334
    EDDIAG:  cpu time      5.7837: real time      5.7838
  RMM-DIIS:  cpu time     10.7005: real time     10.7005
    ORTHCH:  cpu time      1.6207: real time      1.6207
       DOS:  cpu time      0.1160: real time      0.1160
    CHARGE:  cpu time      8.7344: real time      8.7344
    MIXING:  cpu time      0.1811: real time      0.1811
    --------------------------------------------
      LOOP:  cpu time    354.1534: real time    354.1939

 eigenvalue-minimisations  :   242
 total energy-change (2. order) :-0.8264213E-01  (-0.1786343E-03)
 number of electron      66.9999992 magnetization       5.5088356
 augmentation part        1.5451297 magnetization       4.5606838

 Broyden mixing:
  rms(total) = 0.26006E-01    rms(broyden)= 0.26006E-01
  rms(prec ) = 0.26033E-01
  weight for this iteration     100.00

 eigenvalues of (default mixing * dielectric matrix)
  average eigenvalue GAMMA=   2.1668
 10.2133  5.3281  2.3644  2.3644  2.2356  1.3816  0.9756  0.9756  0.9434  0.7979
  0.7979  0.7003  0.6286  0.6286

 Free energy of the ion-electron system (eV)
  ---------------------------------------------------
  alpha Z        PSCENC =         0.33654424
  Ewald energy   TEWEN  =      8137.37242178
  -Hartree energ DENC   =     -9683.54140079
  -exchange      EXHF   =         0.00000000
  -V(xc)+E(xc)   XCENC  =       221.53596245
  PAW double counting   =      5778.48218228    -5788.35116825
  entropy T*S    EENTRO =        -0.00000000
  eigenvalues    EBANDS =      -869.98505746
  atomic energy  EATOM  =      2209.91506195
  Solvation  Ediel_sol  =      -169.62899855
  ---------------------------------------------------
  free energy    TOTEN  =      -163.86445236 eV

  energy without entropy =     -163.86445236  energy(sigma->0) =     -163.86445236


--------------------------------------------------------------------------------------------------------




--------------------------------------- Iteration      1(  16)  ---------------------------------------


    POTLOK:  cpu time    316.7680: real time    316.8090
    SETDIJ:  cpu time      0.0347: real time      0.0347
    EDDIAG:  cpu time      6.3343: real time      6.3342
  RMM-DIIS:  cpu time     10.4114: real time     10.4113
    ORTHCH:  cpu time      1.1309: real time      1.1309
       DOS:  cpu time      0.0057: real time      0.0057
    CHARGE:  cpu time      9.3116: real time      9.3115
    MIXING:  cpu time      0.1969: real time      0.1969
    --------------------------------------------
      LOOP:  cpu time    344.1935: real time    344.2342

 eigenvalue-minimisations  :   241
 total energy-change (2. order) :-0.2734395E-01  (-0.1395324E-03)
 number of electron      66.9999992 magnetization       4.4024034
 augmentation part        1.5452367 magnetization       3.4544826

 Broyden mixing:
  rms(total) = 0.20581E-01    rms(broyden)= 0.20581E-01
  rms(prec ) = 0.20634E-01
  weight for this iteration     100.00

 eigenvalues of (default mixing * dielectric matrix)
  average eigenvalue GAMMA=   2.2338
 10.9003  6.1419  3.1234  2.2177  2.2177  1.4751  1.1384  0.9586  0.9586  0.8791
  0.7702  0.7702  0.7008  0.6279  0.6279

 Free energy of the ion-electron system (eV)
  ---------------------------------------------------
  alpha Z        PSCENC =         0.33654424
  Ewald energy   TEWEN  =      8137.37242178
  -Hartree energ DENC   =     -9682.55218086
  -exchange      EXHF   =         0.00000000
  -V(xc)+E(xc)   XCENC  =       221.50064972
  PAW double counting   =      5778.10376439    -5787.97212048
  entropy T*S    EENTRO =        -0.00000000
  eigenvalues    EBANDS =      -869.78161151
  atomic energy  EATOM  =      2209.91506195
  Solvation  Ediel_sol  =      -170.81432553
  ---------------------------------------------------
  free energy    TOTEN  =      -163.89179630 eV

  energy without entropy =     -163.89179630  energy(sigma->0) =     -163.89179630


--------------------------------------------------------------------------------------------------------




--------------------------------------- Iteration      1(  17)  ---------------------------------------


    POTLOK:  cpu time    309.8738: real time    309.9031
    SETDIJ:  cpu time      0.0349: real time      0.0348
    EDDIAG:  cpu time      5.7852: real time      5.7853
  RMM-DIIS:  cpu time     10.4410: real time     10.4411
    ORTHCH:  cpu time      1.2482: real time      1.2482
       DOS:  cpu time      0.3431: real time      0.3431
    CHARGE:  cpu time      8.8369: real time      8.8369
    MIXING:  cpu time      0.1966: real time      0.1966
    --------------------------------------------
      LOOP:  cpu time    336.7597: real time    336.7891

 eigenvalue-minimisations  :   240
 total energy-change (2. order) :-0.1808502E-01  (-0.7310710E-04)
 number of electron      66.9999992 magnetization       2.6647050
 augmentation part        1.5452984 magnetization       1.7169342

 Broyden mixing:
  rms(total) = 0.16369E-01    rms(broyden)= 0.16369E-01
  rms(prec ) = 0.16428E-01
  weight for this iteration     100.00

 eigenvalues of (default mixing * dielectric matrix)
  average eigenvalue GAMMA=   2.3724
 12.0298  7.1120  3.7685  2.2622  2.2622  1.9027  1.3096  1.0902  0.9696  0.9696
  0.7810  0.7810  0.7862  0.6788  0.6277  0.6277

 Free energy of the ion-electron system (eV)
  ---------------------------------------------------
  alpha Z        PSCENC =         0.33654424
  Ewald energy   TEWEN  =      8137.37242178
  -Hartree energ DENC   =     -9682.51631745
  -exchange      EXHF   =         0.00000000
  -V(xc)+E(xc)   XCENC  =       221.49316077
  PAW double counting   =      5780.26834546    -5790.13603888
  entropy T*S    EENTRO =        -0.00000000
  eigenvalues    EBANDS =      -869.62055431
  atomic energy  EATOM  =      2209.91506195
  Solvation  Ediel_sol  =      -171.02250488
  ---------------------------------------------------
  free energy    TOTEN  =      -163.90988132 eV

  energy without entropy =     -163.90988132  energy(sigma->0) =     -163.90988132


--------------------------------------------------------------------------------------------------------




--------------------------------------- Iteration      1(  18)  ---------------------------------------


    POTLOK:  cpu time    293.1185: real time    293.1623
    SETDIJ:  cpu time      0.0335: real time      0.0335
    EDDIAG:  cpu time      6.4663: real time      6.4662
  RMM-DIIS:  cpu time     10.4452: real time     10.4451
    ORTHCH:  cpu time      1.4599: real time      1.4598
       DOS:  cpu time      0.0010: real time      0.0010
    CHARGE:  cpu time      9.3780: real time      9.3779
    MIXING:  cpu time      0.2057: real time      0.2057
    --------------------------------------------
      LOOP:  cpu time    321.1082: real time    321.1516

 eigenvalue-minimisations  :   240
 total energy-change (2. order) :-0.1200192E-01  (-0.1458521E-03)
 number of electron      66.9999992 magnetization       1.8399785
 augmentation part        1.5453112 magnetization       0.8923544

 Broyden mixing:
  rms(total) = 0.97479E-02    rms(broyden)= 0.97478E-02
  rms(prec ) = 0.98320E-02
  weight for this iteration     100.00

 eigenvalues of (default mixing * dielectric matrix)
  average eigenvalue GAMMA=   2.6143
 15.0554  8.4040  4.5482  2.2978  2.2978  2.2475  1.3688  0.9827  0.9827  1.0689
  0.9487  0.7935  0.7935  0.7377  0.6288  0.6288  0.6579

 Free energy of the ion-electron system (eV)
  ---------------------------------------------------
  alpha Z        PSCENC =         0.33654424
  Ewald energy   TEWEN  =      8137.37242178
  -Hartree energ DENC   =     -9683.16221088
  -exchange      EXHF   =         0.00000000
  -V(xc)+E(xc)   XCENC  =       221.49490743
  PAW double counting   =      5775.88046840    -5785.75092478
  entropy T*S    EENTRO =        -0.00000000
  eigenvalues    EBANDS =      -869.55599782
  atomic energy  EATOM  =      2209.91506195
  Solvation  Ediel_sol  =      -170.45215355
  ---------------------------------------------------
  free energy    TOTEN  =      -163.92188324 eV

  energy without entropy =     -163.92188324  energy(sigma->0) =     -163.92188324


--------------------------------------------------------------------------------------------------------




--------------------------------------- Iteration      1(  19)  ---------------------------------------


    POTLOK:  cpu time    298.9827: real time    299.0237
    SETDIJ:  cpu time      0.0355: real time      0.0354
    EDDIAG:  cpu time      5.7961: real time      5.7960
  RMM-DIIS:  cpu time     10.7325: real time     10.7325
    ORTHCH:  cpu time      1.1807: real time      1.1807
       DOS:  cpu time      0.3838: real time      0.3838
    CHARGE:  cpu time      8.8066: real time      8.8065
    MIXING:  cpu time      0.2145: real time      0.2145
    --------------------------------------------
      LOOP:  cpu time    326.1323: real time    326.1733

 eigenvalue-minimisations  :   244
 total energy-change (2. order) :-0.1373333E-01  (-0.1217311E-03)
 number of electron      66.9999992 magnetization       1.3779742
 augmentation part        1.5453070 magnetization       0.4304498

 Broyden mixing:
  rms(total) = 0.66585E-02    rms(broyden)= 0.66584E-02
  rms(prec ) = 0.67424E-02
  weight for this iteration     100.00

 eigenvalues of (default mixing * dielectric matrix)
  average eigenvalue GAMMA=   2.7944
 18.4312  9.0128  4.9227  2.5957  2.2334  2.2334  1.4474  1.2714  1.1700  0.9691
  0.9691  0.8686  0.7781  0.7781  0.7227  0.6296  0.6332  0.6332

 Free energy of the ion-electron system (eV)
  ---------------------------------------------------
  alpha Z        PSCENC =         0.33654424
  Ewald energy   TEWEN  =      8137.37242178
  -Hartree energ DENC   =     -9683.66444358
  -exchange      EXHF   =         0.00000000
  -V(xc)+E(xc)   XCENC  =       221.47943872
  PAW double counting   =      5771.96203628    -5781.83411751
  entropy T*S    EENTRO =        -0.00000000
  eigenvalues    EBANDS =      -869.60892779
  atomic energy  EATOM  =      2209.91506195
  Solvation  Ediel_sol  =      -169.89363065
  ---------------------------------------------------
  free energy    TOTEN  =      -163.93561657 eV

  energy without entropy =     -163.93561657  energy(sigma->0) =     -163.93561657


--------------------------------------------------------------------------------------------------------




--------------------------------------- Iteration      1(  20)  ---------------------------------------


    POTLOK:  cpu time    299.0254: real time    299.0641
    SETDIJ:  cpu time      0.0330: real time      0.0330
    EDDIAG:  cpu time      5.6037: real time      5.6036
  RMM-DIIS:  cpu time     10.2231: real time     10.2230
    ORTHCH:  cpu time      1.2506: real time      1.2506
       DOS:  cpu time      0.1785: real time      0.1785
    CHARGE:  cpu time      9.0050: real time      9.0049
    MIXING:  cpu time      0.2241: real time      0.2241
    --------------------------------------------
      LOOP:  cpu time    325.5434: real time    325.5817

 eigenvalue-minimisations  :   239
 total energy-change (2. order) :-0.2094304E-01  (-0.4149352E-04)
 number of electron      66.9999992 magnetization       1.1262221
 augmentation part        1.5452718 magnetization       0.1787432

 Broyden mixing:
  rms(total) = 0.38353E-02    rms(broyden)= 0.38352E-02
  rms(prec ) = 0.39022E-02
  weight for this iteration     100.00

 eigenvalues of (default mixing * dielectric matrix)
  average eigenvalue GAMMA=   3.0238
 22.7496  9.4435  5.3277  3.0804  2.2759  2.2759  1.9162  1.2296  1.2296  0.9862
  0.9862  0.9766  0.8225  0.7822  0.7822  0.7049  0.6287  0.6287  0.6247

 Free energy of the ion-electron system (eV)
  ---------------------------------------------------
  alpha Z        PSCENC =         0.33654424
  Ewald energy   TEWEN  =      8137.37242178
  -Hartree energ DENC   =     -9684.15813006
  -exchange      EXHF   =         0.00000000
  -V(xc)+E(xc)   XCENC  =       221.46039130
  PAW double counting   =      5774.72213520    -5784.59212122
  entropy T*S    EENTRO =        -0.00000000
  eigenvalues    EBANDS =      -869.59496350
  atomic energy  EATOM  =      2209.91506195
  Solvation  Ediel_sol  =      -169.41789928
  ---------------------------------------------------
  free energy    TOTEN  =      -163.95655961 eV

  energy without entropy =     -163.95655961  energy(sigma->0) =     -163.95655961


--------------------------------------------------------------------------------------------------------




--------------------------------------- Iteration      1(  21)  ---------------------------------------


    POTLOK:  cpu time    299.6351: real time    299.6842
    SETDIJ:  cpu time      0.0339: real time      0.0339
    EDDIAG:  cpu time      5.8800: real time      5.8800
  RMM-DIIS:  cpu time     10.3404: real time     10.3405
    ORTHCH:  cpu time      1.3841: real time      1.3841
       DOS:  cpu time      0.2034: real time      0.2034
    CHARGE:  cpu time      9.4504: real time      9.4503
    MIXING:  cpu time      0.2536: real time      0.2535
    --------------------------------------------
      LOOP:  cpu time    327.1809: real time    327.2299

 eigenvalue-minimisations  :   231
 total energy-change (2. order) :-0.1552775E-01  (-0.2678745E-04)
 number of electron      66.9999992 magnetization       1.0715294
 augmentation part        1.5452270 magnetization       0.1240517

 Broyden mixing:
  rms(total) = 0.25888E-02    rms(broyden)= 0.25887E-02
  rms(prec ) = 0.26294E-02
  weight for this iteration     100.00

 eigenvalues of (default mixing * dielectric matrix)
  average eigenvalue GAMMA=   3.0250
 24.1667  9.5522  5.4826  3.3360  2.2545  2.2545  2.0139  1.3309  1.1825  1.1825
  0.9649  0.9649  0.9137  0.7808  0.7808  0.7792  0.6800  0.6288  0.6288  0.6207

 Free energy of the ion-electron system (eV)
  ---------------------------------------------------
  alpha Z        PSCENC =         0.33654424
  Ewald energy   TEWEN  =      8137.37242178
  -Hartree energ DENC   =     -9684.56715993
  -exchange      EXHF   =         0.00000000
  -V(xc)+E(xc)   XCENC  =       221.45124693
  PAW double counting   =      5778.22544755    -5788.09459699
  entropy T*S    EENTRO =        -0.00000000
  eigenvalues    EBANDS =      -869.52306412
  atomic energy  EATOM  =      2209.91506195
  Solvation  Ediel_sol  =      -169.08798877
  ---------------------------------------------------
  free energy    TOTEN  =      -163.97208737 eV

  energy without entropy =     -163.97208737  energy(sigma->0) =     -163.97208737


--------------------------------------------------------------------------------------------------------




--------------------------------------- Iteration      1(  22)  ---------------------------------------


    POTLOK:  cpu time    282.8673: real time    282.9058
    SETDIJ:  cpu time      0.0339: real time      0.0339
    EDDIAG:  cpu time      5.8972: real time      5.8971
  RMM-DIIS:  cpu time      9.4971: real time      9.4970
    ORTHCH:  cpu time      1.3280: real time      1.3280
       DOS:  cpu time      0.1927: real time      0.1927
    CHARGE:  cpu time      9.6314: real time      9.6313
    MIXING:  cpu time      0.2565: real time      0.2565
    --------------------------------------------
      LOOP:  cpu time    309.7041: real time    309.7423

 eigenvalue-minimisations  :   216
 total energy-change (2. order) :-0.7885243E-02  (-0.1231161E-04)
 number of electron      66.9999992 magnetization       1.0319388
 augmentation part        1.5452019 magnetization       0.0844843

 Broyden mixing:
  rms(total) = 0.16691E-02    rms(broyden)= 0.16691E-02
  rms(prec ) = 0.17019E-02
  weight for this iteration     100.00

 eigenvalues of (default mixing * dielectric matrix)
  average eigenvalue GAMMA=   3.0292
 24.9966  9.6373  5.6285  3.6459  2.3577  2.3577  2.1233  1.6838  1.2353  1.2353
  1.0714  0.9723  0.9723  0.8336  0.7909  0.7909  0.7329  0.6722  0.6261  0.6261
  0.6226

 Free energy of the ion-electron system (eV)
  ---------------------------------------------------
  alpha Z        PSCENC =         0.33654424
  Ewald energy   TEWEN  =      8137.37242178
  -Hartree energ DENC   =     -9684.65442876
  -exchange      EXHF   =         0.00000000
  -V(xc)+E(xc)   XCENC  =       221.44096050
  PAW double counting   =      5777.06174544    -5786.93127123
  entropy T*S    EENTRO =        -0.00000000
[...]
  eigenvalues    EBANDS =      -869.43999981
  atomic energy  EATOM  =      2209.91506195
  Solvation  Ediel_sol  =      -168.42860345
  ---------------------------------------------------
  free energy    TOTEN  =      -163.99334718 eV

  energy without entropy =     -163.99334718  energy(sigma->0) =     -163.99334718


--------------------------------------------------------------------------------------------------------




 average (electrostatic) potential at core
  the test charge radii are     0.6991  0.5201
  (the norm of the test charge is              1.0000)
       1 -59.6055       2 -60.1326       3 -59.6363       4 -59.4003       5 -59.6261
       6 -59.4228       7 -60.6253       8 -60.1810       9 -60.1323      10 -59.6045
      11 -59.4222      12 -59.6262      13 -59.4008      14 -59.6364      15 -42.4547
      16 -42.5224      17 -42.4510      18 -42.6490      19 -43.0406      20 -43.0408
      21 -42.6499      22 -42.4521      23 -42.5231      24 -42.4538      25 -42.6530
      26 -42.6547
 
 
 
 E-fermi :  -6.4192     XC(G=0):  -0.0537     alpha+bet : -0.0270

 Fermi energy:        -6.4191759511

 spin component 1

 k-point     1 :       0.0000    0.0000    0.0000
  band No.  band energies     occupation 
      1     -22.6122      1.00000
      2     -21.9599      1.00000
      3     -20.9745      1.00000
      4     -19.2960      1.00000
      5     -19.2698      1.00000
      6     -19.0721      1.00000
      7     -18.6789      1.00000
      8     -16.5901      1.00000
      9     -15.7630      1.00000
     10     -15.4902      1.00000
     11     -15.3595      1.00000
     12     -14.3043      1.00000
     13     -13.5862      1.00000
     14     -12.9928      1.00000
     15     -12.1342      1.00000
     16     -12.1038      1.00000
     17     -11.6621      1.00000
     18     -11.3979      1.00000
     19     -11.3461      1.00000
     20     -10.8657      1.00000
     21     -10.8586      1.00000
     22     -10.8158      1.00000
     23     -10.0874      1.00000
     24      -9.9926      1.00000
     25      -9.8622      1.00000
     26      -9.1987      1.00000
     27      -8.9490      1.00000
     28      -8.8740      1.00000
     29      -8.7035      1.00000
     30      -8.4908      1.00000
     31      -7.2440      1.00000
     32      -7.1566      1.00000
     33      -7.0192      1.00000
     34      -6.6549      1.00000
     35      -3.4222      0.00000
     36      -2.2832      0.00000
     37      -2.0467      0.00000
     38      -1.6863      0.00000
     39      -0.7425      0.00000
     40      -0.5611      0.00000
     41      -0.2489      0.00000
     42      -0.1083      0.00000
     43      -0.0318      0.00000
     44      -0.0039      0.00000
     45       0.0712      0.00000
     46       0.0812      0.00000
     47       0.0938      0.00000
     48       0.0962      0.00000
     49       0.1000      0.00000
     50       0.1080      0.00000
     51       0.1444      0.00000
     52       0.1521      0.00000
     53       0.1629      0.00000
     54       0.1705      0.00000
     55       0.1742      0.00000
     56       0.1761      0.00000
     57       0.1781      0.00000
     58       0.1784      0.00000
     59       0.2089      0.00000
     60       0.2097      0.00000
 Fermi energy:        -6.4191759511

 spin component 2

 k-point     1 :       0.0000    0.0000    0.0000
  band No.  band energies     occupation 
      1     -22.5219      1.00000
      2     -21.8963      1.00000
      3     -20.8493      1.00000
      4     -19.2441      1.00000
      5     -19.2092      1.00000
      6     -19.0118      1.00000
      7     -18.4341      1.00000
      8     -16.4605      1.00000
      9     -15.7156      1.00000
     10     -15.4183      1.00000
     11     -15.3185      1.00000
     12     -14.2393      1.00000
     13     -13.5621      1.00000
     14     -12.9359      1.00000
     15     -12.0913      1.00000
     16     -12.0556      1.00000
     17     -11.6157      1.00000
     18     -11.3307      1.00000
     19     -11.3032      1.00000
     20     -10.8431      1.00000
     21     -10.8078      1.00000
     22     -10.7931      1.00000
     23     -10.0253      1.00000
     24      -9.8406      1.00000
     25      -9.7212      1.00000
     26      -9.1827      1.00000
     27      -8.9324      1.00000
     28      -8.7619      1.00000
     29      -8.6750      1.00000
     30      -8.2170      1.00000
     31      -7.1310      1.00000
     32      -6.9696      1.00000
     33      -6.9596      1.00000
     34      -5.9759      0.00000
     35      -2.8528      0.00000
     36      -2.0938      0.00000
     37      -1.9575      0.00000
     38      -1.5917      0.00000
     39      -0.5398      0.00000
     40      -0.4772      0.00000
     41      -0.2397      0.00000
     42      -0.0855      0.00000
     43      -0.0154      0.00000
     44      -0.0024      0.00000
     45       0.0743      0.00000
     46       0.0817      0.00000
     47       0.0961      0.00000
     48       0.0978      0.00000
     49       0.1015      0.00000
     50       0.1091      0.00000
     51       0.1508      0.00000
     52       0.1541      0.00000
     53       0.1678      0.00000
     54       0.1692      0.00000
     55       0.1736      0.00000
     56       0.1770      0.00000
     57       0.1778      0.00000
     58       0.1783      0.00000
     59       0.2089      0.00000
     60       0.2123      0.00000


--------------------------------------------------------------------------------------------------------


 soft charge-density along one line, spin component           1
         0         1         2         3         4         5         6         7         8         9
 total charge-density along one line
 
 soft charge-density along one line, spin component           2
         0         1         2         3         4         5         6         7         8         9
 total charge-density along one line
 
 pseudopotential strength for first ion, spin component:           1
 10.309  13.711   0.002  -0.001  -0.001  -0.006   0.002   0.003
 13.711  18.236   0.002  -0.001  -0.001  -0.008   0.003   0.003
  0.002   0.002  -4.421   0.000   0.000   8.649   0.002  -0.001
 -0.001  -0.001   0.000  -4.421   0.000   0.002   8.650  -0.001
 -0.001  -0.001   0.000   0.000  -4.425  -0.001  -0.001   8.653
 -0.006  -0.008   8.649   0.002  -0.001 -19.058  -0.007   0.005
  0.002   0.003   0.002   8.650  -0.001  -0.007 -19.066   0.005
  0.003   0.003  -0.001  -0.001   8.653   0.005   0.005 -19.065
 pseudopotential strength for first ion, spin component:           2
 10.302  13.702   0.002  -0.001  -0.001  -0.006   0.003   0.002
 13.702  18.223   0.002  -0.001  -0.001  -0.007   0.004   0.003
  0.002   0.002  -4.420   0.002  -0.001   8.648  -0.003   0.000
 -0.001  -0.001   0.002  -4.417  -0.002  -0.003   8.644   0.003
 -0.001  -0.001  -0.001  -0.002  -4.424   0.000   0.003   8.653
 -0.006  -0.007   8.648  -0.003   0.000 -19.060   0.001   0.001
  0.003   0.004  -0.003   8.644   0.003   0.001 -19.057  -0.003
  0.002   0.003   0.000   0.003   8.653   0.001  -0.003 -19.067
 total augmentation occupancy for first ion, spin component:           1
  7.784  -3.367   0.220  -0.077   0.054   0.044  -0.018   0.007
 -3.367   1.502  -0.152   0.057  -0.019  -0.027   0.012  -0.003
  0.220  -0.152   1.613  -0.268   0.129   0.130  -0.035   0.015
 -0.077   0.057  -0.268   1.318   0.151  -0.035   0.091   0.022
  0.054  -0.019   0.129   0.151   1.786   0.015   0.022   0.162
  0.044  -0.027   0.130  -0.035   0.015   0.011  -0.004   0.002
 -0.018   0.012  -0.035   0.091   0.022  -0.004   0.007   0.003
  0.007  -0.003   0.015   0.022   0.162   0.002   0.003   0.016
 total augmentation occupancy for first ion, spin component:           2
  0.005  -0.002   0.001   0.000  -0.003   0.000  -0.000  -0.001
 -0.002   0.001  -0.000   0.003   0.002  -0.000   0.000   0.000
  0.001  -0.000   0.008   0.015  -0.007   0.000   0.000  -0.000
  0.000   0.003   0.015   0.031  -0.017   0.000   0.001  -0.000
 -0.003   0.002  -0.007  -0.017   0.008  -0.000  -0.000   0.000
  0.000  -0.000   0.000   0.000  -0.000   0.000   0.000  -0.000
 -0.000   0.000   0.000   0.001  -0.000   0.000   0.000   0.000
 -0.001   0.000  -0.000  -0.000   0.000  -0.000   0.000   0.000


------------------------ aborting loop because EDIFF is reached ----------------------------------------


    CHARGE:  cpu time      9.1839: real time      9.1839
    FORLOC:  cpu time      0.3122: real time      0.3122
    FORNL :  cpu time      4.7421: real time      4.7421
    STRESS:  cpu time     14.3842: real time     14.3840
    FORCOR:  cpu time     12.6124: real time     12.6123
    FORHAR:  cpu time      2.3563: real time      2.3563
    MIXING:  cpu time      0.0903: real time      0.0903
    OFIELD:  cpu time      0.0000: real time      0.0000

 ---------------------------------------------------------------------------------------------

         DFTD3 V3.0 Rev 1        
 Edisp (eV)   -0.34310

 E6    (eV) :    -0.1572
 E8    (eV) :    -0.1859
 % E8        : 54.18
    FORVDW:  cpu time      0.0142: real time      0.0146

  FORCE on cell =-STRESS in cart. coord.  units (eV):
  Direction    XX          YY          ZZ          XY          YZ          ZX
  --------------------------------------------------------------------------------------
  Alpha Z     0.33654     0.33654     0.33654
  Ewald    5104.06448  2729.37699   299.75871    -0.02233     0.02532   473.24681
  Hartree  5098.34390  3090.99672  1491.69774    -0.00039     0.00046   234.61637
  E(xc)    -240.90333  -242.22843  -246.30145     0.00000    -0.00000     1.37344
  Local  -10827.18826 -6463.26892 -2493.80377     0.01837    -0.02216  -685.34146
  n-local   -83.18179   -81.07080   -74.00165     0.00001    -0.00020    -2.59641
  augment    -3.59760    -3.53511    -3.38297     0.00002     0.00000    -0.07530
  Kinetic   952.91979   969.94407  1024.24382     0.00132     0.00050   -20.39515
  Fock        0.00000     0.00000     0.00000     0.00000     0.00000     0.00000
  vdW        -0.12835    -0.01027     0.01735    -0.00000    -0.00000     0.02894
  -------------------------------------------------------------------------------------
  Total       0.66538     0.54080    -1.43568     0.00000     0.00000     0.85723
  in kB       0.01666     0.01354    -0.03594     0.00000     0.00000     0.02146
  external pressure =       -0.00 kB  Pullay stress =        0.00 kB


 VOLUME and BASIS-vectors are now :
 -----------------------------------------------------------------------------
  energy-cutoff  :      500.00
  volume of cell :    64000.00
      direct lattice vectors                 reciprocal lattice vectors
    40.000000000  0.000000000  0.000000000     0.025000000  0.000000000  0.000000000
     0.000000000 40.000000000  0.000000000     0.000000000  0.025000000  0.000000000
     0.000000000  0.000000000 40.000000000     0.000000000  0.000000000  0.025000000

  length of vectors
    40.000000000 40.000000000 40.000000000     0.025000000  0.025000000  0.025000000


 FORCES acting on ions
    electron-ion (+dipol)            ewald-force                    non-local-force                 convergence-correction
 -----------------------------------------------------------------------------------------------
   -.102E+03 0.147E+03 -.101E+03   0.103E+03 -.148E+03 0.102E+03   -.805E+00 0.187E+01 -.890E+00   -.536E-02 0.332E-03 -.849E-03
   -.368E+02 0.379E+02 0.357E+01   0.382E+02 -.371E+02 -.382E+01   -.853E+00 -.288E+00 0.730E-01   -.369E-02 0.100E-02 0.614E-03
   0.271E+02 -.116E+03 0.120E+03   -.277E+02 0.118E+03 -.121E+03   0.131E+01 -.149E+01 0.999E+00   -.160E-02 -.172E-02 0.145E-02
   -.812E+02 -.187E+03 0.106E+03   0.819E+02 0.189E+03 -.107E+03   -.226E+00 -.186E+01 0.108E+01   -.905E-03 -.288E-02 0.192E-02
   -.210E+03 -.108E+03 0.964E+01   0.212E+03 0.109E+03 -.971E+01   -.150E+01 -.986E+00 -.152E-01   -.510E-02 -.137E-02 -.316E-03
   -.214E+03 0.515E+02 -.880E+02   0.216E+03 -.518E+02 0.888E+02   -.176E+01 0.731E+00 -.918E+00   -.878E-03 0.364E-02 -.315E-03
   0.148E-04 0.930E+02 -.693E-04   -.619E-03 -.919E+02 0.318E-02   0.000E+00 -.552E+00 0.000E+00   -.126E-06 0.944E-02 0.243E-06
   -.659E-03 0.250E+03 0.251E-01   -.375E-03 -.252E+03 -.677E-02   0.000E+00 0.259E+01 0.000E+00   -.340E-06 0.315E-02 -.320E-06
   0.368E+02 0.379E+02 -.357E+01   -.382E+02 -.371E+02 0.382E+01   0.853E+00 -.288E+00 -.730E-01   0.369E-02 0.100E-02 -.614E-03
   0.102E+03 0.147E+03 0.101E+03   -.103E+03 -.148E+03 -.102E+03   0.805E+00 0.187E+01 0.890E+00   0.536E-02 0.332E-03 0.849E-03
   0.214E+03 0.515E+02 0.880E+02   -.216E+03 -.518E+02 -.888E+02   0.176E+01 0.731E+00 0.918E+00   0.878E-03 0.364E-02 0.315E-03
   0.210E+03 -.108E+03 -.964E+01   -.212E+03 0.109E+03 0.971E+01   0.150E+01 -.986E+00 0.152E-01   0.510E-02 -.137E-02 0.316E-03
   0.812E+02 -.187E+03 -.106E+03   -.819E+02 0.189E+03 0.107E+03   0.226E+00 -.186E+01 -.108E+01   0.905E-03 -.288E-02 -.192E-02
   -.271E+02 -.116E+03 -.120E+03   0.277E+02 0.118E+03 0.121E+03   -.131E+01 -.149E+01 -.999E+00   0.160E-02 -.172E-02 -.145E-02
   -.777E+02 0.272E+02 -.404E+02   0.825E+02 -.291E+02 0.431E+02   -.480E+01 0.204E+01 -.284E+01   0.155E-04 0.343E-03 0.417E-03
   -.796E+02 -.440E+02 0.395E+01   0.847E+02 0.469E+02 -.422E+01   -.515E+01 -.300E+01 0.257E+00   -.850E-05 0.215E-03 -.115E-03
   -.173E+02 -.769E+02 0.462E+02   0.177E+02 0.819E+02 -.492E+02   -.334E+00 -.507E+01 0.307E+01   -.305E-03 -.297E-03 0.162E-03
   0.374E+02 -.464E+02 0.596E+02   -.419E+02 0.484E+02 -.625E+02   0.473E+01 -.205E+01 0.297E+01   0.389E-03 -.712E-03 0.731E-03
   0.459E+02 0.738E+02 -.611E+00   -.509E+02 -.769E+02 0.545E+00   0.513E+01 0.322E+01 0.126E+00   -.106E-02 0.848E-04 -.161E-03
   -.459E+02 0.738E+02 0.620E+00   0.509E+02 -.769E+02 -.547E+00   -.513E+01 0.322E+01 -.126E+00   0.106E-02 0.847E-04 0.160E-03
   -.374E+02 -.464E+02 -.596E+02   0.419E+02 0.484E+02 0.625E+02   -.473E+01 -.205E+01 -.297E+01   -.389E-03 -.712E-03 -.731E-03
   0.173E+02 -.769E+02 -.462E+02   -.177E+02 0.819E+02 0.492E+02   0.334E+00 -.507E+01 -.307E+01   0.305E-03 -.297E-03 -.162E-03
   0.796E+02 -.440E+02 -.396E+01   -.847E+02 0.469E+02 0.422E+01   0.515E+01 -.300E+01 -.257E+00   0.845E-05 0.215E-03 0.115E-03
   0.777E+02 0.272E+02 0.404E+02   -.825E+02 -.291E+02 -.431E+02   0.480E+01 0.204E+01 0.284E+01   -.154E-04 0.343E-03 -.417E-03
   0.228E+02 0.722E+02 0.513E+02   -.227E+02 -.769E+02 -.544E+02   -.214E+00 0.505E+01 0.314E+01   0.541E-03 0.284E-03 0.206E-03
   -.228E+02 0.722E+02 -.513E+02   0.227E+02 -.769E+02 0.544E+02   0.214E+00 0.505E+01 -.314E+01   -.541E-03 0.284E-03 -.206E-03
 -----------------------------------------------------------------------------------------------
   -.133E-02 0.159E+01 0.981E-03   0.959E-13 0.000E+00 0.711E-14   -.888E-15 -.163E+01 0.000E+00   -.164E-06 0.104E-01 -.468E-06
 
 
 POSITION                                       TOTAL-FORCE (eV/Angst)
 -----------------------------------------------------------------------------------
     22.42452     19.10722     20.60253         0.004844      0.002265      0.002072
     21.26166     19.61403     19.96524         0.002095     -0.004192     -0.002023
     21.34265     20.84599     19.26058         0.005607      0.005446     -0.000774
     22.54121     21.54332     19.20135         0.008281      0.000047      0.001319
     23.67555     21.03934     19.85525        -0.002191     -0.002064      0.001064
     23.60997     19.82466     20.56106         0.007086      0.003938     -0.004017
     20.00000     18.88393     20.00000         0.000000     -0.001157     -0.000000
     20.00000     17.49631     19.99996         0.000000     -0.000424     -0.000000
     18.73834     19.61403     20.03476        -0.002095     -0.004192      0.002023
     17.57548     19.10726     19.39747        -0.004844      0.002265     -0.002072
     16.39003     19.82470     19.43894        -0.007086      0.003938      0.004017
     16.32445     21.03938     20.14475         0.002191     -0.002064     -0.001064
     17.45879     21.54332     20.79869        -0.008281      0.000047     -0.001319
     18.65735     20.84599     20.73946        -0.005607      0.005446      0.000774
     24.49145     19.45009     21.08111         0.000678     -0.005643     -0.008167
     24.61658     21.58812     19.80847         0.004105     -0.000499      0.001086
     22.60286     22.47347     18.63697         0.002142      0.001630     -0.000097
     20.46846     21.21351     18.72317         0.004407      0.003954      0.000024
     19.06902     16.93172     19.97389         0.003963     -0.005406      0.002022
     20.93094     16.93168     20.02603        -0.003963     -0.005406     -0.002022
     19.53154     21.21347     21.27687        -0.004407      0.003954     -0.000024
     17.39714     22.47343     21.36311        -0.002142      0.001630      0.000097
     15.38342     21.58816     20.19157        -0.004105     -0.000499     -0.001086
     15.50855     19.45013     18.91885        -0.000678     -0.005643      0.008167
     17.62829     18.17834     18.83016        -0.001592      0.001314      0.002743
     22.37171     18.17830     21.16976         0.001592      0.001314     -0.002743
 -----------------------------------------------------------------------------------
    total drift:                               -0.001334     -0.034783      0.000980


--------------------------------------------------------------------------------------------------------



  FREE ENERGIE OF THE ION-ELECTRON SYSTEM (eV)
  ---------------------------------------------------
  free  energy   TOTEN  =      -164.33644328 eV

  energy  without entropy=     -164.33644328  energy(sigma->0) =     -164.33644328
 
 d Force = 0.3549968E-04[ 0.197E-04, 0.513E-04]  d Energy = 0.3603575E-04-0.536E-06
 d Force = 0.6228157E+00[ 0.623E+00, 0.623E+00]  d Ewald  = 0.6228157E+00 0.242E-08


--------------------------------------------------------------------------------------------------------


    POTLOK:  cpu time    261.9508: real time    261.9517


--------------------------------------------------------------------------------------------------------


 Conjugate gradient step on ions:
 trial-energy change:   -0.000036  1 .order   -0.000035   -0.000051   -0.000020
  (g-gl).g = 0.110E-03      g.g   = 0.123E-03  gl.gl    = 0.640E-03
 g(Force)  = 0.123E-03   g(Stress)= 0.000E+00 ortho     = 0.789E-05
 gamma     =   0.17204
 trial     =   0.41074
 opt step  =   0.66781  (harmonic =   0.66781) maximal distance =0.00050833
 next E    =  -164.336449   (d E  =  -0.00004)


--------------------------------------------------------------------------------------------------------


  
 reached required accuracy - stopping structural energy minimisation
 writing wavefunctions
     LOOP+:  cpu time   1009.5559: real time   1013.8729
    4ORBIT:  cpu time      0.0000: real time      0.0000

 total amount of memory used by VASP MPI-rank0   530243. kBytes
=======================================================================

   base      :      30000. kBytes
   nonlr-proj:       1509. kBytes
   fftplans  :     131430. kBytes
   grid      :     332629. kBytes
   one-center:         12. kBytes
   wavefun   :      34663. kBytes
 
  
  
 General timing and accounting informations for this job:
 ========================================================
  
                  Total CPU time used (sec):    18737.965
                            User time (sec):     8661.418
                          System time (sec):    10076.548
                         Elapsed time (sec):    18748.569
  
                   Maximum memory used (kb):     1572576.
                   Average memory used (kb):          N/A
  
                          Minor page faults:     63327102
                          Major page faults:            0
                 Voluntary context switches:        11587
