 vasp.6.4.2 20Jul23 (build Sep 06 2024 14:39:43) complex                        
  
 executed on             LinuxIFC date 2025.09.11  11:20:38
 running   90 mpi-ranks, on    9 nodes
 distrk:  each k-point on   90 cores,    1 groups
 distr:  one band on NCORE=  10 cores,    9 groups


--------------------------------------------------------------------------------------------------------


 INCAR:
   SYSTEM = 103_red
   ISTART = 1
   ICHARG = 2
   INIWAV = 1
   LHFCALC = .TRUE.
   HFSCREEN = 0.2
   NELM = 1000
   ALGO = Damped
   ISPIN = 2
   EDIFF = 1E-05
   ISMEAR = 0
   SIGMA = 0.05
   PREC = accurate
   ENCUT = 500
   LREAL = auto  	
   LDIAG = .FALSE.
   LWAVE = .TRUE.
   LCHARG = .FALSE.
   LAECHG = .FALSE.
   LVHAR = .FALSE.
   LVTOT = .FALSE.
   EDIFFG = -0.02
   IBRION = 2
   NSW = 0
   ISIF = 2
   POTIM = 0.5
   IVDW = 12
   VDW_A1 = 0.383
   VDW_S8 = 2.310
   VDW_A2 = 5.685
   LPLANE = .TRUE.
   NCORE = 10
   LSCALU = .FALSE.
   NSIM = 4
   LSOL = .TRUE.
   EB_K = 35.6880
   LAMBDA_D_K = 3.04
   NELECT = 61
   TAU = 0

 POTCAR:    PAW_PBE C 08Apr2002                   
 POTCAR:    PAW_PBE H 15Jun2001                   
 -----------------------------------------------------------------------------
|                                                                             |
|           W    W    AA    RRRRR   N    N  II  N    N   GGGG   !!!           |
|           W    W   A  A   R    R  NN   N  II  NN   N  G    G  !!!           |
|           W    W  A    A  R    R  N N  N  II  N N  N  G       !!!           |
|           W WW W  AAAAAA  RRRRR   N  N N  II  N  N N  G  GGG   !            |
|           WW  WW  A    A  R   R   N   NN  II  N   NN  G    G                |
|           W    W  A    A  R    R  N    N  II  N    N   GGGG   !!!           |
|                                                                             |
|     You use a magnetic or noncollinear calculation, but did not specify     |
|     the initial magnetic moment with the MAGMOM tag. Note that a            |
|     default of 1 will be used for all atoms. This ferromagnetic setup       |
|     may break the symmetry of the crystal, in particular it may rule        |
|     out finding an antiferromagnetic solution. Thence, we recommend         |
|     setting the initial magnetic moment manually or verifying carefully     |
|     that this magnetic setup is desired.                                    |
|                                                                             |
 -----------------------------------------------------------------------------

 POTCAR:    PAW_PBE C 08Apr2002                   
   SHA256 =  253f7b50bb8d59471dbedb8285d89021f4a42ed1a2c5d38a03a736e69125dd95 C/POTCAR              
   COPYR  = (c) Copyright 08Apr2002 Georg Kresse                                                    
   COPYR  = This file is part of the software VASP. Any use, copying, and all other rights are regul
   COPYR  = If you do not have a valid VASP license, you may not use, copy or distribute this file. 
   VRHFIN =C: s2p2                                                                                  
   LEXCH  = PE                                                                                      
   EATOM  =   147.1560 eV,   10.8157 Ry                                                             
                                                                                                    
   TITEL  = PAW_PBE C 08Apr2002                                                                     
   LULTRA =        F    use ultrasoft PP ?                                                          
   IUNSCR =        1    unscreen: 0-lin 1-nonlin 2-no                                               
   RPACOR =    1.200    partial core radius                                                         
   POMASS =   12.011; ZVAL   =    4.000    mass and valenz                                          
   RCORE  =    1.500    outmost cutoff radius                                                       
   RWIGS  =    1.630; RWIGS  =    0.863    wigner-seitz radius (au A)                               
   ENMAX  =  400.000; ENMIN  =  300.000 eV                                                          
   ICORE  =        2    local potential                                                             
   LCOR   =        T    correct aug charges                                                         
   LPAW   =        T    paw PP                                                                      
   EAUG   =  644.873                                                                                
   DEXC   =    0.000                                                                                
   RMAX   =    1.529    core radius for proj-oper                                                   
   RAUG   =    1.300    factor for augmentation sphere                                              
   RDEP   =    1.501    radius for radial grids                                                     
   RDEPT  =    1.300    core radius for aug-charge                                                  
                                                                                                    
   Atomic configuration                                                                             
    4 entries                                                                                       
     n  l   j            E        occ.                                                              
     1  0  0.50      -273.3789   2.0000                                                             
     2  0  0.50       -13.7508   2.0000                                                             
     2  1  0.50        -5.2854   2.0000                                                             
     3  2  1.50        -5.4423   0.0000                                                             
   Description                                                                                      
     l       E           TYP  RCUT    TYP  RCUT                                                     
     0    -13.7508458     23  1.200                                                                 
     0     -8.2022199     23  1.200                                                                 
     1     -5.2854383     23  1.500                                                                 
     1     34.0145650     23  1.500                                                                 
     2     -5.4423304      7  1.500                                                                 
  local pseudopotential read in
  partial core-charges read in
  partial kinetic energy density read in
  atomic valenz-charges read in
  non local Contribution for L=           0  read in
    real space projection operators read in
  non local Contribution for L=           0  read in
    real space projection operators read in
  non local Contribution for L=           1  read in
    real space projection operators read in
  non local Contribution for L=           1  read in
    real space projection operators read in
    PAW grid and wavefunctions read in
 
   number of l-projection  operators is LMAX  =           4
   number of lm-projection operators is LMMAX =           8
 
 POTCAR:    PAW_PBE H 15Jun2001                   
   SHA256 =  030f79b5d3ab3cf0e668861823c8fb652ff669f3e15e46930bd03bfd63a607b6 H/POTCAR              
   COPYR  = (c) Copyright 15Jun2001 Georg Kresse                                                    
   COPYR  = This file is part of the software VASP. Any use, copying, and all other rights are regul
   COPYR  = If you do not have a valid VASP license, you may not use, copy or distribute this file. 
   VRHFIN =H: ultrasoft test                                                                        
   LEXCH  = PE                                                                                      
   EATOM  =    12.4884 eV,    0.9179 Ry                                                             
                                                                                                    
   TITEL  = PAW_PBE H 15Jun2001                                                                     
   LULTRA =        F    use ultrasoft PP ?                                                          
   IUNSCR =        0    unscreen: 0-lin 1-nonlin 2-no                                               
   RPACOR =    0.000    partial core radius                                                         
   POMASS =    1.000; ZVAL   =    1.000    mass and valenz                                          
   RCORE  =    1.100    outmost cutoff radius                                                       
   RWIGS  =    0.700; RWIGS  =    0.370    wigner-seitz radius (au A)                               
   ENMAX  =  250.000; ENMIN  =  200.000 eV                                                          
   RCLOC  =    0.701    cutoff for local pot                                                        
   LCOR   =        T    correct aug charges                                                         
   LPAW   =        T    paw PP                                                                      
   EAUG   =  400.000                                                                                
   RMAX   =    1.123    core radius for proj-oper                                                   
   RAUG   =    1.200    factor for augmentation sphere                                              
   RDEP   =    1.112    radius for radial grids                                                     
   RDEPT  =    0.926    core radius for aug-charge                                                  
                                                                                                    
   Atomic configuration                                                                             
    2 entries                                                                                       
     n  l   j            E        occ.                                                              
     1  0  0.50        -6.4927   1.0000                                                             
     2  1  0.50        -3.4015   0.0000                                                             
   Description                                                                                      
     l       E           TYP  RCUT    TYP  RCUT                                                     
     0     -6.4927494     23  1.100                                                                 
     0      6.8029130     23  1.100                                                                 
     1     -4.0817478     23  1.100                                                                 
  local pseudopotential read in
  atomic valenz-charges read in
  non local Contribution for L=           0  read in
    real space projection operators read in
  non local Contribution for L=           0  read in
    real space projection operators read in
  non local Contribution for L=           1  read in
    real space projection operators read in
    PAW grid and wavefunctions read in
 
   number of l-projection  operators is LMAX  =           3
   number of lm-projection operators is LMMAX =           5
 
 Optimization of the real space projectors (new method)

 maximal supplied QI-value         = 25.13
 optimisation between [QCUT,QGAM] = [ 11.31, 22.87] = [ 35.82,146.48] Ry 
 Optimized for a Real-space Cutoff    1.03 Angstroem

   l    n(q)    QCUT    max X(q) W(low)/X(q) W(high)/X(q)  e(spline) 
   0      7    11.310   115.676    0.20E-03    0.90E-03    0.20E-06
   0      7    11.310    87.132    0.20E-03    0.89E-03    0.19E-06
   1      6    11.310     4.429    0.16E-03    0.28E-03    0.12E-06
   1      6    11.310     2.733    0.12E-03    0.21E-03    0.99E-07
 Optimization of the real space projectors (new method)

 maximal supplied QI-value         = 34.20
 optimisation between [QCUT,QGAM] = [ 11.29, 22.57] = [ 35.68,142.71] Ry 
 Optimized for a Real-space Cutoff    1.20 Angstroem

   l    n(q)    QCUT    max X(q) W(low)/X(q) W(high)/X(q)  e(spline) 
   0      8    11.287    19.460    0.22E-03    0.50E-03    0.19E-06
   0      8    11.287    12.209    0.21E-03    0.48E-03    0.18E-06
   1      8    11.287     4.655    0.21E-03    0.11E-04    0.26E-06
  PAW_PBE C 08Apr2002                   :
 energy of atom  1       EATOM= -147.1560
 kinetic energy error for atom=    0.0076 (will be added to EATOM!!)
  PAW_PBE H 15Jun2001                   :
 energy of atom  2       EATOM=  -12.4884
 kinetic energy error for atom=    0.0020 (will be added to EATOM!!)
 
 
 POSCAR: C H
  positions in direct lattice
  velocities in cartesian coordinates
 exchange correlation table for  LEXCH =        8
   RHO(1)=    0.500       N(1)  =     2000
   RHO(2)=  100.500       N(2)  =     4000
 


--------------------------------------------------------------------------------------------------------


 ion  position               nearest neighbor table
   1  0.548  0.469  0.494-  26 1.09   2 1.38   6 1.43
   2  0.582  0.469  0.495-  25 1.09   1 1.38   3 1.40
   3  0.599  0.499  0.501-  24 1.09   2 1.40   4 1.41
   4  0.582  0.529  0.507-  23 1.09   5 1.38   3 1.41
   5  0.547  0.529  0.505-  22 1.09   4 1.38   6 1.43
   6  0.529  0.499  0.500-   5 1.43   1 1.43   7 1.44
   7  0.493  0.499  0.499-   8 1.40   6 1.44  12 1.50
   8  0.475  0.469  0.504-  21 1.09   7 1.40   9 1.47
   9  0.438  0.468  0.508-  20 1.11  19 1.11   8 1.47  10 1.53
  10  0.420  0.501  0.508-  17 1.10  18 1.10  11 1.53   9 1.53
  11  0.438  0.526  0.484-  15 1.10  16 1.10  10 1.53  12 1.53
  12  0.474  0.531  0.495-  13 1.10  14 1.11   7 1.50  11 1.53
  13  0.487  0.547  0.477-  12 1.10
  14  0.475  0.545  0.519-  12 1.11
  15  0.425  0.550  0.484-  11 1.10
  16  0.437  0.516  0.459-  11 1.10
  17  0.394  0.498  0.501-  10 1.10
  18  0.421  0.512  0.534-  10 1.10
  19  0.430  0.452  0.486-   9 1.11
  20  0.432  0.452  0.530-   9 1.11
  21  0.488  0.446  0.507-   8 1.09
  22  0.533  0.552  0.510-   5 1.09
  23  0.595  0.552  0.512-   4 1.09
  24  0.627  0.499  0.502-   3 1.09
  25  0.596  0.446  0.490-   2 1.09
  26  0.535  0.445  0.489-   1 1.09
 
  LATTYP: Found a simple cubic cell.
 ALAT       =    40.0000000000
  
  Lattice vectors:
  
 A1 = (  40.0000000000,   0.0000000000,   0.0000000000)
 A2 = (   0.0000000000,  40.0000000000,   0.0000000000)
 A3 = (   0.0000000000,   0.0000000000,  40.0000000000)


Analysis of symmetry for initial positions (statically):
=====================================================================
 Subroutine PRICEL returns:
 Original cell was already a primitive cell.
 

 Routine SETGRP: Setting up the symmetry group for a 
 simple cubic supercell.


 Subroutine GETGRP returns: Found  1 space group operations
 (whereof  1 operations were pure point group operations)
 out of a pool of 48 trial point group operations.


The static configuration has the point symmetry C_1 .


Analysis of symmetry for dynamics (positions and initial velocities):
=====================================================================
 Subroutine PRICEL returns:
 Original cell was already a primitive cell.
 

 Routine SETGRP: Setting up the symmetry group for a 
 simple cubic supercell.


 Subroutine GETGRP returns: Found  1 space group operations
 (whereof  1 operations were pure point group operations)
 out of a pool of 48 trial point group operations.


The dynamic configuration has the point symmetry C_1 .


Analysis of constrained symmetry for selective dynamics:
=====================================================================
 Subroutine PRICEL returns:
 Original cell was already a primitive cell.
 

 Routine SETGRP: Setting up the symmetry group for a 
 simple cubic supercell.


 Subroutine GETGRP returns: Found  1 space group operations
 (whereof  1 operations were pure point group operations)
 out of a pool of 48 trial point group operations.


The constrained configuration has the point symmetry C_1 .


Analysis of structural, dynamic, and magnetic symmetry:
=====================================================================
 Subroutine PRICEL returns:
 Original cell was already a primitive cell.
 

 Routine SETGRP: Setting up the symmetry group for a 
 simple cubic supercell.


 Subroutine GETGRP returns: Found  1 space group operations
 (whereof  1 operations were pure point group operations)
 out of a pool of 48 trial point group operations.


The overall configuration has the point symmetry C_1 .


 Subroutine INISYM returns: Found  1 space group operations
 (whereof  1 operations are pure point group operations),
 and found     1 'primitive' translations


----------------------------------------------------------------------------------------

                                     Primitive cell                                     

  volume of cell :   64000.0000

  direct lattice vectors                    reciprocal lattice vectors
    40.000000000  0.000000000  0.000000000     0.025000000  0.000000000  0.000000000
     0.000000000 40.000000000  0.000000000     0.000000000  0.025000000  0.000000000
     0.000000000  0.000000000 40.000000000     0.000000000  0.000000000  0.025000000

  length of vectors
    40.000000000 40.000000000 40.000000000     0.025000000  0.025000000  0.025000000

  position of ions in fractional coordinates (direct lattice)
     0.547609280  0.468604594  0.494335474
     0.582216270  0.469001724  0.494829974
     0.599363950  0.498946393  0.501313115
     0.581561789  0.528835971  0.506670134
     0.547001853  0.528877647  0.505450713
     0.528990060  0.498665686  0.499622759
     0.492921539  0.499041370  0.499173816
     0.474953452  0.469412900  0.504435517
     0.438400225  0.467770145  0.507750318
     0.420353406  0.501462887  0.508206249
     0.437577108  0.525912028  0.484442000
     0.474101316  0.531208829  0.494717877
     0.487239204  0.547054150  0.476517696
     0.474949695  0.545008448  0.518674162
     0.424710929  0.550167475  0.484220266
     0.436694966  0.516080833  0.458702918
     0.393993588  0.497978950  0.501400201
     0.420796021  0.511673358  0.533776510
     0.429754924  0.452033212  0.486470795
     0.432347731  0.451977073  0.529609450
     0.488415787  0.445831167  0.506938597
     0.533490061  0.552076581  0.509907529
     0.595066576  0.551912214  0.511869817
     0.626606138  0.499081787  0.502160450
     0.596145572  0.446076947  0.490129043
     0.534736561  0.445306631  0.488674619

  ion indices of the primitive-cell ions
   primitive index   ion index
                 1           1
                 2           2
                 3           3
                 4           4
                 5           5
                 6           6
                 7           7
                 8           8
                 9           9
                10          10
                11          11
                12          12
                13          13
                14          14
                15          15
                16          16
                17          17
                18          18
                19          19
                20          20
                21          21
                22          22
                23          23
                24          24
                25          25
                26          26

----------------------------------------------------------------------------------------

 
 
 KPOINTS: K-Point Grid                            

Automatic generation of k-mesh.
 Grid dimensions read from file:
 generate k-points for:    1    1    1

 Generating k-lattice:

  Cartesian coordinates                     Fractional coordinates (reciprocal lattice)
     0.025000000  0.000000000  0.000000000     1.000000000  0.000000000  0.000000000
     0.000000000  0.025000000  0.000000000     0.000000000  1.000000000  0.000000000
     0.000000000  0.000000000  0.025000000     0.000000000  0.000000000  1.000000000

  Length of vectors
     0.025000000  0.025000000  0.025000000

  Shift w.r.t. Gamma in fractional coordinates (k-lattice)
     0.000000000  0.000000000  0.000000000

 
 Subroutine IBZKPT returns following result:
 ===========================================
 
 Found      1 irreducible k-points:
 
 Following reciprocal coordinates:
            Coordinates               Weight
  0.000000  0.000000  0.000000      1.000000
 
 Following cartesian coordinates:
            Coordinates               Weight
  0.000000  0.000000  0.000000      1.000000
 
 
 Subroutine IBZKPT_HF returns following result:
 ==============================================
 
 Found      1 k-points in 1st BZ
 the following      1 k-points will be used (e.g. in the exchange kernel)
 Following reciprocal coordinates:   # in IRBZ
  0.000000  0.000000  0.000000    1.00000000   1 t-inv F


--------------------------------------------------------------------------------------------------------




 Dimension of arrays:
   k-points           NKPTS =      1   k-points in BZ     NKDIM =      1   number of bands    NBANDS=     63
   number of dos      NEDOS =    301   number of ions     NIONS =     26
   non local maximal  LDIM  =      4   non local SUM 2l+1 LMDIM =      8
   total plane-waves  NPLWV = ******
   max r-space proj   IRMAX =   2915   max aug-charges    IRDMAX=   4885
   dimension x,y,z NGX =   294 NGY =  294 NGZ =  294
   dimension x,y,z NGXF=   588 NGYF=  588 NGZF=  588
   support grid    NGXF=   588 NGYF=  588 NGZF=  588
   ions per type =              12  14
   NGX,Y,Z   is equivalent  to a cutoff of  12.22, 12.22, 12.22 a.u.
   NGXF,Y,Z  is equivalent  to a cutoff of  24.44, 24.44, 24.44 a.u.

 SYSTEM =  103_red                                 
 POSCAR =  C H                                     

 Startparameter for this run:
   NWRITE =      2    write-flag & timer
   PREC   = accura    normal or accurate (medium, high low for compatibility)
   ISTART =      0    job   : 0-new  1-cont  2-samecut
   ICHARG =      2    charge: 1-file 2-atom 10-const
   ISPIN  =      2    spin polarized calculation?
   LNONCOLLINEAR =      F non collinear calculations
   LSORBIT =      F    spin-orbit coupling
   INIWAV =      1    electr: 0-lowe 1-rand  2-diag
   LASPH  =      F    aspherical Exc in radial PAW
 Electronic Relaxation 1
   ENCUT  =  500.0 eV  36.75 Ry    6.06 a.u.  72.93 72.93 72.93*2*pi/ulx,y,z
   ENINI  =  500.0     initial cutoff
   ENAUG  =  644.9 eV  augmentation charge cutoff
   NELM   =   1000;   NELMIN=  2; NELMDL=  0     # of ELM steps 
   EDIFF  = 0.1E-04   stopping-criterion for ELM
   LREAL  =      T    real-space projection
   NLSPLINE    = F    spline interpolate recip. space projectors
   LCOMPAT=      F    compatible to vasp.4.4
   GGA_COMPAT  = T    GGA compatible to vasp.4.4-vasp.4.6
   LMAXPAW     = -100 max onsite density
   LMAXMIX     =    2 max onsite mixed and CHGCAR
   VOSKOWN=      0    Vosko Wilk Nusair interpolation
   ROPT   =   -0.00025  -0.00025
 Ionic relaxation
   EDIFFG = -.2E-01   stopping-criterion for IOM
   NSW    =      0    number of steps for IOM
   NBLOCK =      1;   KBLOCK =      1    inner block; outer block 
   IBRION =     -1    ionic relax: 0-MD 1-quasi-New 2-CG
   NFREE  =      1    steps in history (QN), initial steepest desc. (CG)
   ISIF   =      2    stress and relaxation
   IWAVPR =     10    prediction:  0-non 1-charg 2-wave 3-comb
   ISYM   =      3    0-nonsym 1-usesym 2-fastsym
   LCORR  =      T    Harris-Foulkes like correction to forces

   POTIM  = 0.5000    time-step for ionic-motion
   TEIN   =    0.0    initial temperature
   TEBEG  =    0.0;   TEEND  =   0.0 temperature during run
   SMASS  =  -3.00    Nose mass-parameter (am)
   estimated Nose-frequenzy (Omega)   =  0.10E-29 period in steps = 0.13E+47 mass=  -0.366E-25a.u.
   SCALEE = 1.0000    scale energy and forces
   NPACO  =    256;   APACO  = 10.0  distance and # of slots for P.C.
   PSTRESS=    0.0 pullay stress

  Mass of Ions in am
   POMASS =  12.01  1.00
  Ionic Valenz
   ZVAL   =   4.00  1.00
  Atomic Wigner-Seitz radii
   RWIGS  =  -1.00 -1.00
  virtual crystal weights 
   VCA    =   1.00  1.00
   NELECT =      61.0000    total number of electrons
   NUPDOWN=      -1.0000    fix difference up-down

 DOS related values:
   EMIN   =  10.00;   EMAX   =-10.00  energy-range for DOS
   EFERMI =   0.00;   METHOD = LEGACY      
   ISMEAR =     0;   SIGMA  =   0.05  broadening in eV -4-tet -1-fermi 0-gaus

 Electronic relaxation 2 (details)
   IALGO  =     53    algorithm
   LDIAG  =      F    sub-space diagonalisation (order eigenvalues)
   LSUBROT=      F    optimize rotation matrix (better conditioning)
   TURBO    =      0    0=normal 1=particle mesh
   IRESTART =      0    0=no restart 2=restart with 2 vectors
   NREBOOT  =      0    no. of reboots
   NMIN     =      0    reboot dimension
   EREF     =   0.00    reference energy to select bands
   IMIX   =      4    mixing-type and parameters
     AMIX     =   0.40;   BMIX     =  1.00
     AMIX_MAG =   1.60;   BMIX_MAG =  1.00
     AMIN     =   0.10
     WC   =   100.;   INIMIX=   1;  MIXPRE=   1;  MAXMIX= -45

 Intra band minimization:
   WEIMIN = 0.0000     energy-eigenvalue tresh-hold
   EBREAK =  0.40E-07  absolut break condition
   DEPER  =   0.30     relativ break condition  

   TIME   =   0.40     timestep for ELM

  volume/ion in A,a.u.               =    2461.54     16611.28
  Fermi-wavevector in a.u.,A,eV,Ry     =   0.161111  0.304455  0.353162  0.025957
  Thomas-Fermi vector in A             =   0.855887
 
 Write flags
   LWAVE        =      T    write WAVECAR
   LDOWNSAMPLE  =      F    k-point downsampling of WAVECAR
   LCHARG       =      F    write CHGCAR
   LVTOT        =      F    write LOCPOT, total local potential
   LVHAR        =      F    write LOCPOT, Hartree potential only
   LELF         =      F    write electronic localiz. function (ELF)
   LORBIT       =      0    0 simple, 1 ext, 2 COOP (PROOUT), +10 PAW based schemes


 Dipole corrections
   LMONO  =      F    monopole corrections only (constant potential shift)
   LDIPOL =      F    correct potential (dipole corrections)
   IDIPOL =      0    1-x, 2-y, 3-z, 4-all directions 
   EPSILON=  1.0000000 bulk dielectric constant

 Exchange correlation treatment:
   GGA     =    --    GGA type
   LEXCH   =     8    internal setting for exchange type
   LIBXC   =     F    Libxc                    
   VOSKOWN =     0    Vosko Wilk Nusair interpolation
   EXXOEP  =     0    0=HF, 1=EXX-LHF (local Hartree Fock) 2=EXX OEP
   LHFCALC =     T    Hartree Fock is set to
   LSYMGRAD=     F    symmetrize gradient (conserves proper symmetry)
   PRECFOCK=normal    Normal, Fast or Accurate (Low or Medium for compatibility)
   LRHFCALC=     F    long range Hartree Fock
   LRSCOR  =     F    long range correlation only (use DFT for short range part)
   LTHOMAS =     F    Thomas Fermi screening in HF
   LMODELHF=     F    short range full HF, long range fraction AEXX
   FOCKCORR=     1    mode to apply convergence corrections
   LFOCKACE=     F    use Adeptively-Compressed-Exchange operator
   ENCUT4O =  -1.0   cutoff for four orbital integrals eV
   LMAXFOCK=     4    L truncation for augmentation on plane wave grid
   LMAXFOCKAE=  -1    L truncation for all-electron charge restoration on plane wave grid
   NMAXFOCKAE=   1    number of basis functions for all-electron charge restoration
   LFOCKAEDFT=     F  apply the AE augmentation even for DFT
   NKREDX  =     1    reduce k-point grid by
   NKREDY  =     1    reduce k-point grid by
   NKREDZ  =     1    reduce k-point grid by
   SHIFTRED=     F    shift reduced grid of Gamma
   HFKIDENT=     F    idential grid for each k-point
   ODDONLY =     F    use only odd q-grid points
   EVENONLY=     F    use only even q-grid points
   HFALPHA =   -1.0000 decay constant for conv. correction
   MCALPHA =    0.0000 extent of test-charge in conv. correction in multipole expansion
   AEXX    =    0.2500 exact exchange contribution
   HFSCREEN=    0.2000 screening length (either q_TF or 0.3 A-1)
   HFSCREENC=   0.2000 screening length for correlation (either q_TF or 0.3 A-1)
   HFRCUT  =    0.0000 spherical cutoff for potential kernel
   ALDAX   =    0.7500 LDA exchange part
   AGGAX   =    0.7500 GGA exchange part
   ALDAC   =    1.0000 LDA correlation
   AGGAC   =    1.0000 GGA correlation
   ENCUTFOCK=  -1.0 apply spherical cutoff to Coloumb kernel
   NBANDSGWLOW=     1    first orbital included in HF term
   NBLOCK_FOCK=    64    blocking factor in FOCK_ACC

 Linear response parameters
   LEPSILON=     F    determine dielectric tensor
   LRPA    =     F    only Hartree local field effects (RPA)
   LNABLA  =     F    use nabla operator in PAW spheres
   LVEL    =     F    velocity operator in full k-point grid
   CSHIFT  =0.1000    complex shift for real part using Kramers Kronig
   OMEGAMAX=  -1.0    maximum frequency
   DEG_THRESHOLD= 0.2000000E-02 threshold for treating states as degnerate
   RTIME   =   -0.100 relaxation time in fs
  (WPLASMAI=    0.000 imaginary part of plasma frequency in eV, 0.658/RTIME)
   DFIELD  = 0.0000000 0.0000000 0.0000000 field for delta impulse in time
 
  Optional k-point grid parameters
   LKPOINTS_OPT  =     F    use optional k-point grid
   KPOINTS_OPT_MODE=     1    mode for optional k-point grid
 
 Orbital magnetization related:
   ORBITALMAG=     F  switch on orbital magnetization
   LCHIMAG   =     F  perturbation theory with respect to B field
   DQ        =  0.001000  dq finite difference perturbation B field
   LLRAUG    =     F  two centre corrections for induced B field
   LBONE     =     F  B-component reconstruction in AE one-centre
   LVGVCALC  =     T  calculate vGv susceptibility
   LVGVAPPL  =     F  apply vGv susceptibility instead of pGv for G=0

 Random number generation:
   RANDOM_GENERATOR = DEFAULT
   PCG_SEED         = not used
 Solvation model:
   LSOL    =     T         switch on solvation model
   EB_K    = 35.688000     relative permittivity of the bulk solvent
   SIGMA_K =  0.600000     width of the dielectric cavity
   NC_K    =  0.002500     cutoff charge density
   TAU     =  0.000000     cavity surface tension
   LAMBDA_D_K    =  3.040000     Debye length in Angstroms
   LRHOB     =     F     write boundcharge  density
   LRHOION     =     F     write ioniccharge density



--------------------------------------------------------------------------------------------------------


 Static calculation
 charge density and potential will be updated during run
 spin polarized calculation
 Conjugate gradient for all bands (Kresse, et al. variant)
 perform Loewdin sub-space diagonalisation
    ordering is kept fixed
    before iterative eigenvector-optimisation
 modified Broyden-mixing scheme, WC =      100.0
 initial mixing is a Kerker type mixing with AMIX =  0.4000 and BMIX =      1.0000
 Hartree-type preconditioning will be used
 using additional bands           32
 real space projection scheme for non local part
 use partial core corrections
 no Harris-corrections to forces 
 use gradient corrections 
 use of overlap-Matrix (Vanderbilt PP)
 Gauss-broadening in eV      SIGMA  =   0.05


--------------------------------------------------------------------------------------------------------


  energy-cutoff  :      500.00
  volume of cell :    64000.00
      direct lattice vectors                 reciprocal lattice vectors
    40.000000000  0.000000000  0.000000000     0.025000000  0.000000000  0.000000000
     0.000000000 40.000000000  0.000000000     0.000000000  0.025000000  0.000000000
     0.000000000  0.000000000 40.000000000     0.000000000  0.000000000  0.025000000

  length of vectors
    40.000000000 40.000000000 40.000000000     0.025000000  0.025000000  0.025000000


 
 k-points in units of 2pi/SCALE and weight: K-Point Grid                            
   0.00000000  0.00000000  0.00000000       1.000
 
 k-points in reciprocal lattice and weights: K-Point Grid                            
   0.00000000  0.00000000  0.00000000       1.000
 
 position of ions in fractional coordinates (direct lattice) 
   0.54760928  0.46860459  0.49433547
   0.58221627  0.46900172  0.49482997
   0.59936395  0.49894639  0.50131311
   0.58156179  0.52883597  0.50667013
   0.54700185  0.52887765  0.50545071
   0.52899006  0.49866569  0.49962276
   0.49292154  0.49904137  0.49917382
   0.47495345  0.46941290  0.50443552
   0.43840022  0.46777015  0.50775032
   0.42035341  0.50146289  0.50820625
   0.43757711  0.52591203  0.48444200
   0.47410132  0.53120883  0.49471788
   0.48723920  0.54705415  0.47651770
   0.47494970  0.54500845  0.51867416
   0.42471093  0.55016747  0.48422027
   0.43669497  0.51608083  0.45870292
   0.39399359  0.49797895  0.50140020
   0.42079602  0.51167336  0.53377651
   0.42975492  0.45203321  0.48647080
   0.43234773  0.45197707  0.52960945
   0.48841579  0.44583117  0.50693860
   0.53349006  0.55207658  0.50990753
   0.59506658  0.55191221  0.51186982
   0.62660614  0.49908179  0.50216045
   0.59614557  0.44607695  0.49012904
   0.53473656  0.44530663  0.48867462
 
 position of ions in cartesian coordinates  (Angst):
  21.90437120 18.74418377 19.77341897
  23.28865079 18.76006895 19.79319895
  23.97455798 19.95785572 20.05252458
  23.26247155 21.15343885 20.26680536
  21.88007413 21.15510588 20.21802852
  21.15960240 19.94662746 19.98491036
  19.71686156 19.96165478 19.96695263
  18.99813807 18.77651601 20.17742068
  17.53600899 18.71080580 20.31001271
  16.81413626 20.05851547 20.32824998
  17.50308431 21.03648114 19.37768000
  18.96405263 21.24835317 19.78871510
  19.48956817 21.88216601 19.06070785
  18.99798781 21.80033793 20.74696647
  16.98843718 22.00669899 19.36881065
  17.46779863 20.64323331 18.34811672
  15.75974350 19.91915800 20.05600805
  16.83184085 20.46693433 21.35106041
  17.19019694 18.08132846 19.45883182
  17.29390925 18.07908290 21.18437800
  19.53663147 17.83324668 20.27754387
  21.33960245 22.08306324 20.39630114
  23.80266303 22.07648856 20.47479268
  25.06424551 19.96327148 20.08641800
  23.84582289 17.84307787 19.60516173
  21.38946245 17.81226524 19.54698476
 


--------------------------------------------------------------------------------------------------------


 k-point   1 :   0.0000 0.0000 0.0000  plane waves: 1624525

 maximum and minimum number of plane-waves per node :    162473   162437

 maximum number of plane-waves:   1624525
 maximum index in each direction: 
   IXMAX=   72   IYMAX=   72   IZMAX=   72
   IXMIN=  -72   IYMIN=  -72   IZMIN=  -72


 real space projection operators:
  total allocation   :       2856.95 KBytes
  max/ min on nodes  :        298.32        276.68


 parallel 3D FFT for wavefunctions:
    minimum data exchange during FFTs selected (reduces bandwidth)
 parallel 3D FFT for charge:
    minimum data exchange during FFTs selected (reduces bandwidth)


 FFT grid for exact exchange (Hartree Fock) 
  NGX =224; NGY =224; NGZ =224

 
 Radii for the augmentation spheres in the non-local exchange
 for species   1 augmentation radius   0.874 (default was   0.699)
       energy cutoff for augmentation   2000.0
 for species   2 augmentation radius   0.650 (default was   0.520)
       energy cutoff for augmentation   2000.0

 real space projection operators:
  total allocation   :        613.27 KBytes
  max/ min on nodes  :         68.70         51.82

 Maximum index for augmentation-charges in exchange           76
  SETUP_FOCK is finished

 total amount of memory used by VASP MPI-rank0   767383. kBytes
=======================================================================

   base      :      30000. kBytes
   nonlr-proj:       1949. kBytes
   fftplans  :     224335. kBytes
   grid      :     401872. kBytes
   one-center:         18. kBytes
   HF        :          9. kBytes
   wavefun   :     109200. kBytes
 
     INWAV:  cpu time      0.0001: real time      0.0010
 Broyden mixing: mesh for mixing (old mesh)
   NGX =145   NGY =145   NGZ =145
  (NGX  =588   NGY  =588   NGZ  =588)
  gives a total of ****** points

 initial charge density was supplied:
 charge density of overlapping atoms calculated
 number of electron      62.0000000 magnetization      26.0000000
 charge density for first step will be calculated from the start-wavefunctions


--------------------------------------------------------------------------------------------------------


 Maximum index for non-local projection operator          321
 Maximum index for augmentation-charges          152 (set IRDMAX)


--------------------------------------------------------------------------------------------------------


 First call to EWALD:  gamma=   0.044
 Maximum number of real-space cells 3x 3x 3
 Maximum number of reciprocal cells 3x 3x 3

    FEWALD:  cpu time      0.3859: real time      0.3859


--------------------------------------- Ionic step        1  -------------------------------------------




--------------------------------------- Iteration      1(   1)  ---------------------------------------


    POTLOK:  cpu time    361.0284: real time    361.0586
    SETDIJ:  cpu time      0.0576: real time      0.0576
    TRIAL :  cpu time     45.4368: real time     45.4382
    CORREC:  cpu time      0.0039: real time      0.0039
    --------------------------------------------
      LOOP:  cpu time    406.5951: real time    406.6318

 eigenvalue-minimisations  :   252
 total energy-change (2. order) : 0.6761177E+03  (-0.4348114E+03)
 number of electron      62.0000000 magnetization      26.0000000
 augmentation part       62.0000000 magnetization      26.0000000

 Free energy of the ion-electron system (eV)
  ---------------------------------------------------
  alpha Z        PSCENC =         0.27177942
  Ewald energy   TEWEN  =      7135.18033272
  -Hartree energ DENC   =     -8364.36058107
  -exchange      EXHF   =         0.00000000
  -V(xc)+E(xc)   XCENC  =       196.06207286
  PAW double counting   =      1325.84619282    -1603.31198316
  entropy T*S    EENTRO =        -0.02958469
  eigenvalues    EBANDS =        84.23818994
  atomic energy  EATOM  =      1912.56957895
  ---------------------------------------------------
  free energy    TOTEN  =       676.11774879 eV

  energy without entropy =      676.14733347  energy(sigma->0) =      676.13254113
  exchange ACFDT corr.  =         0.00000000  see jH, gK, PRB 81, 115126


--------------------------------------------------------------------------------------------------------




--------------------------------------- Iteration      1(   2)  ---------------------------------------


    TRIAL :  cpu time     74.1858: real time     74.1876
    CORREC:  cpu time      0.0044: real time      0.0044
    --------------------------------------------
      LOOP:  cpu time     74.1928: real time     74.2090

 eigenvalue-minimisations  :   504
 total energy-change (2. order) :-0.1115133E+03  (-0.1054431E+03)
 number of electron      62.0000000 magnetization      26.0000000
 augmentation part       62.0000000 magnetization      26.0000000

 Free energy of the ion-electron system (eV)
  ---------------------------------------------------
  alpha Z        PSCENC =         0.27177942
  Ewald energy   TEWEN  =      7135.18033272
  -Hartree energ DENC   =     -8364.36058107
  -exchange      EXHF   =         0.00000000
  -V(xc)+E(xc)   XCENC  =       196.06207286
  PAW double counting   =      1325.84619282    -1603.31198316
  entropy T*S    EENTRO =        -0.05871379
  eigenvalues    EBANDS =       -27.24597123
  atomic energy  EATOM  =      1912.56957895
  ---------------------------------------------------
  free energy    TOTEN  =       564.60445851 eV

  energy without entropy =      564.66317230  energy(sigma->0) =      564.63381540
  exchange ACFDT corr.  =         0.00000000  see jH, gK, PRB 81, 115126


--------------------------------------------------------------------------------------------------------




--------------------------------------- Iteration      1(   3)  ---------------------------------------


    TRIAL :  cpu time     72.8381: real time     72.8423
    CORREC:  cpu time      0.0047: real time      0.0047
    --------------------------------------------
      LOOP:  cpu time     72.8437: real time     72.8648

 eigenvalue-minimisations  :   504
 total energy-change (2. order) :-0.1919828E+03  (-0.1748657E+03)
 number of electron      62.0000000 magnetization      26.0000000
 augmentation part       62.0000000 magnetization      26.0000000

 Free energy of the ion-electron system (eV)
  ---------------------------------------------------
  alpha Z        PSCENC =         0.27177942
  Ewald energy   TEWEN  =      7135.18033272
  -Hartree energ DENC   =     -8364.36058107
  -exchange      EXHF   =         0.00000000
  -V(xc)+E(xc)   XCENC  =       196.06207286
  PAW double counting   =      1325.84619282    -1603.31198316
  entropy T*S    EENTRO =        -0.06916917
  eigenvalues    EBANDS =      -219.21830220
  atomic energy  EATOM  =      1912.56957895
  ---------------------------------------------------
  free energy    TOTEN  =       372.62167217 eV

  energy without entropy =      372.69084134  energy(sigma->0) =      372.65625675
  exchange ACFDT corr.  =         0.00000000  see jH, gK, PRB 81, 115126


--------------------------------------------------------------------------------------------------------




--------------------------------------- Iteration      1(   4)  ---------------------------------------


    TRIAL :  cpu time     70.5691: real time     70.5729
    CORREC:  cpu time      0.0043: real time      0.0043
    --------------------------------------------
      LOOP:  cpu time     70.5759: real time     70.5863

 eigenvalue-minimisations  :   504
 total energy-change (2. order) :-0.2501529E+03  (-0.2306385E+03)
 number of electron      62.0000000 magnetization      26.0000000
 augmentation part       62.0000000 magnetization      26.0000000

 Free energy of the ion-electron system (eV)
  ---------------------------------------------------
  alpha Z        PSCENC =         0.27177942
  Ewald energy   TEWEN  =      7135.18033272
  -Hartree energ DENC   =     -8364.36058107
  -exchange      EXHF   =         0.00000000
  -V(xc)+E(xc)   XCENC  =       196.06207286
  PAW double counting   =      1325.84619282    -1603.31198316
  entropy T*S    EENTRO =        -0.07354606
  eigenvalues    EBANDS =      -469.36678390
  atomic energy  EATOM  =      1912.56957895
  ---------------------------------------------------
  free energy    TOTEN  =       122.46881357 eV

  energy without entropy =      122.54235964  energy(sigma->0) =      122.50558660
  exchange ACFDT corr.  =         0.00000000  see jH, gK, PRB 81, 115126


--------------------------------------------------------------------------------------------------------




--------------------------------------- Iteration      1(   5)  ---------------------------------------


    POTLOK:  cpu time     41.4164: real time     41.4187
    SETDIJ:  cpu time      0.1643: real time      0.1642
    TRIAL :  cpu time   1190.8743: real time   1190.9453
    CORREC:  cpu time      0.0043: real time      0.0043
    CHARGE:  cpu time      3.1408: real time      3.1410
    --------------------------------------------
      LOOP:  cpu time   1235.6012: real time   1235.7019

 eigenvalue-minimisations  :   486
 total energy-change (2. order) : 0.6758617E+02  (-0.1958155E+03)
 number of electron      61.0000002 magnetization       3.4266976
 augmentation part        0.4762836 magnetization       0.2818419

 Free energy of the ion-electron system (eV)
  ---------------------------------------------------
  alpha Z        PSCENC =         0.27177942
  Ewald energy   TEWEN  =      7135.18033272
  -Hartree energ DENC   =     -8364.36058107
  -exchange      EXHF   =        39.96046151
  -V(xc)+E(xc)   XCENC  =       150.78255234
  PAW double counting   =      1361.88916882    -1366.35697577
  entropy T*S    EENTRO =        -0.04874125
  eigenvalues    EBANDS =      -669.48434426
  atomic energy  EATOM  =      1912.56957895
  ---------------------------------------------------
  free energy    TOTEN  =       190.05498240 eV

  energy without entropy =      190.10372365  energy(sigma->0) =      190.07935303
  exchange ACFDT corr.  =         0.00000000  see jH, gK, PRB 81, 115126


--------------------------------------------------------------------------------------------------------




--------------------------------------- Iteration      1(   6)  ---------------------------------------


    POTLOK:  cpu time    387.8566: real time    387.8767
    SETDIJ:  cpu time      0.1328: real time      0.1329
    TRIAL :  cpu time    250.3893: real time    250.4037
    CORREC:  cpu time      0.1032: real time      0.1032
    CHARGE:  cpu time      2.9072: real time      2.9074
    --------------------------------------------
      LOOP:  cpu time    641.3988: real time    641.4400

 eigenvalue-minimisations  :     0
 total energy-change (2. order) : 0.1728497E+03  (-0.1542313E+04)
 number of electron      61.0000003 magnetization       2.9477226
 augmentation part        0.6272178 magnetization       0.3084837

 Free energy of the ion-electron system (eV)
  ---------------------------------------------------
  alpha Z        PSCENC =         0.27177942
  Ewald energy   TEWEN  =      7135.18033272
  -Hartree energ DENC   =     -3651.21311401
  -exchange      EXHF   =        70.34785424
  -V(xc)+E(xc)   XCENC  =        95.78441162
  PAW double counting   =      4025.32768725    -4028.64775258
  entropy T*S    EENTRO =        -0.05313802
  eigenvalues    EBANDS =     -1670.28352021
  atomic energy  EATOM  =      1912.56957895
  ---------------------------------------------------
  free energy    TOTEN  =       362.90467523 eV

  energy without entropy =      362.95781326  energy(sigma->0) =      362.93124425
  exchange ACFDT corr.  =        -0.00322618  see jH, gK, PRB 81, 115126


--------------------------------------------------------------------------------------------------------




--------------------------------------- Iteration      1(   7)  ---------------------------------------


    POTLOK:  cpu time    389.6987: real time    389.7129
    SETDIJ:  cpu time      0.1292: real time      0.1292
    TRIAL :  cpu time    249.9257: real time    249.9327
    CORREC:  cpu time      0.0038: real time      0.0038
    CHARGE:  cpu time      3.2335: real time      3.2336
    --------------------------------------------
      LOOP:  cpu time    643.0002: real time    643.0278

 eigenvalue-minimisations  :     0
 total energy-change (2. order) : 0.6761832E+02  (-0.2613540E+04)
 number of electron      61.0000004 magnetization       1.1560104
 augmentation part        0.9269050 magnetization       0.2494141

 Free energy of the ion-electron system (eV)
  ---------------------------------------------------
  alpha Z        PSCENC =         0.27177942
  Ewald energy   TEWEN  =      7135.18033272
  -Hartree energ DENC   =     -4577.28850548
  -exchange      EXHF   =        79.09652650
  -V(xc)+E(xc)   XCENC  =       108.41998642
  PAW double counting   =      3375.97947301    -3380.01824545
  entropy T*S    EENTRO =        -0.05649992
  eigenvalues    EBANDS =     -1644.30646693
  atomic energy  EATOM  =      1912.56957895
  ---------------------------------------------------
  free energy    TOTEN  =       430.52299917 eV

  energy without entropy =      430.57949909  energy(sigma->0) =      430.55124913
  exchange ACFDT corr.  =        -0.00558684  see jH, gK, PRB 81, 115126


--------------------------------------------------------------------------------------------------------




--------------------------------------- Iteration      1(   8)  ---------------------------------------


    POTLOK:  cpu time    404.2920: real time    404.3014
    SETDIJ:  cpu time      0.1145: real time      0.1145
    TRIAL :  cpu time    233.8613: real time    233.8758
    CORREC:  cpu time      0.1751: real time      0.1751
    CHARGE:  cpu time      2.9933: real time      2.9934
    --------------------------------------------
      LOOP:  cpu time    641.4538: real time    641.4882

 eigenvalue-minimisations  :     0
 total energy-change (2. order) :-0.1365994E+03  (-0.1110769E+04)
 number of electron      61.0000004 magnetization       0.9999992
 augmentation part        0.9409309 magnetization       0.2297350

 Free energy of the ion-electron system (eV)
  ---------------------------------------------------
  alpha Z        PSCENC =         0.27177942
  Ewald energy   TEWEN  =      7135.18033272
  -Hartree energ DENC   =     -5423.57985772
  -exchange      EXHF   =        80.85673664
  -V(xc)+E(xc)   XCENC  =       112.36919659
  PAW double counting   =      3972.23908694    -3975.79513139
  entropy T*S    EENTRO =        -0.02571409
  eigenvalues    EBANDS =     -1904.07774675
  atomic energy  EATOM  =      1912.56957895
  ---------------------------------------------------
  free energy    TOTEN  =       293.92363041 eV

  energy without entropy =      293.94934450  energy(sigma->0) =      293.93648746
  exchange ACFDT corr.  =        -0.02947339  see jH, gK, PRB 81, 115126


--------------------------------------------------------------------------------------------------------




--------------------------------------- Iteration      1(   9)  ---------------------------------------


    POTLOK:  cpu time    395.4009: real time    395.4172
    SETDIJ:  cpu time      0.1322: real time      0.1322
    TRIAL :  cpu time    235.8483: real time    235.8581
    CORREC:  cpu time      0.0046: real time      0.0046
    CHARGE:  cpu time      2.7881: real time      2.7882
    --------------------------------------------
      LOOP:  cpu time    634.1856: real time    634.2184

 eigenvalue-minimisations  :     0
 total energy-change (2. order) :-0.2707816E+03  (-0.2570982E+03)
 number of electron      61.0000004 magnetization       0.9946773
 augmentation part        0.9428669 magnetization       0.2111583

 Free energy of the ion-electron system (eV)
  ---------------------------------------------------
  alpha Z        PSCENC =         0.27177942
  Ewald energy   TEWEN  =      7135.18033272
  -Hartree energ DENC   =     -6850.41377805
  -exchange      EXHF   =       104.02973642
  -V(xc)+E(xc)   XCENC  =       131.66512681
  PAW double counting   =      5690.66068282    -5694.61269809
  entropy T*S    EENTRO =        -0.00063043
  eigenvalues    EBANDS =     -1223.91030917
  atomic energy  EATOM  =      1912.56957895
  ---------------------------------------------------
  free energy    TOTEN  =        23.14204504 eV

  energy without entropy =       23.14267547  energy(sigma->0) =       23.14236026
  exchange ACFDT corr.  =        -0.03176354  see jH, gK, PRB 81, 115126


--------------------------------------------------------------------------------------------------------




--------------------------------------- Iteration      1(  10)  ---------------------------------------


    POTLOK:  cpu time    387.9306: real time    387.9435
    SETDIJ:  cpu time      0.1353: real time      0.1353
    TRIAL :  cpu time    234.8138: real time    234.8202
    CORREC:  cpu time      0.0059: real time      0.0059
    CHARGE:  cpu time      3.1753: real time      3.1754
    --------------------------------------------
      LOOP:  cpu time    626.0659: real time    626.0924

 eigenvalue-minimisations  :     0
 total energy-change (2. order) :-0.9901407E+02  (-0.8244289E+02)
 number of electron      61.0000005 magnetization       1.0000001
 augmentation part        1.0006206 magnetization       0.1777524

 Free energy of the ion-electron system (eV)
  ---------------------------------------------------
  alpha Z        PSCENC =         0.27177942
  Ewald energy   TEWEN  =      7135.18033272
  -Hartree energ DENC   =     -7559.26933995
  -exchange      EXHF   =       117.56099465
  -V(xc)+E(xc)   XCENC  =       142.25340795
  PAW double counting   =      6223.60422795    -6227.94801802
  entropy T*S    EENTRO =        -0.00000109
  eigenvalues    EBANDS =      -918.13403455
  atomic energy  EATOM  =      1912.56957895
  ---------------------------------------------------
  free energy    TOTEN  =       -75.87202518 eV

  energy without entropy =      -75.87202409  energy(sigma->0) =      -75.87202463
  exchange ACFDT corr.  =        -0.00029591  see jH, gK, PRB 81, 115126


--------------------------------------------------------------------------------------------------------




--------------------------------------- Iteration      1(  11)  ---------------------------------------


    POTLOK:  cpu time    374.1797: real time    374.1920
    SETDIJ:  cpu time      0.0764: real time      0.0764
    TRIAL :  cpu time    236.5795: real time    236.5890
    CORREC:  cpu time      0.0044: real time      0.0044
    CHARGE:  cpu time      2.7823: real time      2.7824
    --------------------------------------------
      LOOP:  cpu time    613.6335: real time    613.6616

 eigenvalue-minimisations  :     0
 total energy-change (2. order) :-0.4492524E+02  (-0.4139446E+02)
 number of electron      61.0000005 magnetization       1.0000001
 augmentation part        1.0849396 magnetization       0.1371373

 Free energy of the ion-electron system (eV)
  ---------------------------------------------------
  alpha Z        PSCENC =         0.27177942
  Ewald energy   TEWEN  =      7135.18033272
  -Hartree energ DENC   =     -7863.41050457
  -exchange      EXHF   =       123.73700751
  -V(xc)+E(xc)   XCENC  =       146.86266391
  PAW double counting   =      6032.25430450    -6036.92911428
  entropy T*S    EENTRO =        -0.02192225
  eigenvalues    EBANDS =      -886.03902913
  atomic energy  EATOM  =      1912.56957895
  ---------------------------------------------------
  free energy    TOTEN  =      -120.79726061 eV

  energy without entropy =     -120.77533836  energy(sigma->0) =     -120.78629949
  exchange ACFDT corr.  =        -0.02147487  see jH, gK, PRB 81, 115126


--------------------------------------------------------------------------------------------------------




--------------------------------------- Iteration      1(  12)  ---------------------------------------


    POTLOK:  cpu time    346.5165: real time    346.5249
    SETDIJ:  cpu time      0.0799: real time      0.0798
    TRIAL :  cpu time    235.8596: real time    235.8718
    CORREC:  cpu time      0.0044: real time      0.0044
    CHARGE:  cpu time      2.7866: real time      2.7867
    --------------------------------------------
      LOOP:  cpu time    585.2594: real time    585.2862

 eigenvalue-minimisations  :     0
 total energy-change (2. order) :-0.2500400E+02  (-0.2186899E+02)
 number of electron      61.0000006 magnetization       0.9928135
 augmentation part        1.1768605 magnetization       0.0922132

 Free energy of the ion-electron system (eV)
  ---------------------------------------------------
  alpha Z        PSCENC =         0.27177942
  Ewald energy   TEWEN  =      7135.18033272
  -Hartree energ DENC   =     -8007.97990917
  -exchange      EXHF   =       126.69669505
  -V(xc)+E(xc)   XCENC  =       148.93299999
  PAW double counting   =      5740.62645620    -5745.55798759
  entropy T*S    EENTRO =        -0.00081343
  eigenvalues    EBANDS =      -906.73051457
  atomic energy  EATOM  =      1912.56957895
  ---------------------------------------------------
  free energy    TOTEN  =      -145.80125612 eV

  energy without entropy =     -145.80044269  energy(sigma->0) =     -145.80084941
  exchange ACFDT corr.  =        -0.06625268  see jH, gK, PRB 81, 115126


--------------------------------------------------------------------------------------------------------




--------------------------------------- Iteration      1(  13)  ---------------------------------------


    POTLOK:  cpu time    341.4861: real time    341.5027
    SETDIJ:  cpu time      0.0756: real time      0.0756
    TRIAL :  cpu time    235.4746: real time    235.4821
    CORREC:  cpu time      0.4201: real time      0.4201
    CHARGE:  cpu time      3.1871: real time      3.1872
    --------------------------------------------
      LOOP:  cpu time    580.6461: real time    580.6802

 eigenvalue-minimisations  :     0
 total energy-change (2. order) :-0.1343107E+02  (-0.1025824E+02)
 number of electron      61.0000006 magnetization       0.9953281
 augmentation part        1.2827215 magnetization       0.0901008

 Free energy of the ion-electron system (eV)
  ---------------------------------------------------
  alpha Z        PSCENC =         0.27177942
  Ewald energy   TEWEN  =      7135.18033272
  -Hartree energ DENC   =     -8137.04088007
  -exchange      EXHF   =       128.95041850
  -V(xc)+E(xc)   XCENC  =       150.71978965
  PAW double counting   =      5532.43357277    -5537.59879473
  entropy T*S    EENTRO =        -0.00051609
  eigenvalues    EBANDS =      -907.18299668
  atomic energy  EATOM  =      1912.56957895
  ---------------------------------------------------
  free energy    TOTEN  =      -159.23232479 eV

  energy without entropy =     -159.23180870  energy(sigma->0) =     -159.23206674
  exchange ACFDT corr.  =        -0.02538424  see jH, gK, PRB 81, 115126


--------------------------------------------------------------------------------------------------------




--------------------------------------- Iteration      1(  14)  ---------------------------------------


    POTLOK:  cpu time    319.4528: real time    319.4639
    SETDIJ:  cpu time      0.0722: real time      0.0722
    TRIAL :  cpu time    235.5040: real time    235.5135
    CORREC:  cpu time      0.3905: real time      0.3905
    CHARGE:  cpu time      2.7812: real time      2.7814
    --------------------------------------------
      LOOP:  cpu time    558.2204: real time    558.2504

 eigenvalue-minimisations  :     0
 total energy-change (2. order) :-0.1145409E+02  (-0.6793981E+01)
 number of electron      61.0000006 magnetization       1.0000000
 augmentation part        1.3246023 magnetization       0.0721016

 Free energy of the ion-electron system (eV)
  ---------------------------------------------------
  alpha Z        PSCENC =         0.27177942
  Ewald energy   TEWEN  =      7135.18033272
  -Hartree energ DENC   =     -8423.27602506
  -exchange      EXHF   =       132.39455967
  -V(xc)+E(xc)   XCENC  =       154.08067984
  PAW double counting   =      5490.55964817    -5495.98578828
  entropy T*S    EENTRO =        -0.00000000
  eigenvalues    EBANDS =      -836.36260130
  atomic energy  EATOM  =      1912.56957895
  ---------------------------------------------------
  free energy    TOTEN  =      -170.68641121 eV

  energy without entropy =     -170.68641121  energy(sigma->0) =     -170.68641121
  exchange ACFDT corr.  =        -0.00088598  see jH, gK, PRB 81, 115126


--------------------------------------------------------------------------------------------------------




--------------------------------------- Iteration      1(  15)  ---------------------------------------


    POTLOK:  cpu time    349.7972: real time    349.8137
    SETDIJ:  cpu time      0.0784: real time      0.0784
    TRIAL :  cpu time    235.8594: real time    235.8730
    CORREC:  cpu time      0.5569: real time      0.5569
    CHARGE:  cpu time      3.3920: real time      3.3921
    --------------------------------------------
      LOOP:  cpu time    589.6898: real time    589.7283

 eigenvalue-minimisations  :     0
 total energy-change (2. order) :-0.4314447E+01  (-0.2870805E+01)
 number of electron      61.0000006 magnetization       0.9999999
 augmentation part        1.3476473 magnetization       0.0634910

 Free energy of the ion-electron system (eV)
  ---------------------------------------------------
  alpha Z        PSCENC =         0.27177942
  Ewald energy   TEWEN  =      7135.18033272
  -Hartree energ DENC   =     -8451.33655469
  -exchange      EXHF   =       132.80715309
  -V(xc)+E(xc)   XCENC  =       154.31115963
  PAW double counting   =      5399.53370019    -5405.03766436
  entropy T*S    EENTRO =        -0.00000000
  eigenvalues    EBANDS =      -854.78768116
  atomic energy  EATOM  =      1912.56957895
  ---------------------------------------------------
  free energy    TOTEN  =      -175.00085815 eV

  energy without entropy =     -175.00085815  energy(sigma->0) =     -175.00085815
  exchange ACFDT corr.  =         0.00000000  see jH, gK, PRB 81, 115126


--------------------------------------------------------------------------------------------------------




--------------------------------------- Iteration      1(  16)  ---------------------------------------


    POTLOK:  cpu time    342.1984: real time    342.2095
    SETDIJ:  cpu time      0.0745: real time      0.0745
    TRIAL :  cpu time    236.5730: real time    236.5789
    CORREC:  cpu time      0.3858: real time      0.3858
    CHARGE:  cpu time      3.5855: real time      3.5856
    --------------------------------------------
      LOOP:  cpu time    582.8268: real time    582.8558

 eigenvalue-minimisations  :     0
 total energy-change (2. order) :-0.1767355E+01  (-0.1257942E+01)
 number of electron      61.0000006 magnetization       0.9999999
 augmentation part        1.3657836 magnetization       0.0594441

 Free energy of the ion-electron system (eV)
  ---------------------------------------------------
  alpha Z        PSCENC =         0.27177942
  Ewald energy   TEWEN  =      7135.18033272
  -Hartree energ DENC   =     -8451.55326017
  -exchange      EXHF   =       132.73663874
  -V(xc)+E(xc)   XCENC  =       154.16302371
  PAW double counting   =      5345.57549479    -5351.11339594
  entropy T*S    EENTRO =        -0.00000000
  eigenvalues    EBANDS =      -872.85613971
  atomic energy  EATOM  =      1912.56957895
  ---------------------------------------------------
  free energy    TOTEN  =      -176.76821352 eV

  energy without entropy =     -176.76821352  energy(sigma->0) =     -176.76821352
  exchange ACFDT corr.  =        -0.00000000  see jH, gK, PRB 81, 115126


--------------------------------------------------------------------------------------------------------




--------------------------------------- Iteration      1(  17)  ---------------------------------------


    POTLOK:  cpu time    329.3319: real time    329.3398
    SETDIJ:  cpu time      0.0740: real time      0.0740
    TRIAL :  cpu time    232.6673: real time    232.6731
    CORREC:  cpu time      0.0017: real time      0.0017
    CHARGE:  cpu time      3.3985: real time      3.3986
    --------------------------------------------
      LOOP:  cpu time    565.4827: real time    565.5029

 eigenvalue-minimisations  :     0
 total energy-change (2. order) :-0.7771131E+00  (-0.6203067E+00)
 number of electron      61.0000006 magnetization       0.9999999
 augmentation part        1.3790157 magnetization       0.0571011

 Free energy of the ion-electron system (eV)
  ---------------------------------------------------
  alpha Z        PSCENC =         0.27177942
  Ewald energy   TEWEN  =      7135.18033272
  -Hartree energ DENC   =     -8458.73727536
  -exchange      EXHF   =       132.89183476
  -V(xc)+E(xc)   XCENC  =       154.26137444
  PAW double counting   =      5338.36191228    -5343.93726563
  entropy T*S    EENTRO =        -0.00000000
  eigenvalues    EBANDS =      -874.12194782
  atomic energy  EATOM  =      1912.56957895
  ---------------------------------------------------
  free energy    TOTEN  =      -177.54532666 eV

  energy without entropy =     -177.54532666  energy(sigma->0) =     -177.54532666
  exchange ACFDT corr.  =        -0.00000000  see jH, gK, PRB 81, 115126


--------------------------------------------------------------------------------------------------------




--------------------------------------- Iteration      1(  18)  ---------------------------------------


    POTLOK:  cpu time    324.9795: real time    324.9900
    SETDIJ:  cpu time      0.0769: real time      0.0769
    TRIAL :  cpu time    237.9046: real time    237.9113
    CORREC:  cpu time      0.1837: real time      0.1837
    CHARGE:  cpu time      3.3851: real time      3.3852
    --------------------------------------------
      LOOP:  cpu time    566.5370: real time    566.5597

 eigenvalue-minimisations  :     0
 total energy-change (2. order) :-0.4041375E+00  (-0.2908765E+00)
 number of electron      61.0000006 magnetization       0.9999999
 augmentation part        1.3863684 magnetization       0.0556296

 Free energy of the ion-electron system (eV)
  ---------------------------------------------------
  alpha Z        PSCENC =         0.27177942
  Ewald energy   TEWEN  =      7135.18033272
  -Hartree energ DENC   =     -8468.77734803
  -exchange      EXHF   =       133.14248694
  -V(xc)+E(xc)   XCENC  =       154.46247318
  PAW double counting   =      5353.31333865    -5358.92020598
  entropy T*S    EENTRO =        -0.00000000
  eigenvalues    EBANDS =      -868.70376632
  atomic energy  EATOM  =      1912.56957895
  ---------------------------------------------------
  free energy    TOTEN  =      -177.94946413 eV

  energy without entropy =     -177.94946413  energy(sigma->0) =     -177.94946413
  exchange ACFDT corr.  =        -0.00000000  see jH, gK, PRB 81, 115126


--------------------------------------------------------------------------------------------------------




--------------------------------------- Iteration      1(  19)  ---------------------------------------


    POTLOK:  cpu time    317.5459: real time    317.5533
    SETDIJ:  cpu time      0.0727: real time      0.0727
    TRIAL :  cpu time    235.8091: real time    235.8149
    CORREC:  cpu time      0.4121: real time      0.4121
    CHARGE:  cpu time      2.9733: real time      2.9734
    --------------------------------------------
      LOOP:  cpu time    556.8413: real time    556.8608

 eigenvalue-minimisations  :     0
 total energy-change (2. order) :-0.1928818E+00  (-0.1504977E+00)
 number of electron      61.0000006 magnetization       0.9999999
 augmentation part        1.3896410 magnetization       0.0546491

 Free energy of the ion-electron system (eV)
  ---------------------------------------------------
  alpha Z        PSCENC =         0.27177942
  Ewald energy   TEWEN  =      7135.18033272
  -Hartree energ DENC   =     -8474.08597585
  -exchange      EXHF   =       133.29102153
  -V(xc)+E(xc)   XCENC  =       154.57771748
  PAW double counting   =      5370.58431675    -5376.20646931
  entropy T*S    EENTRO =        -0.00000000
  eigenvalues    EBANDS =      -865.44563627
  atomic energy  EATOM  =      1912.56957895
  ---------------------------------------------------
  free energy    TOTEN  =      -178.14234594 eV

  energy without entropy =     -178.14234594  energy(sigma->0) =     -178.14234594
  exchange ACFDT corr.  =        -0.00000000  see jH, gK, PRB 81, 115126


--------------------------------------------------------------------------------------------------------




--------------------------------------- Iteration      1(  20)  ---------------------------------------


    POTLOK:  cpu time    294.4855: real time    294.4955
    SETDIJ:  cpu time      0.0744: real time      0.0744
    TRIAL :  cpu time    235.2913: real time    235.2981
    CORREC:  cpu time      0.3270: real time      0.3270
    CHARGE:  cpu time      3.1690: real time      3.1691
    --------------------------------------------
      LOOP:  cpu time    533.3534: real time    533.3760

 eigenvalue-minimisations  :     0
 total energy-change (2. order) :-0.1064411E+00  (-0.7921127E-01)
 number of electron      61.0000006 magnetization       0.9999999
 augmentation part        1.3910933 magnetization       0.0538959

 Free energy of the ion-electron system (eV)
  ---------------------------------------------------
  alpha Z        PSCENC =         0.27177942
  Ewald energy   TEWEN  =      7135.18033272
  -Hartree energ DENC   =     -8475.08262732
  -exchange      EXHF   =       133.33088290
  -V(xc)+E(xc)   XCENC  =       154.59726865
  PAW double counting   =      5385.27145765    -5390.89603850
  entropy T*S    EENTRO =        -0.00000000
  eigenvalues    EBANDS =      -865.40021693
  atomic energy  EATOM  =      1912.56957895
  ---------------------------------------------------
  free energy    TOTEN  =      -178.24878706 eV

  energy without entropy =     -178.24878706  energy(sigma->0) =     -178.24878706
  exchange ACFDT corr.  =        -0.00000000  see jH, gK, PRB 81, 115126


--------------------------------------------------------------------------------------------------------




--------------------------------------- Iteration      1(  21)  ---------------------------------------


    POTLOK:  cpu time    304.5729: real time    304.5802
    SETDIJ:  cpu time      0.0764: real time      0.0764
    TRIAL :  cpu time    235.4029: real time    235.4088
    CORREC:  cpu time      0.3864: real time      0.3865
    CHARGE:  cpu time      2.9881: real time      2.9881
    --------------------------------------------
      LOOP:  cpu time    543.4510: real time    543.4704

 eigenvalue-minimisations  :     0
 total energy-change (2. order) :-0.5939070E-01  (-0.3712910E-01)
 number of electron      61.0000006 magnetization       0.9999999
 augmentation part        1.3922694 magnetization       0.0532495

 Free energy of the ion-electron system (eV)
  ---------------------------------------------------
  alpha Z        PSCENC =         0.27177942
  Ewald energy   TEWEN  =      7135.18033272
  -Hartree energ DENC   =     -8474.30352314
  -exchange      EXHF   =       133.32483973
  -V(xc)+E(xc)   XCENC  =       154.57770745
  PAW double counting   =      5397.86249952    -5403.48447313
  entropy T*S    EENTRO =        -0.00000000
  eigenvalues    EBANDS =      -866.55585630
  atomic energy  EATOM  =      1912.56957895
  ---------------------------------------------------
  free energy    TOTEN  =      -178.30817775 eV

  energy without entropy =     -178.30817775  energy(sigma->0) =     -178.30817775
  exchange ACFDT corr.  =        -0.00000000  see jH, gK, PRB 81, 115126


--------------------------------------------------------------------------------------------------------




--------------------------------------- Iteration      1(  22)  ---------------------------------------


    POTLOK:  cpu time    299.3877: real time    299.4013
    SETDIJ:  cpu time      0.0735: real time      0.0735
    TRIAL :  cpu time    236.0100: real time    236.0168
    CORREC:  cpu time      0.0017: real time      0.0017
    CHARGE:  cpu time      2.9705: real time      2.9706
    --------------------------------------------
      LOOP:  cpu time    538.4507: real time    538.4776

 eigenvalue-minimisations  :     0
 total energy-change (2. order) :-0.2792300E-01  (-0.1754514E-01)
 number of electron      61.0000006 magnetization       0.9999999
 augmentation part        1.3934050 magnetization       0.0527135

 Free energy of the ion-electron system (eV)
  ---------------------------------------------------
  alpha Z        PSCENC =         0.27177942
  Ewald energy   TEWEN  =      7135.18033272
  -Hartree energ DENC   =     -8473.89250949
  -exchange      EXHF   =       133.32634390
  -V(xc)+E(xc)   XCENC  =       154.56905198
  PAW double counting   =      5409.16072053    -5414.78105104
  entropy T*S    EENTRO =        -0.00000000
  eigenvalues    EBANDS =      -867.07386802
  atomic energy  EATOM  =      1912.56957895
  ---------------------------------------------------
  free energy    TOTEN  =      -178.33610075 eV

  energy without entropy =     -178.33610075  energy(sigma->0) =     -178.33610075
  exchange ACFDT corr.  =        -0.00000000  see jH, gK, PRB 81, 115126


--------------------------------------------------------------------------------------------------------




--------------------------------------- Iteration      1(  23)  ---------------------------------------


    POTLOK:  cpu time    288.8494: real time    288.8561
    SETDIJ:  cpu time      0.0775: real time      0.0775
    TRIAL :  cpu time    236.2421: real time    236.2479
    CORREC:  cpu time      0.3460: real time      0.3460
    CHARGE:  cpu time      3.3727: real time      3.3728
    --------------------------------------------
      LOOP:  cpu time    528.8994: real time    528.9177

 eigenvalue-minimisations  :     0
 total energy-change (2. order) :-0.1358455E-01  (-0.9470282E-02)
 number of electron      61.0000006 magnetization       0.9999999
 augmentation part        1.3943172 magnetization       0.0522803

 Free energy of the ion-electron system (eV)
  ---------------------------------------------------
  alpha Z        PSCENC =         0.27177942
  Ewald energy   TEWEN  =      7135.18033272
  -Hartree energ DENC   =     -8474.12332202
  -exchange      EXHF   =       133.34123392
  -V(xc)+E(xc)   XCENC  =       154.57609160
  PAW double counting   =      5418.09156349    -5423.71205704
  entropy T*S    EENTRO =        -0.00000000
  eigenvalues    EBANDS =      -866.90841017
  atomic energy  EATOM  =      1912.56957895
  ---------------------------------------------------
  free energy    TOTEN  =      -178.34968531 eV

  energy without entropy =     -178.34968531  energy(sigma->0) =     -178.34968531
  exchange ACFDT corr.  =        -0.00000000  see jH, gK, PRB 81, 115126


--------------------------------------------------------------------------------------------------------




--------------------------------------- Iteration      1(  24)  ---------------------------------------


    POTLOK:  cpu time    286.1165: real time    286.1259
    SETDIJ:  cpu time      0.0798: real time      0.0797
    TRIAL :  cpu time    234.6852: real time    234.6969
    CORREC:  cpu time      0.6061: real time      0.6061
    CHARGE:  cpu time      2.9840: real time      2.9841
    --------------------------------------------
      LOOP:  cpu time    524.4819: real time    524.5103

 eigenvalue-minimisations  :     0
 total energy-change (2. order) :-0.7698139E-02  (-0.5707605E-02)
 number of electron      61.0000006 magnetization       0.9999999
 augmentation part        1.3949671 magnetization       0.0519430

 Free energy of the ion-electron system (eV)
  ---------------------------------------------------
  alpha Z        PSCENC =         0.27177942
  Ewald energy   TEWEN  =      7135.18033272
  -Hartree energ DENC   =     -8474.40924340
  -exchange      EXHF   =       133.35564100
  -V(xc)+E(xc)   XCENC  =       154.58475082
  PAW double counting   =      5424.31601882    -5429.93714450
  entropy T*S    EENTRO =        -0.00000000
  eigenvalues    EBANDS =      -866.66702187
  atomic energy  EATOM  =      1912.56957895
  ---------------------------------------------------
  free energy    TOTEN  =      -178.35738344 eV

  energy without entropy =     -178.35738344  energy(sigma->0) =     -178.35738344
  exchange ACFDT corr.  =        -0.00000000  see jH, gK, PRB 81, 115126


--------------------------------------------------------------------------------------------------------




--------------------------------------- Iteration      1(  25)  ---------------------------------------


    POTLOK:  cpu time    270.4512: real time    270.4578
    SETDIJ:  cpu time      0.0799: real time      0.0799
    TRIAL :  cpu time    235.5511: real time    235.5658
    CORREC:  cpu time      0.1552: real time      0.1552
    CHARGE:  cpu time      3.1698: real time      3.1699
    --------------------------------------------
      LOOP:  cpu time    509.4095: real time    509.4390

 eigenvalue-minimisations  :     0
 total energy-change (2. order) :-0.4816247E-02  (-0.3653447E-02)
 number of electron      61.0000006 magnetization       0.9999999
 augmentation part        1.3954378 magnetization       0.0516824

 Free energy of the ion-electron system (eV)
  ---------------------------------------------------
  alpha Z        PSCENC =         0.27177942
  Ewald energy   TEWEN  =      7135.18033272
  -Hartree energ DENC   =     -8474.47848473
  -exchange      EXHF   =       133.36323867
  -V(xc)+E(xc)   XCENC  =       154.58833548
  PAW double counting   =      5428.46305616    -5434.08463739
  entropy T*S    EENTRO =        -0.00000000
  eigenvalues    EBANDS =      -866.61313376
  atomic energy  EATOM  =      1912.56957895
  ---------------------------------------------------
  free energy    TOTEN  =      -178.36219969 eV

  energy without entropy =     -178.36219969  energy(sigma->0) =     -178.36219969
  exchange ACFDT corr.  =        -0.00000000  see jH, gK, PRB 81, 115126


--------------------------------------------------------------------------------------------------------




--------------------------------------- Iteration      1(  26)  ---------------------------------------


    POTLOK:  cpu time    269.8956: real time    269.9083
    SETDIJ:  cpu time      0.0748: real time      0.0748
    TRIAL :  cpu time    237.1734: real time    237.1801
    CORREC:  cpu time      0.1392: real time      0.1392
    CHARGE:  cpu time      2.9756: real time      2.9757
    --------------------------------------------
      LOOP:  cpu time    510.2683: real time    510.2946

 eigenvalue-minimisations  :     0
 total energy-change (2. order) :-0.3142310E-02  (-0.2427852E-02)
 number of electron      61.0000006 magnetization       0.9999999
 augmentation part        1.3958206 magnetization       0.0514927

 Free energy of the ion-electron system (eV)
  ---------------------------------------------------
  alpha Z        PSCENC =         0.27177942
  Ewald energy   TEWEN  =      7135.18033272
  -Hartree energ DENC   =     -8474.39579468
  -exchange      EXHF   =       133.36602974
  -V(xc)+E(xc)   XCENC  =       154.58829001
  PAW double counting   =      5431.29103769    -5436.91289773
  entropy T*S    EENTRO =        -0.00000000
  eigenvalues    EBANDS =      -866.68906119
  atomic energy  EATOM  =      1912.56957895
  ---------------------------------------------------
  free energy    TOTEN  =      -178.36534200 eV

  energy without entropy =     -178.36534200  energy(sigma->0) =     -178.36534200
  exchange ACFDT corr.  =        -0.00000000  see jH, gK, PRB 81, 115126


--------------------------------------------------------------------------------------------------------




--------------------------------------- Iteration      1(  27)  ---------------------------------------


    POTLOK:  cpu time    271.1651: real time    271.1715
    SETDIJ:  cpu time      0.0776: real time      0.0776
    TRIAL :  cpu time    233.0619: real time    233.0679
    CORREC:  cpu time      0.3855: real time      0.3856
    CHARGE:  cpu time      2.7824: real time      2.7825
    --------------------------------------------
      LOOP:  cpu time    507.4815: real time    507.5084

 eigenvalue-minimisations  :     0
 total energy-change (2. order) :-0.2140345E-02  (-0.1646238E-02)
 number of electron      61.0000006 magnetization       0.9999999
 augmentation part        1.3961347 magnetization       0.0513572

 Free energy of the ion-electron system (eV)
  ---------------------------------------------------
  alpha Z        PSCENC =         0.27177942
  Ewald energy   TEWEN  =      7135.18033272
  -Hartree energ DENC   =     -8474.32717373
  -exchange      EXHF   =       133.36819245
  -V(xc)+E(xc)   XCENC  =       154.58831277
  PAW double counting   =      5433.34499385    -5438.96716367
[...]
    TRIAL :  cpu time    237.5830: real time    237.5939
    CORREC:  cpu time      0.2232: real time      0.2232
    CHARGE:  cpu time      3.1791: real time      3.1792
    --------------------------------------------
      LOOP:  cpu time    450.9490: real time    450.9814

 eigenvalue-minimisations  :     0
 total energy-change (2. order) :-0.8256098E-05  (-0.4040107E-05)
 number of electron      61.0000006 magnetization       0.9999999
 augmentation part        1.3973661 magnetization       0.0506617

 Free energy of the ion-electron system (eV)
  ---------------------------------------------------
  alpha Z        PSCENC =         0.27177942
  Ewald energy   TEWEN  =      7135.18033272
  -Hartree energ DENC   =     -8474.16980903
  -exchange      EXHF   =       133.39167927
  -V(xc)+E(xc)   XCENC  =       154.59691578
  PAW double counting   =      5439.91919251    -5445.54329754
  entropy T*S    EENTRO =        -0.00000000
  eigenvalues    EBANDS =      -866.81417347
  atomic energy  EATOM  =      1912.56957895
  ---------------------------------------------------
  free energy    TOTEN  =      -178.37455887 eV

  energy without entropy =     -178.37455887  energy(sigma->0) =     -178.37455887
  exchange ACFDT corr.  =         0.00000000  see jH, gK, PRB 81, 115126


--------------------------------------------------------------------------------------------------------


  average scaling for gradient   1.8078


 average (electrostatic) potential at core
  the test charge radii are     0.6991  0.5201
  (the norm of the test charge is              1.0000)
       1 -55.9943       2 -55.6487       3 -55.9964       4 -55.6902       5 -55.9072
       6 -56.4566       7 -56.8734       8 -56.7317       9 -55.4015      10 -54.8402
      11 -54.8564      12 -55.2945      13 -38.0273      14 -38.1532      15 -37.5499
      16 -37.5111      17 -37.5477      18 -37.5220      19 -38.3437      20 -38.2130
      21 -38.9152      22 -38.5255      23 -38.3145      24 -38.4299      25 -38.3009
      26 -38.6039
 
 
 
 E-fermi :  -6.8598     XC(G=0):  -0.0323     alpha+bet : -0.0248

 Fermi energy:        -6.8597595785

 spin component 1

 k-point     1 :       0.0000    0.0000    0.0000
  band No.  band energies     occupation 
      1     -24.9361      1.00000
      2     -23.9918      1.00000
      3     -22.2044      1.00000
      4     -21.5618      1.00000
      5     -21.2328      1.00000
      6     -20.6036      1.00000
      7     -18.1596      1.00000
      8     -17.9331      1.00000
      9     -16.6432      1.00000
     10     -16.9522      1.00000
     11     -15.1492      1.00000
     12     -14.7170      1.00000
     13     -13.7716      1.00000
     14     -13.2684      1.00000
     15     -11.4128      1.00000
     16     -13.1270      1.00000
     17     -12.1956      1.00000
     18     -12.5047      1.00000
     19     -12.1274      1.00000
     20     -11.9576      1.00000
     21     -11.4611      1.00000
     22     -10.7362      1.00000
     23     -10.2165      1.00000
     24     -11.0970      1.00000
     25      -9.2186      1.00000
     26      -9.9279      1.00000
     27      -9.1567      1.00000
     28      -8.9870      1.00000
     29      -8.7036      1.00000
     30      -0.1061      0.00000
     31      -7.7972      1.00000
     32      -1.3534      0.00000
     33      -2.7870      0.00000
     34      -7.1519      1.00000
     35       0.1806      0.00000
     36      -0.4861      0.00000
     37       0.0939      0.00000
     38       0.0123      0.00000
     39       0.0152      0.00000
     40       0.1189      0.00000
     41       0.0301      0.00000
     42       0.1119      0.00000
     43       0.1210      0.00000
     44       0.0965      0.00000
     45       0.1837      0.00000
     46      -0.3340      0.00000
     47       0.1907      0.00000
     48       0.1844      0.00000
     49       0.1918      0.00000
     50       0.1906      0.00000
     51       0.2395      0.00000
     52       0.2352      0.00000
     53       0.2315      0.00000
     54       0.1885      0.00000
     55       0.1945      0.00000
     56       0.1273      0.00000
     57       0.2509      0.00000
     58       0.2732      0.00000
     59       0.2850      0.00000
     60       0.4080      0.00000
     61       0.3120      0.00000
     62       0.2960      0.00000
     63       0.3722      0.00000
 Fermi energy:        -6.8597595785

 spin component 2

 k-point     1 :       0.0000    0.0000    0.0000
  band No.  band energies     occupation 
      1     -24.7449      1.00000
      2     -23.7845      1.00000
      3     -22.1173      1.00000
      4     -21.4617      1.00000
      5     -21.1226      1.00000
      6     -20.3649      1.00000
      7     -18.0870      1.00000
      8     -17.8121      1.00000
      9     -16.8251      1.00000
     10     -16.5726      1.00000
     11     -14.5946      1.00000
     12     -15.1022      1.00000
     13     -13.7002      1.00000
     14     -13.0028      1.00000
     15     -13.2093      1.00000
     16     -12.1590      1.00000
     17     -12.3781      1.00000
     18     -12.0107      1.00000
     19     -11.4185      1.00000
     20     -11.8560      1.00000
     21     -11.1897      1.00000
     22     -10.9283      1.00000
     23     -10.4312      1.00000
     24      -9.1687      1.00000
     25      -9.8964      1.00000
     26     -10.1861      1.00000
     27      -7.6678      1.00000
     28      -9.0972      1.00000
     29      -0.3808      0.00000
     30       0.0375      0.00000
     31      -8.9412      1.00000
     32      -8.0801      1.00000
     33       0.0129      0.00000
     34      -5.4110      0.00000
     35      -0.1019      0.00000
     36      -1.9487      0.00000
     37      -0.0041      0.00000
     38      -1.1365      0.00000
     39       0.0963      0.00000
     40       0.1227      0.00000
     41       0.1269      0.00000
     42       0.1113      0.00000
     43       0.0940      0.00000
     44       0.1797      0.00000
     45       0.1838      0.00000
     46       0.1153      0.00000
     47       0.1845      0.00000
     48       0.1889      0.00000
     49       0.1899      0.00000
     50       0.1913      0.00000
     51       0.1915      0.00000
     52       0.1915      0.00000
     53       0.2292      0.00000
     54       0.2408      0.00000
     55       0.2312      0.00000
     56       0.2708      0.00000
     57       0.4188      0.00000
     58       0.2887      0.00000
     59       0.2761      0.00000
     60       0.3114      0.00000
     61       0.3295      0.00000
     62       0.2466      0.00000
     63       0.3025      0.00000


--------------------------------------------------------------------------------------------------------


 soft charge-density along one line, spin component           1
         0         1         2         3         4         5         6         7         8         9
 total charge-density along one line
 
 soft charge-density along one line, spin component           2
         0         1         2         3         4         5         6         7         8         9
 total charge-density along one line
 
 pseudopotential strength for first ion, spin component:           1
 10.053  13.368   0.002  -0.000  -0.000  -0.007   0.000   0.000
 13.368  17.777   0.003  -0.000  -0.000  -0.010   0.000   0.001
  0.002   0.003  -4.257   0.004   0.001   8.299  -0.008  -0.003
 -0.000  -0.000   0.004  -4.270  -0.001  -0.008   8.325   0.001
 -0.000  -0.000   0.001  -0.001  -4.257  -0.003   0.001   8.297
 -0.007  -0.010   8.299  -0.008  -0.003 -18.297   0.015   0.005
  0.000   0.000  -0.008   8.325   0.001   0.015 -18.352  -0.002
  0.000   0.001  -0.003   0.001   8.297   0.005  -0.002 -18.293
 pseudopotential strength for first ion, spin component:           2
 10.035  13.344   0.002   0.000  -0.000  -0.007  -0.001   0.000
 13.344  17.744   0.003   0.000  -0.000  -0.009  -0.001   0.000
  0.002   0.003  -4.255  -0.000   0.001   8.299   0.000  -0.003
  0.000   0.000  -0.000  -4.251   0.000   0.000   8.296  -0.001
 -0.000  -0.000   0.001   0.000  -4.256  -0.003  -0.001   8.299
 -0.007  -0.009   8.299   0.000  -0.003 -18.305   0.002   0.005
 -0.001  -0.001   0.000   8.296  -0.001   0.002 -18.305   0.001
  0.000   0.000  -0.003  -0.001   8.299   0.005   0.001 -18.303
 total augmentation occupancy for first ion, spin component:           1
  8.613  -3.853   0.152   0.009   0.176   0.036   0.003   0.032
 -3.853   1.761  -0.119  -0.007  -0.102  -0.023  -0.002  -0.018
  0.152  -0.119   1.747   0.151  -0.004   0.158   0.019  -0.007
  0.009  -0.007   0.151   1.105   0.006   0.019   0.073   0.001
  0.176  -0.102  -0.004   0.006   1.881  -0.007   0.001   0.177
  0.036  -0.023   0.158   0.019  -0.007   0.015   0.002  -0.001
  0.003  -0.002   0.019   0.073   0.001   0.002   0.005   0.000
  0.032  -0.018  -0.007   0.001   0.177  -0.001   0.000   0.018
 total augmentation occupancy for first ion, spin component:           2
 -0.011   0.013   0.004  -0.001  -0.004   0.001   0.000  -0.001
  0.013  -0.009  -0.003  -0.003   0.004  -0.000  -0.000   0.001
  0.004  -0.003   0.011  -0.034  -0.001   0.000  -0.001  -0.000
 -0.001  -0.003  -0.034   0.145   0.009  -0.001   0.004   0.000
 -0.004   0.004  -0.001   0.009   0.005  -0.000   0.000   0.000
  0.001  -0.000   0.000  -0.001  -0.000   0.000   0.000  -0.000
  0.000  -0.000  -0.001   0.004   0.000   0.000  -0.000  -0.000
 -0.001   0.001  -0.000   0.000   0.000  -0.000  -0.000  -0.000


------------------------ aborting loop because EDIFF is reached ----------------------------------------


    FORLOC:  cpu time      0.3377: real time      0.3377
    FORHF :  cpu time    104.3263: real time    104.3290
    FORNL :  cpu time      5.0636: real time      5.0637
    STRESS:  cpu time     15.4499: real time     15.4503
    FORCOR:  cpu time     15.3212: real time     15.3215
    OFIELD:  cpu time      0.0202: real time      0.0202
 WARNING: Using user supplied parameters
     VDW_A1 = 0.383
     VDW_A2 = 5.685
     VDW_S8 = 2.31
     because the xc functional is not supported. Required parameters not
     defined in the INCAR file will be replaced with PBE defaults ones.


 ---------------------------------------------------------------------------------------------

         DFTD3 V3.0 Rev 1        
 IVDW         = 12
 DF unknown   
 parameters
 VDW_S6       =    1.0000
 VDW_S8       =    2.3100
 VDW_A1       =    0.3830
 VDW_A2       =    5.6850
 k1-k3        =   16.0000    1.3333   -4.0000
 VDW_RADIUS   =   50.2022 A
 VDW_CNRADIUS =   21.1671 A
 Edisp (eV)   -0.54002

 E6    (eV) :    -0.2810
 E8    (eV) :    -0.2590
 % E8        : 47.96
    FORVDW:  cpu time      0.0096: real time      0.0098

  FORCE on cell =-STRESS in cart. coord.  units (eV):
  Direction    XX          YY          ZZ          XY          YZ          ZX
  --------------------------------------------------------------------------------------
  Alpha Z     0.27178     0.27178     0.27178
  Ewald    4620.39258  2517.16156    -2.37405   -11.48878    30.20559     0.88893
  Hartree  4598.27446  2757.27324  1118.62366   -17.92530   -21.92059     0.90608
  E(xc)    -166.20606  -166.47911  -168.34197    -0.00489     0.15491     0.00136
  Local   -9784.04274 -5838.61061 -1731.58915    30.61878     2.37028    -0.66377
  n-local   -74.11927   -75.25470   -69.08080    -0.01498    -1.05446     0.02006
  augment    -2.54403    -2.58357    -2.67811    -0.00450    -0.03541    -0.01145
  Kinetic   862.23326   863.40608   907.57718    -0.92128    -8.93363    -1.10984
  Fock      -59.07361   -58.79544   -55.05886    -0.10395    -0.53943    -0.02909
  vdW        -0.33127    -0.13502    -0.02189     0.00093     0.00801    -0.00057
  -------------------------------------------------------------------------------------
  Total      -5.14488    -3.74578    -2.67222     0.15603     0.25526     0.00171
  in kB      -0.12880    -0.09377    -0.06690     0.00391     0.00639     0.00004
  external pressure =       -0.10 kB  Pullay stress =        0.00 kB


 VOLUME and BASIS-vectors are now :
 -----------------------------------------------------------------------------
  energy-cutoff  :      500.00
  volume of cell :    64000.00
      direct lattice vectors                 reciprocal lattice vectors
    40.000000000  0.000000000  0.000000000     0.025000000  0.000000000  0.000000000
     0.000000000 40.000000000  0.000000000     0.000000000  0.025000000  0.000000000
     0.000000000  0.000000000 40.000000000     0.000000000  0.000000000  0.025000000

  length of vectors
    40.000000000 40.000000000 40.000000000     0.025000000  0.025000000  0.025000000


 FORCES acting on ions:
    Electron-Ion                     Ewald-Force                    Non-Local-Force
 -----------------------------------------------------------------------------------------------
   -.170E+02 0.178E+03 0.361E+02   0.180E+02 -.179E+03 -.361E+02   0.187E+00 0.210E+01 0.763E-01
   -.155E+03 0.162E+03 0.310E+02   0.156E+03 -.164E+03 -.313E+02   -.121E+01 0.187E+01 0.350E+00
   -.228E+03 -.684E+00 -.615E+01   0.230E+03 0.709E+00 0.618E+01   -.181E+01 0.435E-01 -.560E-01
   -.153E+03 -.162E+03 -.363E+02   0.155E+03 0.163E+03 0.366E+02   -.105E+01 -.189E+01 -.380E+00
   -.188E+02 -.175E+03 -.331E+02   0.195E+02 0.177E+03 0.331E+02   0.364E+00 -.214E+01 -.630E-02
   -.180E+02 0.591E+01 0.223E+01   0.194E+02 -.566E+01 -.237E+01   -.509E+00 -.396E-02 0.111E+00
   0.101E+01 -.188E+01 0.775E+01   -.120E+01 0.435E+01 -.837E+01   0.497E+00 -.195E+01 0.502E+00
   0.101E+02 0.178E+03 -.258E+02   -.112E+02 -.179E+03 0.261E+02   0.884E+00 0.194E+01 -.279E+00
   0.134E+03 0.157E+03 -.366E+02   -.138E+03 -.156E+03 0.373E+02   0.272E+01 -.868E+00 -.663E+00
   0.204E+03 -.162E+02 -.639E+02   -.206E+03 0.179E+02 0.641E+02   0.114E+01 -.103E+01 -.127E+00
   0.136E+03 -.122E+03 0.105E+03   -.139E+03 0.123E+03 -.106E+03   0.130E+01 -.329E+00 0.533E+00
   0.145E+02 -.175E+03 0.181E+02   -.167E+02 0.177E+03 -.193E+02   0.163E+01 -.210E+01 0.895E+00
   -.193E+02 -.685E+02 0.554E+02   0.217E+02 0.717E+02 -.591E+02   -.256E+01 -.323E+01 0.364E+01
   0.569E+01 -.653E+02 -.637E+02   -.571E+01 0.681E+02 0.681E+02   -.132E+00 -.273E+01 -.458E+01
   0.519E+02 -.760E+02 0.136E+02   -.547E+02 0.809E+02 -.138E+02   0.259E+01 -.482E+01 0.888E-01
   0.276E+02 0.435E+01 0.858E+02   -.281E+02 -.596E+01 -.910E+02   0.220E+00 0.186E+01 0.505E+01
   0.919E+02 0.627E+01 0.943E+01   -.974E+02 -.679E+01 -.107E+02   0.528E+01 0.659E+00 0.132E+01
   0.349E+02 -.282E+02 -.774E+02   -.352E+02 0.303E+02 0.824E+02   -.112E-01 -.201E+01 -.501E+01
   0.432E+02 0.630E+02 0.500E+02   -.451E+02 -.658E+02 -.538E+02   0.169E+01 0.296E+01 0.393E+01
   0.352E+02 0.593E+02 -.605E+02   -.367E+02 -.622E+02 0.647E+02   0.124E+01 0.308E+01 -.423E+01
   -.169E+02 0.855E+02 -.118E+02   0.196E+02 -.904E+02 0.124E+02   -.283E+01 0.515E+01 -.573E+00
   0.124E+02 -.839E+02 -.182E+02   -.150E+02 0.887E+02 0.192E+02   0.282E+01 -.501E+01 -.972E+00
   -.515E+02 -.722E+02 -.164E+02   0.543E+02 0.770E+02 0.175E+02   -.287E+01 -.492E+01 -.111E+01
   -.895E+02 -.307E+00 -.264E+01   0.952E+02 0.341E+00 0.281E+01   -.584E+01 -.274E-01 -.183E+00
   -.525E+02 0.719E+02 0.146E+02   0.555E+02 -.766E+02 -.156E+02   -.296E+01 0.488E+01 0.100E+01
   0.125E+02 0.838E+02 0.214E+02   -.148E+02 -.885E+02 -.226E+02   0.266E+01 0.504E+01 0.126E+01
 -----------------------------------------------------------------------------------------------
   -.359E+01 0.364E+01 -.577E+00   -.355E-13 -.426E-13 -.497E-13   0.340E+01 -.346E+01 0.585E+00
 
 
 POSITION                                       TOTAL-FORCE (eV/Angst)
 -----------------------------------------------------------------------------------
     21.90437     18.74418     19.77342         0.070287      0.140713      0.033158
     23.28865     18.76007     19.79320        -0.126170      0.153488      0.025742
     23.97456     19.95786     20.05252        -0.215092      0.010344     -0.012891
     23.26247     21.15344     20.26681        -0.117988     -0.158038     -0.025487
     21.88007     21.15511     20.21803         0.126726     -0.121509     -0.024718
     21.15960     19.94663     19.98491        -0.002516     -0.037125      0.005045
     19.71686     19.96165     19.96695         0.148380     -0.050360      0.017229
     18.99814     18.77652     20.17742         0.126430      0.049057     -0.012795
     17.53601     18.71081     20.31001        -0.121671     -0.134879     -0.063678
     16.81414     20.05852     20.32825         0.069074      0.026311      0.021872
     17.50308     21.03648     19.37768         0.029051     -0.059141     -0.018241
     18.96405     21.24835     19.78872         0.001017      0.071678      0.059020
     19.48957     21.88217     19.06071        -0.117473     -0.165439      0.148856
     18.99799     21.80034     20.74697        -0.009728     -0.137210     -0.199397
     16.98844     22.00670     19.36881         0.119510     -0.219454      0.021814
     17.46780     20.64323     18.34812         0.003417      0.087600      0.238664
     15.75974     19.91916     20.05601         0.239567      0.017310      0.051914
     16.83184     20.46693     21.35106         0.000315     -0.079386     -0.225382
     17.19020     18.08133     19.45883         0.111327      0.187574      0.180553
     17.29391     18.07908     21.18438         0.076859      0.179598     -0.191640
     19.53663     17.83325     20.27754        -0.126790      0.235961     -0.020574
     21.33960     22.08306     20.39630         0.110349     -0.216171     -0.055174
     23.80266     22.07649     20.47479        -0.132846     -0.210074     -0.056026
     25.06425     19.96327     20.08642        -0.252786     -0.000407     -0.015061
     23.84582     17.84308     19.60516        -0.133017      0.207390      0.047260
     21.38946     17.81227     19.54698         0.123766      0.222169      0.069937
 -----------------------------------------------------------------------------------
    total drift:                               -0.015003     -0.006365      0.038227


--------------------------------------------------------------------------------------------------------



  FREE ENERGIE OF THE ION-ELECTRON SYSTEM (eV)
  ---------------------------------------------------
  free  energy   TOTEN  =      -178.91458359 eV

  energy  without entropy=     -178.91458359  energy(sigma->0) =     -178.91458359
 


--------------------------------------------------------------------------------------------------------


    POTLOK:  cpu time    217.1739: real time    217.1809


--------------------------------------------------------------------------------------------------------


 writing wavefunctions
     LOOP+:  cpu time  31127.0932: real time  31130.5332
    4ORBIT:  cpu time      0.0000: real time      0.0000

 total amount of memory used by VASP MPI-rank0   769426. kBytes
=======================================================================

   base      :      30000. kBytes
   nonlr-proj:       3992. kBytes
   fftplans  :     224335. kBytes
   grid      :     401872. kBytes
   one-center:         18. kBytes
   HF        :          9. kBytes
   wavefun   :     109200. kBytes
   fock_wrk  :          0. kBytes
 
  
  
 General timing and accounting informations for this job:
 ========================================================
  
                  Total CPU time used (sec):    31188.350
                            User time (sec):    17204.642
                          System time (sec):    13983.708
                         Elapsed time (sec):    31192.766
  
                   Maximum memory used (kb):     2458824.
                   Average memory used (kb):          N/A
  
                          Minor page faults:    153240404
                          Major page faults:            2
                 Voluntary context switches:         4187
