
                                 *****************
                                 * O   R   C   A *
                                 *****************

                                            #,                                       
                                            ###                                      
                                            ####                                     
                                            #####                                    
                                            ######                                   
                                           ########,                                 
                                     ,,################,,,,,                         
                               ,,#################################,,                 
                          ,,##########################################,,             
                       ,#########################################, ''#####,          
                    ,#############################################,,   '####,        
                  ,##################################################,,,,####,       
                ,###########''''           ''''###############################       
              ,#####''   ,,,,##########,,,,          '''####'''          '####       
            ,##' ,,,,###########################,,,                        '##       
           ' ,,###''''                  '''############,,,                           
         ,,##''                                '''############,,,,        ,,,,,,###''
      ,#''                                            '''#######################'''  
     '                                                          ''''####''''         
             ,#######,   #######,   ,#######,      ##                                
            ,#'     '#,  ##    ##  ,#'     '#,    #''#        ,####,   ,####,        
            ##       ##  ##   ,#'  ##            #'  '#       #'       #'  '#        
            ##       ##  #######   ##           ,######,      #####,   #    #        
            '#,     ,#'  ##    ##  '#,     ,#' ,#      #,     #,   #   #,  ,#        
             '#######'   ##     ##  '#######'  #'      '#     '####' # '####'        



                #########################################################
                #                        -***-                          #
                #          Department of theory and spectroscopy        #
                #                                                       #
                #                      Frank Neese                      #
                #                                                       #
                #     Directorship, Architecture, Infrastructure        #
                #                    SHARK, DRIVERS                     #
                #        Core code/Algorithms in most modules           #
                #                                                       #
                #        Max Planck Institute fuer Kohlenforschung      #
                #                Kaiser Wilhelm Platz 1                 #
                #                 D-45470 Muelheim/Ruhr                 #
                #                      Germany                          #
                #                                                       #
                #                  All rights reserved                  #
                #                        -***-                          #
                #########################################################


                         Program Version 6.0.0  -   RELEASE  -


 With contributions from (in alphabetic order):
   Daniel Aravena         : Magnetic Suceptibility
   Michael Atanasov       : Ab Initio Ligand Field Theory (pilot matlab implementation)
   Alexander A. Auer      : GIAO ZORA, VPT2 properties, NMR spectrum
   Ute Becker             : All parallelization in ORCA, NUMFREQ, NUMCALC
   Giovanni Bistoni       : ED, misc. LED, open-shell LED, HFLD
   Martin Brehm           : Molecular dynamics
   Dmytro Bykov           : pre 5.0 version of the SCF Hessian
   Marcos Casanova-Páez   : Triplet and SCS-CIS(D). UHF-(DLPNO)-IP/EA/STEOM-CCSD. UHF-CVS-IP/STEOM-CCSD
   Vijay G. Chilkuri      : MRCI spin determinant printing, contributions to CSF-ICE
   Pauline Colinet        : FMM embedding
   Dipayan Datta          : RHF DLPNO-CCSD density
   Achintya Kumar Dutta   : EOM-CC, STEOM-CC
   Nicolas Foglia         : Exact transition moments, OPA infrastructure, MCD improvements
   Dmitry Ganyushin       : Spin-Orbit,Spin-Spin,Magnetic field MRCI
   Miquel Garcia          : C-PCM and meta-GGA Hessian, CCSD/C-PCM, Gaussian charge scheme
   Tiago L. C. Gouveia    : GS-ROHF, GS-ROCIS
   Yang Guo               : DLPNO-NEVPT2, F12-NEVPT2, CIM, IAO-localization
   Andreas Hansen         : Spin unrestricted coupled pair/coupled cluster methods
   Ingolf Harden          : AUTO-CI MPn and infrastructure 
   Benjamin Helmich-Paris : MC-RPA, TRAH-(SCF,CASSCF), AVAS, COSX integrals, SCF dyn. polar.
   Lee Huntington         : MR-EOM, pCC
   Robert Izsak           : Overlap fitted RIJCOSX, COSX-SCS-MP3, EOM
   Riya Kayal             : Wick's Theorem for AUTO-CI, AUTO-CI UHF-CCSDT
   Emily Kempfer          : AUTO-CI, RHF CISDT and CCSDT
   Christian Kollmar      : KDIIS, OOCD, Brueckner-CCSD(T), CCSD density, CASPT2, CASPT2-K, improved NEVPT2
   Axel Koslowski         : Symmetry handling
   Simone Kossmann        : Meta GGA functionals, TD-DFT gradient, OOMP2, (MP2 Hessian; deprecated post 5.0)
   Lucas Lang             : DCDCAS
   Marvin Lechner         : AUTO-CI (C++ implementation), FIC-MRCC
   Spencer Leger          : CASSCF response
   Dagmar Lenk            : GEPOL surface, SMD, ORCA-2-JSON
   Dimitrios Liakos       : Extrapolation schemes; Compound Job, initial MDCI parallelization
   Dimitrios Manganas     : Further ROCIS development; embedding schemes. LFT, Crystal Embedding
   Dimitrios Pantazis     : SARC Basis sets
   Anastasios Papadopoulos: AUTO-CI, single reference methods and gradients
   Taras Petrenko         : pre 6.0 DFT Hessian and TD-DFT gradient, (ASA, deprecated), ECA, 1-Electron XAS/XES, NRVS
   Peter Pinski           : DLPNO-MP2, DLPNO-MP2 Gradient
   Christoph Reimann      : Effective Core Potentials
   Marius Retegan         : Local ZFS, SOC
   Christoph Riplinger    : Optimizer, TS searches, QM/MM, DLPNO-CCSD(T), (RO)-DLPNO pert. Triples
   Michael Roemelt        : Original ROCIS implementation
   Masaaki Saitow         : Open-shell DLPNO-CCSD energy and density
   Barbara Sandhoefer     : DKH picture change effects
   Kantharuban Sivalingam : CASSCF convergence/infrastructure, NEVPT2 and variants, FIC-MRCI
   Bernardo de Souza      : ESD, SOC TD-DFT
   Georgi Stoychev        : AutoAux, RI-MP2 NMR, DLPNO-MP2 response, X2C
   Van Anh Tran           : RI-MP2 g-tensors
   Willem Van den Heuvel  : Paramagnetic NMR
   Zikuan Wang            : NOTCH, Electric field optimization 
   Frank Wennmohs         : Technical directorship and infrastructure
   Hang Xu                : AUTO-CI-Response properties 


 We gratefully acknowledge several colleagues who have allowed us to
 interface, adapt or use parts of their codes:
   Stefan Grimme, W. Hujo, H. Kruse, P. Pracht,  : VdW corrections, initial TS optimization,
                  C. Bannwarth, S. Ehlert,         DFT functionals, gCP, sTDA/sTD-DF
                  L. Wittmann, M. Mueller
   Ed Valeev, F. Pavosevic, A. Kumar             : LibInt (2-el integral package), F12 methods
   Garnet Chan, S. Sharma, J. Yang, R. Olivares  : DMRG
   Ulf Ekstrom                                   : XCFun DFT Library
   Mihaly Kallay                                 : mrcc  (arbitrary order and MRCC methods)
   Frank Weinhold                                : gennbo (NPA and NBO analysis)
   Simon Mueller                                 : openCOSMO-RS
   Christopher J. Cramer and Donald G. Truhlar   : smd solvation model
   Lars Goerigk                                  : TD-DFT with DH, B97 family of functionals
   V. Asgeirsson, H. Jonsson                     : NEB implementation
   FAccTs GmbH                                   : IRC, NEB, NEB-TS, DLPNO-Multilevel, CI-OPT
                                                   MM, QMMM, 2- and 3-layer-ONIOM, Crystal-QMMM,
                                                   LR-CPCM, SF, NACMEs, symmetry and pop. for TD-DFT,
                                                   nearIR, NL-DFT gradient (VV10), updates on ESD,
                                                   ML-optimized integration grids, MBIS, APM,
                                                   GOAT, DOCKER, SOLVATOR, interface openCOSMO-RS
   S Lehtola, MJT Oliveira, MAL Marques          : LibXC Library
   Liviu Ungur et al                             : ANISO software


 Your calculation uses the libint2 library for the computation of 2-el integrals
 For citations please refer to: http://libint.valeyev.net

 Your ORCA version has been built with support for libXC version: 6.2.2
 For citations please refer to: https://libxc.gitlab.io

 This ORCA versions uses:
   CBLAS   interface :  Fast vector & matrix operations
   LAPACKE interface :  Fast linear algebra routines
   SCALAPACK package :  Parallel linear algebra routines
   Shared memory     :  Shared parallel matrices
   BLAS/LAPACK       :  OpenBLAS 0.3.27  USE64BITINT DYNAMIC_ARCH NO_AFFINITY Sandybridge SINGLE_THREADED
        Core in use  :  Sandybridge
   Copyright (c) 2011-2014, The OpenBLAS Project


NOTE: MaxCore=5000 MB was set to SCF,MP2,MDCI,CIPSI,MRCI and CIS
      => If you want to overwrite this, your respective input block should be placed after the MaxCore statement
Your calculation utilizes the atom-pairwise dispersion correction
with the Becke-Johnson damping scheme (D3BJ)


Your calculation utilizes the SMD solvation module
Please cite in your paper:
A.V. Marenich, C.J. Cramer, D.G. Truhlar J. Phys. Chem. B, 113, (2009), 6378 

Warning: RI is on but no J-basis has been assigned. Assigning Def2/J (nothing to worry about!)
================================================================================

----- Orbital basis set information -----
Your calculation utilizes the basis: aug-cc-pVTZ 
    H, B-Ne : Obtained from the ccRepo (grant-hill.group.shef.ac.uk/ccrepo) Feb. 2017
              R. A. Kendall, T. H. Dunning, Jr., R. J. Harrison, J. Chem. Phys. 96, 6796 (1992)
         He : Obtained from the ccRepo (grant-hill.group.shef.ac.uk/ccrepo) Feb. 2017
              D. E. Woon, T. H. Dunning, Jr., J. Chem. Phys. 100, 2975 (1994)
  Li-Be, Na : Obtained from the ccRepo (grant-hill.group.shef.ac.uk/ccrepo) Feb. 2017
              B. P. Prascher, D. E. Woon, K. A. Peterson, T. H. Dunning, Jr., A. K. Wilson, Theor. Chem. Acc. 128, 69 (2011)
         Mg : Obtained from the Peterson Research Group Website (tyr0.chem.wsu.edu/~kipeters) Feb. 2017
              B. P. Prascher, D. E. Woon, K. A. Peterson, T. H. Dunning, Jr., A. K. Wilson, Theor. Chem. Acc. 128, 69 (2011)
      Al-Ar : Obtained from the ccRepo (grant-hill.group.shef.ac.uk/ccrepo) Feb. 2017
              D. E. Woon, T. H. Dunning, Jr., J. Chem. Phys. 98, 1358 (1993)
      Sc-Zn : Obtained from the ccRepo (grant-hill.group.shef.ac.uk/ccrepo) Feb. 2017
              N. B. Balabanov, K. A. Peterson, J. Chem. Phys. 123, 064107 (2005)
              N. B. Balabanov, K. A. Peterson, J. Chem. Phys. 125, 074110 (2006)
      Ga-Kr : Obtained from the ccRepo (grant-hill.group.shef.ac.uk/ccrepo) Feb. 2017
              A. K. Wilson, D. E. Woon, K. A. Peterson, T. H. Dunning, Jr., J. Chem. Phys. 110, 7667 (1999)
     Ag, Au : Obtained from the Peterson Research Group Website (tyr0.chem.wsu.edu/~kipeters) Feb. 2017
              K. A. Peterson, C. Puzzarini, Theor. Chem. Acc. 114, 283 (2005)

----- AuxJ basis set information -----
Your calculation utilizes the auxiliary basis: def2/J
   F. Weigend, Phys. Chem. Chem. Phys. 8, 1057 (2006).

================================================================================
                                        WARNINGS
                       Please study these warnings very carefully!
================================================================================


WARNING: your system is open-shell and RHF/RKS was chosen
  ===> : WILL SWITCH to UHF/UKS


================================================================================
                                       INPUT FILE
================================================================================
NAME = cs_rporg_061_ox_freq_04.inp
|  1> !PBE0 freq aug-cc-pVTZ d3 TightSCF SlowConv RIJCOSX defgrid2
|  2> 
|  3> %pal
|  4> nprocs 12
|  5> end
|  6> 
|  7> %scf
|  8> MaxIter 1500
|  9> end
| 10> 
| 11> %maxcore 5000
| 12> 
| 13> !CPCM
| 14> %cpcm smd true
| 15> SMDsolvent "MeCN"
| 16> surfacetype gepol_ses
| 17> rsolv 2.19
| 18> end 
| 19> 
| 20> * xyz 1 2
| 21>   C           1.35423168573074     -0.83120208483891      0.60748599233717
| 22>   C           2.61548152908295     -1.37919905473566      0.62028781699726
| 23>   C           3.69305290399427     -0.67776344754674      0.07893191510268
| 24>   C           3.51483523448736      0.59956162379208     -0.46064803554183
| 25>   C           2.26739427513915      1.17308652136513     -0.47152494478391
| 26>   C           1.18640419737287      0.43813421927932      0.03365371945954
| 27>   O           0.00003597198491      1.06879234843169     -0.00035379661164
| 28>   C          -1.18645214992888      0.43806225431071     -0.03394838323585
| 29>   C          -2.26731491451031      1.17303603763476      0.47128490797063
| 30>   C          -3.51478356450288      0.59946642205633      0.46069896840848
| 31>   C          -3.69306229092087     -0.67788020477284     -0.07876439928168
| 32>   C          -2.61557541080940     -1.37927868781672     -0.62028641542006
| 33>   C          -1.35429593903183     -0.83125882829356     -0.60763756547791
| 34>   H          -0.52194702211177     -1.33514150420127     -1.07888388191367
| 35>   H          -2.77373409340813     -2.34673144812847     -1.07755414023313
| 36>   H          -4.68194198896063     -1.11714094578013     -0.09985270732251
| 37>   H          -4.35991564883122      1.13819541136944      0.86766797792562
| 38>   H          -2.08959910084635      2.15765176230599      0.88303627276710
| 39>   H           2.08968057183498      2.15760771551617     -0.88350696076325
| 40>   H           4.36006126326922      1.13823489878157     -0.86750500931391
| 41>   H           4.68195839087513     -1.11695418988576      0.10027802448963
| 42>   H           2.77366242789513     -2.34653814492832      1.07783495892037
| 43>   H           0.52185447219553     -1.33498497391480      1.07877128552091
| 44> *
| 45> 
| 46>                          ****END OF INPUT****
================================================================================

                       ****************************
                       * Single Point Calculation *
                       ****************************

---------------------------------
CARTESIAN COORDINATES (ANGSTROEM)
---------------------------------
  C      1.354232   -0.831202    0.607486
  C      2.615482   -1.379199    0.620288
  C      3.693053   -0.677763    0.078932
  C      3.514835    0.599562   -0.460648
  C      2.267394    1.173087   -0.471525
  C      1.186404    0.438134    0.033654
  O      0.000036    1.068792   -0.000354
  C     -1.186452    0.438062   -0.033948
  C     -2.267315    1.173036    0.471285
  C     -3.514784    0.599466    0.460699
  C     -3.693062   -0.677880   -0.078764
  C     -2.615575   -1.379279   -0.620286
  C     -1.354296   -0.831259   -0.607638
  H     -0.521947   -1.335142   -1.078884
  H     -2.773734   -2.346731   -1.077554
  H     -4.681942   -1.117141   -0.099853
  H     -4.359916    1.138195    0.867668
  H     -2.089599    2.157652    0.883036
  H      2.089681    2.157608   -0.883507
  H      4.360061    1.138235   -0.867505
  H      4.681958   -1.116954    0.100278
  H      2.773662   -2.346538    1.077835
  H      0.521854   -1.334985    1.078771

----------------------------
CARTESIAN COORDINATES (A.U.)
----------------------------
  NO LB      ZA    FRAG     MASS         X           Y           Z
   0 C     6.0000    0    12.011    2.559127   -1.570744    1.147982
   1 C     6.0000    0    12.011    4.942544   -2.606308    1.172174
   2 C     6.0000    0    12.011    6.978859   -1.280787    0.149160
   3 C     6.0000    0    12.011    6.642076    1.133007   -0.870499
   4 C     6.0000    0    12.011    4.284754    2.216812   -0.891053
   5 C     6.0000    0    12.011    2.241979    0.827954    0.063596
   6 O     8.0000    0    15.999    0.000068    2.019725   -0.000669
   7 C     6.0000    0    12.011   -2.242070    0.827818   -0.064153
   8 C     6.0000    0    12.011   -4.284604    2.216717    0.890599
   9 C     6.0000    0    12.011   -6.641978    1.132827    0.870595
  10 C     6.0000    0    12.011   -6.978876   -1.281008   -0.148843
  11 C     6.0000    0    12.011   -4.942721   -2.606459   -1.172171
  12 C     6.0000    0    12.011   -2.559248   -1.570852   -1.148269
  13 H     1.0000    0     1.008   -0.986337   -2.523052   -2.038795
  14 H     1.0000    0     1.008   -5.241598   -4.434680   -2.036282
  15 H     1.0000    0     1.008   -8.847588   -2.111090   -0.188694
  16 H     1.0000    0     1.008   -8.239047    2.150878    1.639655
  17 H     1.0000    0     1.008   -3.948770    4.077371    1.668697
  18 H     1.0000    0     1.008    3.948924    4.077288   -1.669586
  19 H     1.0000    0     1.008    8.239322    2.150952   -1.639347
  20 H     1.0000    0     1.008    8.847619   -2.110738    0.189498
  21 H     1.0000    0     1.008    5.241462   -4.434314    2.036813
  22 H     1.0000    0     1.008    0.986162   -2.522756    2.038582

--------------------------------
INTERNAL COORDINATES (ANGSTROEM)
--------------------------------
 C      0   0   0     0.000000000000     0.00000000     0.00000000
 C      1   0   0     1.375214795254     0.00000000     0.00000000
 C      2   1   0     1.395076410659   120.29379332     0.00000000
 C      3   2   1     1.398022674613   120.70981374     1.22320527
 C      4   3   2     1.373010583481   120.03491261   359.48293121
 C      5   4   3     1.401392135477   118.61355066   358.33318173
 O      6   5   4     1.344007348650   115.19399629   179.48858194
 C      7   6   5     1.344136567214   124.02987508   155.01983325
 C      8   7   6     1.401324893298   115.19669468   154.99124027
 C      9   8   7     1.373052147133   118.61316606   179.48355387
 C     10   9   8     1.398005162524   120.03406100   358.32803195
 C     11  10   9     1.395056953243   120.70878311   359.48267077
 C     12  11  10     1.375249673973   120.29376946     1.22991932
 H     13  12  11     1.081099237504   121.08893075   183.90711440
 H     12  11  10     1.081699026750   120.05528564   182.93327503
 H     11  10   9     1.082255872020   119.66217401   181.07340458
 H     10   9   8     1.081712040515   119.92633000   178.50203003
 H      9   8   7     1.081938178506   119.19757243   357.64917369
 H      5   4   3     1.081939611792   122.16447287   180.22953114
 H      4   3   2     1.081715551347   120.03619103   179.31130640
 H      3   2   1     1.082256081769   119.60995855   179.63063689
 H      2   1   3     1.081718770867   119.62995723   178.28388152
 H      1   2   3     1.081091509776   121.09026349   183.92024369

---------------------------
INTERNAL COORDINATES (A.U.)
---------------------------
 C      0   0   0     0.000000000000     0.00000000     0.00000000
 C      1   0   0     2.598779338347     0.00000000     0.00000000
 C      2   1   0     2.636312352039   120.29379332     0.00000000
 C      3   2   1     2.641879984031   120.70981374     1.22320527
 C      4   3   2     2.594613981754   120.03491261   359.48293121
 C      5   4   3     2.648247342283   118.61355066   358.33318173
 O      6   5   4     2.539805810926   115.19399629   179.48858194
 C      7   6   5     2.540049998624   124.02987508   155.01983325
 C      8   7   6     2.648120272979   115.19669468   154.99124027
 C      9   8   7     2.594692525673   118.61316606   179.48355387
 C     10   9   8     2.641846890979   120.03406100   358.32803195
 C     11  10   9     2.636275582852   120.70878311   359.48267077
 C     12  11  10     2.598845249574   120.29376946     1.22991932
 H     13  12  11     2.042981482474   121.08893075   183.90711440
 H     12  11  10     2.044114919887   120.05528564   182.93327503
 H     11  10   9     2.045167204946   119.66217401   181.07340458
 H     10   9   8     2.044139512338   119.92633000   178.50203003
 H      9   8   7     2.044566851209   119.19757243   357.64917369
 H      5   4   3     2.044569559728   122.16447287   180.22953114
 H      4   3   2     2.044146146849   120.03619103   179.31130640
 H      3   2   1     2.045167601314   119.60995855   179.63063689
 H      2   1   3     2.044152230860   119.62995723   178.28388152
 H      1   2   3     2.042966879184   121.09026349   183.92024369

---------------------
BASIS SET INFORMATION
---------------------
There are 3 groups of distinct atoms

 Group   1 Type C   : 19s6p3d2f contracted to 5s4p3d2f pattern {88111/3111/111/11}
 Group   2 Type O   : 19s6p3d2f contracted to 5s4p3d2f pattern {88111/3111/111/11}
 Group   3 Type H   : 6s3p2d contracted to 4s3p2d pattern {3111/111/11}

Atom   0C    basis set group =>   1
Atom   1C    basis set group =>   1
Atom   2C    basis set group =>   1
Atom   3C    basis set group =>   1
Atom   4C    basis set group =>   1
Atom   5C    basis set group =>   1
Atom   6O    basis set group =>   2
Atom   7C    basis set group =>   1
Atom   8C    basis set group =>   1
Atom   9C    basis set group =>   1
Atom  10C    basis set group =>   1
Atom  11C    basis set group =>   1
Atom  12C    basis set group =>   1
Atom  13H    basis set group =>   3
Atom  14H    basis set group =>   3
Atom  15H    basis set group =>   3
Atom  16H    basis set group =>   3
Atom  17H    basis set group =>   3
Atom  18H    basis set group =>   3
Atom  19H    basis set group =>   3
Atom  20H    basis set group =>   3
Atom  21H    basis set group =>   3
Atom  22H    basis set group =>   3
---------------------------------
AUXILIARY/J BASIS SET INFORMATION
---------------------------------
There are 3 groups of distinct atoms

 Group   1 Type C   : 12s5p4d2f1g contracted to 6s4p3d1f1g pattern {711111/2111/211/2/1}
 Group   2 Type O   : 12s5p4d2f1g contracted to 6s4p3d1f1g pattern {711111/2111/211/2/1}
 Group   3 Type H   : 5s2p1d contracted to 3s1p1d pattern {311/2/1}

Atom   0C    basis set group =>   1
Atom   1C    basis set group =>   1
Atom   2C    basis set group =>   1
Atom   3C    basis set group =>   1
Atom   4C    basis set group =>   1
Atom   5C    basis set group =>   1
Atom   6O    basis set group =>   2
Atom   7C    basis set group =>   1
Atom   8C    basis set group =>   1
Atom   9C    basis set group =>   1
Atom  10C    basis set group =>   1
Atom  11C    basis set group =>   1
Atom  12C    basis set group =>   1
Atom  13H    basis set group =>   3
Atom  14H    basis set group =>   3
Atom  15H    basis set group =>   3
Atom  16H    basis set group =>   3
Atom  17H    basis set group =>   3
Atom  18H    basis set group =>   3
Atom  19H    basis set group =>   3
Atom  20H    basis set group =>   3
Atom  21H    basis set group =>   3
Atom  22H    basis set group =>   3


           ************************************************************
           *        Program running with 12 parallel MPI-processes    *
           *              working on a common directory               *
           ************************************************************
------------------------------------------------------------------------------
                             ORCA STARTUP CALCULATIONS
                           -- RI-GTO INTEGRALS CHOSEN --
------------------------------------------------------------------------------
------------------------------------------------------------------------------
                   ___                                                        
                  /   \      - P O W E R E D   B Y -                         
                 /     \                                                     
                 |  |  |   _    _      __       _____    __    __             
                 |  |  |  | |  | |    /  \     |  _  \  |  |  /  |          
                  \  \/   | |  | |   /    \    | | | |  |  | /  /          
                 / \  \   | |__| |  /  /\  \   | |_| |  |  |/  /          
                |  |  |   |  __  | /  /__\  \  |    /   |      \           
                |  |  |   | |  | | |   __   |  |    \   |  |\   \          
                \     /   | |  | | |  |  |  |  | |\  \  |  | \   \       
                 \___/    |_|  |_| |__|  |__|  |_| \__\ |__|  \__/        
                                                                              
                      - O R C A' S   B I G   F R I E N D -                    
                                      &                                       
                       - I N T E G R A L  F E E D E R -                       
                                                                              
 v1 FN, 2020, v2 2021, v3 2022-2024                                           
------------------------------------------------------------------------------


----------------------
SHARK INTEGRAL PACKAGE
----------------------

Number of atoms                             ...     23
Number of basis functions                   ...    906
Number of shells                            ...    350
Maximum angular momentum                    ...      3
Integral batch strategy                     ... SHARK/LIBINT Hybrid
RI-J (if used) integral strategy            ... SPLIT-RIJ (Revised 2003 algorithm where possible)
Printlevel                                  ...      1
Contraction scheme used                     ... PARTIAL GENERAL contraction
Prescreening option                         ... SCHWARTZ
   Thresh                                   ... 2.500e-11
   Tcut                                     ... 2.500e-12
   Tpresel                                  ... 2.500e-12 
Coulomb Range Separation                    ... NOT USED
Exchange Range Separation                   ... NOT USED
Multipole approximations                    ... NOT USED
Finite Nucleus Model                        ... NOT USED
CABS basis                                  ... NOT available
Auxiliary Coulomb fitting basis             ... AVAILABLE
   # of basis functions in Aux-J            ...    747
   # of shells in Aux-J                     ...    245
   Maximum angular momentum in Aux-J        ...      4
Auxiliary J/K fitting basis                 ... NOT available
Auxiliary Correlation fitting basis         ... NOT available
Auxiliary 'external' fitting basis          ... NOT available

Checking pre-screening integrals            ... done (  0.1 sec) Dimension = 350
Save PGC pre-screening integrals            ... done (  0.1 sec) Dimension = 350
Calculate PGC overlap integrals             ... done (  0.2 sec) Dimension = 272
Calculating pre-screening integrals (ORCA)  ... done (  0.3 sec) Dimension = 272
Check shell pair data                       ... done (  0.0 sec)
Shell pair information
Shell pair cut-off parameter TPreSel        ...   2.5e-12
Total number of shell pairs                 ...     61425
Shell pairs after pre-screening             ...     47800
Total number of primitive shell pairs       ...     78675
Primitive shell pairs kept                  ...     56482
          la=0 lb=0:  10752 shell pairs
          la=1 lb=0:  12218 shell pairs
          la=1 lb=1:   3067 shell pairs
          la=2 lb=0:   8425 shell pairs
          la=2 lb=1:   4292 shell pairs
          la=2 lb=2:   1544 shell pairs
          la=3 lb=0:   3856 shell pairs
          la=3 lb=1:   1932 shell pairs
          la=3 lb=2:   1386 shell pairs
          la=3 lb=3:    328 shell pairs

Calculating one electron integrals          ... done (  0.1 sec)
Calculating RI/J V-Matrix + Cholesky decomp.... done (  0.1 sec)
Calculating Nuclear repulsion               ... done (  0.0 sec) ENN=    706.655883287058 Eh

Diagonalization of the overlap matrix:
Smallest eigenvalue                        ... 4.957e-07
Time for diagonalization                   ...    0.224 sec
Threshold for overlap eigenvalues          ... 1.000e-07
Number of eigenvalues below threshold      ... 0

IMPORTANT:
Smallest eigenvalue of S below the DiffSThresh (1.000e-06) while
Thresh>1e-12 and/or TCut>1e-13! In order to avoid SCF convergence issues,
Thresh will be set to at least 1e-12 and TCut to at least 1e-13.
This can be turned off by adding %SCF DiffSThresh -1 END to the input.

Time for construction of square roots      ...    0.164 sec
Total time needed                          ...    0.443 sec

-------------------
DFT GRID GENERATION
-------------------

General Integration Accuracy     IntAcc      ... 4.388
Radial Grid Type                 RadialGrid  ... OptM3 with GC (2021)
Angular Grid (max. ang.)         AngularGrid ... 4 (Lebedev-302)
Angular grid pruning method      GridPruning ... 4 (adaptive)
Weight generation scheme         WeightScheme... mBecke (2022)
Basis function cutoff            BFCut       ... 1.0000e-11
Integration weight cutoff        WCut        ... 1.0000e-14
Partially contracted basis set               ... off
Rotationally invariant grid construction     ... off
Angular grids for H and He will be reduced by one unit
Diffuse basis detected: some atoms will have their outermost
                        angular grid increased by 1.

Total number of grid points                  ...   115284
Total number of batches                      ...     1812
Average number of points per batch           ...       63
Average number of grid points per atom       ...     5012

---------------------
SHARK GRID GENERATION
---------------------

General Integration Accuracy     IntAcc      ... 4.388
Radial Grid Type                 RadialGrid  ... OptM3 with GC (2021)
Angular Grid (max. ang.)         AngularGrid ... 4 (Lebedev-302)
Angular grid pruning method      GridPruning ... 4 (adaptive)
Weight generation scheme         WeightScheme... mBecke (2022)
Basis function cutoff            BFCut       ... 1.0000e-11
Integration weight cutoff        WCut        ... 1.0000e-14
Partially contracted basis set               ... off
Rotationally invariant grid construction     ... off
Angular grids for H and He will be reduced by one unit
Diffuse basis detected: some atoms will have their outermost
                        angular grid increased by 1.
Steep s-basis detected: some atoms will have their radial
                        grid points doubled.

Total number of grid points                  ...   197040
Total number of batches                      ...     3091
Average number of points per batch           ...       63
Average number of grid points per atom       ...     8567

--------------------
COSX GRID GENERATION
--------------------

GRIDX 1
-------
General Integration Accuracy     IntAcc      ... 3.816
Radial Grid Type                 RadialGrid  ... OptM3 with GC (2021)
Angular Grid (max. ang.)         AngularGrid ... 1 (Lebedev-50)
Angular grid pruning method      GridPruning ... 4 (adaptive)
Weight generation scheme         WeightScheme... mBecke (2022)
Basis function cutoff            BFCut       ... 1.0000e-11
Integration weight cutoff        WCut        ... 1.0000e-14
Partially contracted basis set               ... on
Rotationally invariant grid construction     ... off
Angular grids for H and He will be reduced by one unit
Diffuse basis detected: some atoms will have their outermost
                        angular grid increased by 1.

Total number of grid points                  ...    14516
Total number of batches                      ...      121
Average number of points per batch           ...      119
Average number of grid points per atom       ...      631
UseSFitting                                  ... on

GRIDX 2
-------
General Integration Accuracy     IntAcc      ... 4.020
Radial Grid Type                 RadialGrid  ... OptM3 with GC (2021)
Angular Grid (max. ang.)         AngularGrid ... 2 (Lebedev-110)
Angular grid pruning method      GridPruning ... 4 (adaptive)
Weight generation scheme         WeightScheme... mBecke (2022)
Basis function cutoff            BFCut       ... 1.0000e-11
Integration weight cutoff        WCut        ... 1.0000e-14
Partially contracted basis set               ... on
Rotationally invariant grid construction     ... off
Angular grids for H and He will be reduced by one unit
Diffuse basis detected: some atoms will have their outermost
                        angular grid increased by 1.

Total number of grid points                  ...    35217
Total number of batches                      ...      283
Average number of points per batch           ...      124
Average number of grid points per atom       ...     1531
UseSFitting                                  ... on

GRIDX 3
-------
General Integration Accuracy     IntAcc      ... 4.338
Radial Grid Type                 RadialGrid  ... OptM3 with GC (2021)
Angular Grid (max. ang.)         AngularGrid ... 3 (Lebedev-194)
Angular grid pruning method      GridPruning ... 4 (adaptive)
Weight generation scheme         WeightScheme... mBecke (2022)
Basis function cutoff            BFCut       ... 1.0000e-11
Integration weight cutoff        WCut        ... 1.0000e-14
Partially contracted basis set               ... on
Rotationally invariant grid construction     ... off
Angular grids for H and He will be reduced by one unit
Diffuse basis detected: some atoms will have their outermost
                        angular grid increased by 1.

Total number of grid points                  ...    77930
Total number of batches                      ...      623
Average number of points per batch           ...      125
Average number of grid points per atom       ...     3388
UseSFitting                                  ... on
Initializing property integral containers    ... done (  0.1 sec)

SHARK setup successfully completed in   9.6 seconds

Maximum memory used throughout the entire STARTUP-calculation: 93.9 MB


           ************************************************************
           *        Program running with 12 parallel MPI-processes    *
           *              working on a common directory               *
           ************************************************************
-------------------------------------------------------------------------------
                                 ORCA GUESS
                   Start orbitals & Density for SCF / CASSCF
-------------------------------------------------------------------------------

------------
SCF SETTINGS
------------
Hamiltonian:
 Density Functional     Method          .... DFT(GTOs)
 Exchange Functional    Exchange        .... PBE
   PBE kappa parameter   XKappa         ....  0.804000
   PBE mue parameter    XMuePBE         ....  0.219520
 Correlation Functional Correlation     .... PBE
   PBE beta parameter  CBetaPBE         ....  0.066725
 LDA part of GGA corr.  LDAOpt          .... PW91-LDA
 Gradients option       PostSCFGGA      .... off
 Hybrid DFT is turned on
   Fraction HF Exchange ScalHFX         ....  0.250000
   Scaling of DF-GGA-X  ScalDFX         ....  0.750000
   Scaling of DF-GGA-C  ScalDFC         ....  1.000000
   Scaling of DF-LDA-C  ScalLDAC        ....  1.000000
   Perturbative correction              ....  0.000000
   NL short-range parameter             ....  6.900000
 RI-approximation to the Coulomb term is turned on
   Number of AuxJ basis functions       .... 747
   RIJ-COSX (HFX calculated with COS-X)).... on


General Settings:
 Integral files         IntName         .... cs_rporg_061_ox_freq_04
 Hartree-Fock type      HFTyp           .... UHF
 Total Charge           Charge          ....    1
 Multiplicity           Mult            ....    2
 Number of Electrons    NEL             ....   89
 Basis Dimension        Dim             ....  828
 Nuclear Repulsion      ENuc            ....    706.6558832871 Eh

Convergence Acceleration:
 AO-DIIS                CNVDIIS         .... on
   Start iteration      DIISMaxIt       ....     0
   Startup error        DIISStart       ....  0.200000
   # of expansion vecs  DIISMaxEq       ....     5
   Bias factor          DIISBfac        ....   1.050
   Max. coefficient     DIISMaxC        ....  10.000
 MO-DIIS                CNVKDIIS        .... off
 Trust-Rad. Augm. Hess. CNVTRAH         .... auto
   Auto Start mean grad. ratio tolernc. ....  1.125000
   Auto Start start iteration           ....    50
   Auto Start num. interpolation iter.  ....    10
   Max. Number of Micro iterations      ....    24
   Max. Number of Macro iterations      .... Maxiter - #DIIS iter
   Number of Davidson start vectors     ....     2
   Converg. threshold    (grad. norm)   ....   1.000e-05
   Grad. Scal. Fac. for Micro threshold ....   0.100
   Minimum threshold for Micro iter.    ....   1.000e-02
   NR start threshold (gradient norm)   ....   1.000e-04
   Initial trust radius                 ....   0.400
   Minimum AH scaling param. (alpha)    ....   1.000
   Maximum AH scaling param. (alpha)    .... 1000.000
   Quad. conv. algorithm                .... NR
   White noise on init. David. guess    .... on
   Maximum white noise                  ....   0.010
   Pseudo random numbers                .... off
   Inactive MOs                         .... canonical
   Orbital update algorithm             .... Taylor
   Preconditioner                       .... Diag
   Full preconditioner red. dimension   ....   250
 SOSCF                  CNVSOSCF        .... on
   Start iteration      SOSCFMaxIt      ....   150
   Startup grad/error   SOSCFStart      ....  0.001000
   Hessian update       SOSCFHessUp     .... L-BFGS
 Level Shifting         CNVShift        .... on
   Level shift para.    LevelShift      ....    0.2500
   Turn off err/grad.   ShiftErr        ....    0.0000
 Zerner damping         CNVZerner       .... off
 Static damping         CNVDamp         .... on
   Fraction old density DampFac         ....    0.8500
   Max. Damping (<1)    DampMax         ....    0.9800
   Min. Damping (>=0)   DampMin         ....    0.0000
   Turn off err/grad.   DampErr         ....    0.0300

SCF Procedure:
 Maximum # iterations   MaxIter         ....  1500
 SCF integral mode      SCFMode         .... Direct
   Integral package                     .... SHARK and LIBINT hybrid scheme
 Reset frequency        DirectResetFreq ....    20
 Integral Threshold     Thresh          ....  1.000e-12 Eh
 Primitive CutOff       TCut            ....  1.000e-13 Eh

Convergence Tolerance:
 Convergence Check Mode ConvCheckMode   .... Total+1el-Energy
 Convergence forced     ConvForced      .... 0
 Energy Change          TolE            ....  1.000e-08 Eh
 1-El. energy change                    ....  1.000e-05 Eh
 Orbital Gradient       TolG            ....  1.000e-05
 Orbital Rotation angle TolX            ....  1.000e-05
 DIIS Error             TolErr          ....  5.000e-07

------------------------------
INITIAL GUESS: MODEL POTENTIAL
------------------------------
Loading Hartree-Fock densities                     ... done
Calculating cut-offs                               ... done
Initializing the effective Hamiltonian             ... done
Setting up the integral package (SHARK)            ... done
Starting the Coulomb interaction                   ... done (   0.6 sec)
Making the grid                                    ... done (   0.4 sec)
Mapping shells                                     ... done
Starting the XC term evaluation                    ... done (   0.5 sec)
  promolecular density results
     # of electrons  =     89.989018500
     EX              =    -72.518134190
     EC              =     -2.998687167
     EX+EC           =    -75.516821357
Transforming the Hamiltonian                       ... done (   0.2 sec)
Diagonalizing the Hamiltonian                      ... done (   0.2 sec)
Back transforming the eigenvectors                 ... done (   0.2 sec)
Now organizing SCF variables                       ... done
                      ------------------
                      INITIAL GUESS DONE (   2.9 sec)
                      ------------------
             **** ENERGY FILE WAS UPDATED (cs_rporg_061_ox_freq_04.en.tmp) ****
Finished Guess after   4.6 sec
Maximum memory used throughout the entire GUESS-calculation: 72.8 MB


           ************************************************************
           *        Program running with 12 parallel MPI-processes    *
           *              working on a common directory               *
           ************************************************************

-------------------------------------------------------------------------------------------
                                      ORCA LEAN-SCF
                              memory conserving SCF solver
-------------------------------------------------------------------------------------------

--------------------
CPCM SOLVATION MODEL
--------------------
CPCM parameters:
  Epsilon                                         ...      35.6880
  Refrac                                          ...       1.3442
  Rsolv                                           ...       2.1900
  Surface type                                    ...    GEPOL SES
  Discretization scheme                           ... Constant num. charges
  Epsilon function type                           ...         CPCM
Solvent:                                          ... ACETONITRILE
SMD-CDS solvent descriptors:
  Soln                                            ...       1.3442
  Soln25                                          ...       1.3416
  Sola                                            ...       0.0700
  Solb                                            ...       0.3200
  Solg                                            ...      41.2500
  Solc                                            ...       0.0000
  Solh                                            ...       0.0000
Radii:
  Scheme                                          ... Element-dependent radii
  Radius for C  used is    3.4960 Bohr (=   1.8500 Ang.)
  Radius for O  used is    4.0969 Bohr (=   2.1680 Ang.)
  Radius for H  used is    2.2677 Bohr (=   1.2000 Ang.)
Calculating surface                               ...        done! (  0.0s)
Cavity surface points                             ...          747
Cavity Volume                                     ...    1300.3689
Cavity Surface-area                               ...     716.5288
Calculating surface distance matrix               ...        done! (  0.0s)
Performing Cholesky decomposition & store         ...        done! (  0.0s)
Overall time for CPCM initialization              ...                 0.1s

----------------------------------------D-I-I-S--------------------------------------------
Iteration    Energy (Eh)           Delta-E    RMSDP     MaxDP     DIISErr   Damp  Time(sec)
-------------------------------------------------------------------------------------------
               ***  Starting incremental Fock matrix formation  ***
    1    -537.6399836226972866     0.00e+00  6.25e-04  4.94e-02  5.76e-02  0.850  23.6
Warning: op=1 Small HOMO/LUMO gap (   0.062) - skipping pre-diagonalization
         Will do a full diagonalization
    2    -537.6914973311471613    -5.15e-02  5.61e-04  3.75e-02  4.53e-02  0.850  18.7
                               ***Turning on AO-DIIS***
    3    -537.7271759744313613    -3.57e-02  4.86e-04  3.28e-02  3.30e-02  0.850  15.6
    4    -537.7510468596495912    -2.39e-02  4.37e-04  3.02e-02  2.70e-02  0.850  16.8
    5    -537.7685709400676615    -1.75e-02  2.57e-03  1.80e-01  2.24e-02  0.000  15.8
    6    -537.8518440322569631    -8.33e-02  1.54e-04  1.15e-02  6.54e-03  0.000  17.0
    7    -537.8521826973384350    -3.39e-04  4.63e-05  3.76e-03  4.28e-03  0.000  15.1
                              *** Initializing SOSCF ***
---------------------------------------S-O-S-C-F--------------------------------------
Iteration    Energy (Eh)           Delta-E    RMSDP     MaxDP     MaxGrad    Time(sec)
--------------------------------------------------------------------------------------
    8    -537.8523584424152659    -1.76e-04  2.35e-05  1.35e-03  9.58e-04    18.2
               *** Restarting incremental Fock matrix formation ***
    9    -537.8524151033756198    -5.67e-05  9.19e-04  6.34e-02  7.58e-04    24.8
   10    -537.8524458535522399    -3.08e-05  8.99e-04  6.94e-02  6.54e-04    20.5
   11    -537.8524806484073224    -3.48e-05  7.35e-04  5.64e-02  2.24e-04    23.3
   12    -537.8524837031162633    -3.05e-06  4.72e-04  3.46e-02  1.98e-04    22.2
   13    -537.8524848593468732    -1.16e-06  2.91e-04  2.10e-02  8.12e-05    21.0
   14    -537.8524851775777051    -3.18e-07  1.17e-04  8.73e-03  3.12e-05    19.8
   15    -537.8524852346355374    -5.71e-08  6.97e-05  5.19e-03  2.08e-05    22.7
   16    -537.8524852506501475    -1.60e-08  6.56e-06  4.61e-04  4.35e-06    19.8
   17    -537.8524852306283037     2.00e-08  3.57e-06  3.01e-04  2.65e-06    18.1
   18    -537.8524852496410631    -1.90e-08  2.29e-06  1.51e-04  1.74e-06    17.5
                  *** Gradient check signals convergence ***

               *****************************************************
               *                     SUCCESS                       *
               *           SCF CONVERGED AFTER  18 CYCLES          *
               *****************************************************

Recomputing exchange energy using gridx3       ... done (   27.604 sec)
Old exchange energy                            :    -18.435760364 Eh
New exchange energy                            :    -18.435848888 Eh
Exchange energy change after final integration :     -0.000088525 Eh
Total energy after final integration           :   -537.852573774 Eh

SMD CDS free energy correction energy :                -3.04981     Kcal/mol
Total Energy after SMD CDS correction =              -537.857433961 Eh
             **** ENERGY FILE WAS UPDATED (cs_rporg_061_ox_freq_04.en.tmp) ****

----------------
TOTAL SCF ENERGY
----------------

Total Energy       :       -537.85743396077009 Eh          -14635.84485 eV

Components:
Nuclear Repulsion  :        706.65588328705837 Eh           19229.08417 eV
Electronic Energy  :      -1244.43096200418177 Eh          -33862.68802 eV
One Electron Energy:      -2113.82613836865858 Eh          -57520.13349 eV
Two Electron Energy:        869.39517636447692 Eh           23657.44547 eV
CPCM Dielectric    :         -0.07740653251778 Eh              -2.10634 eV
SMD CDS (Gcds)     :         -0.00486018656579 Eh              -0.13225 eV

Virial components:
Potential Energy   :      -1072.62196566191233 Eh          -29187.52755 eV
Kinetic Energy     :        534.76453170114235 Eh           14551.68270 eV
Virial Ratio       :          2.00578367127264

DFT components:
N(Alpha)           :       45.000052378923 electrons
N(Beta)            :       44.000053880140 electrons
N(Total)           :       89.000106259063 electrons
E(X)               :      -55.172781207679 Eh       
E(C)               :       -2.964115455398 Eh       
E(XC)              :      -58.136896663077 Eh       

CPCM Solvation Model Properties:
Surface-charge          :         -1.04155617316183
Corrected charge        :         -1.00000000000000
Outlying charge corr.   :          0.00011300215311 Eh               0.00307 eV
Free-energy (cav+disp)  :         -0.00486018656579 Eh              -0.13225 eV

---------------
SCF CONVERGENCE
---------------

  Last Energy change         ...    1.9013e-08  Tolerance :   1.0000e-08
  Last MAX-Density change    ...    1.5103e-04  Tolerance :   1.0000e-07
  Last RMS-Density change    ...    2.2855e-06  Tolerance :   5.0000e-09
  Last DIIS Error            ...    9.5806e-04  Tolerance :   5.0000e-07
  Last Orbital Gradient      ...    1.7446e-06  Tolerance :   1.0000e-05
  Last Orbital Rotation      ...    2.2021e-05  Tolerance :   1.0000e-05


----------------------
UHF SPIN CONTAMINATION
----------------------

Warning: in a DFT calculation there is little theoretical justification to 
         calculate <S**2> as in Hartree-Fock theory. We will do it anyways
         but you should keep in mind that the values have only limited relevance

Expectation value of <S**2>     :     0.770165
Ideal value S*(S+1) for S=0.5   :     0.750000
Deviation                       :     0.020165

----------------
ORBITAL ENERGIES
----------------
                 SPIN UP ORBITALS
  NO   OCC          E(Eh)            E(eV) 
   0   1.0000     -19.346369      -526.4415 
   1   1.0000     -10.345970      -281.5281 
   2   1.0000     -10.345947      -281.5275 
   3   1.0000     -10.271184      -279.4931 
   4   1.0000     -10.271118      -279.4913 
   5   1.0000     -10.269218      -279.4396 
   6   1.0000     -10.269183      -279.4387 
   7   1.0000     -10.266882      -279.3761 
   8   1.0000     -10.266863      -279.3755 
   9   1.0000     -10.258962      -279.1606 
  10   1.0000     -10.258961      -279.1605 
  11   1.0000     -10.258951      -279.1602 
  12   1.0000     -10.258944      -279.1601 
  13   1.0000      -1.207105       -32.8470 
  14   1.0000      -0.936888       -25.4940 
  15   1.0000      -0.917348       -24.9623 
  16   1.0000      -0.840950       -22.8834 
  17   1.0000      -0.817326       -22.2406 
  18   1.0000      -0.809494       -22.0275 
  19   1.0000      -0.786155       -21.3924 
  20   1.0000      -0.711656       -19.3651 
  21   1.0000      -0.680378       -18.5140 
  22   1.0000      -0.658900       -17.9296 
  23   1.0000      -0.633787       -17.2462 
  24   1.0000      -0.604661       -16.4537 
  25   1.0000      -0.560414       -15.2496 
  26   1.0000      -0.546475       -14.8704 
  27   1.0000      -0.543873       -14.7995 
  28   1.0000      -0.533304       -14.5119 
  29   1.0000      -0.491313       -13.3693 
  30   1.0000      -0.486933       -13.2501 
  31   1.0000      -0.473796       -12.8927 
  32   1.0000      -0.473147       -12.8750 
  33   1.0000      -0.463656       -12.6167 
  34   1.0000      -0.459289       -12.4979 
  35   1.0000      -0.425234       -11.5712 
  36   1.0000      -0.410727       -11.1764 
  37   1.0000      -0.407810       -11.0971 
  38   1.0000      -0.400899       -10.9090 
  39   1.0000      -0.383039       -10.4230 
  40   1.0000      -0.381300       -10.3757 
  41   1.0000      -0.311996        -8.4899 
  42   1.0000      -0.307921        -8.3790 
  43   1.0000      -0.303501        -8.2587 
  44   1.0000      -0.278704        -7.5839 
  45   0.0000      -0.055681        -1.5152 
  46   0.0000      -0.042582        -1.1587 
  47   0.0000      -0.035613        -0.9691 
  48   0.0000      -0.027872        -0.7584 
  49   0.0000      -0.002517        -0.0685 
  50   0.0000       0.007478         0.2035 
  51   0.0000       0.013130         0.3573 
  52   0.0000       0.018555         0.5049 
  53   0.0000       0.022503         0.6123 
  54   0.0000       0.028390         0.7725 
  55   0.0000       0.037087         1.0092 

                 SPIN DOWN ORBITALS
  NO   OCC          E(Eh)            E(eV) 
   0   1.0000     -19.338760      -526.2344 
   1   1.0000     -10.345103      -281.5046 
   2   1.0000     -10.345083      -281.5040 
   3   1.0000     -10.269283      -279.4414 
   4   1.0000     -10.269218      -279.4396 
   5   1.0000     -10.265782      -279.3461 
   6   1.0000     -10.265752      -279.3453 
   7   1.0000     -10.265275      -279.3323 
   8   1.0000     -10.265256      -279.3318 
   9   1.0000     -10.259920      -279.1866 
  10   1.0000     -10.259912      -279.1864 
  11   1.0000     -10.259767      -279.1825 
  12   1.0000     -10.259765      -279.1824 
  13   1.0000      -1.193409       -32.4743 
  14   1.0000      -0.931850       -25.3569 
  15   1.0000      -0.912260       -24.8239 
  16   1.0000      -0.835995       -22.7486 
  17   1.0000      -0.814808       -22.1721 
  18   1.0000      -0.807162       -21.9640 
  19   1.0000      -0.776696       -21.1350 
  20   1.0000      -0.705976       -19.2106 
  21   1.0000      -0.678165       -18.4538 
  22   1.0000      -0.654977       -17.8228 
  23   1.0000      -0.630447       -17.1553 
  24   1.0000      -0.602350       -16.3908 
  25   1.0000      -0.557436       -15.1686 
  26   1.0000      -0.540848       -14.7172 
  27   1.0000      -0.533070       -14.5056 
  28   1.0000      -0.522854       -14.2276 
  29   1.0000      -0.485255       -13.2044 
  30   1.0000      -0.485129       -13.2010 
  31   1.0000      -0.471291       -12.8245 
  32   1.0000      -0.471131       -12.8201 
  33   1.0000      -0.458731       -12.4827 
  34   1.0000      -0.453044       -12.3280 
  35   1.0000      -0.414124       -11.2689 
  36   1.0000      -0.409161       -11.1338 
  37   1.0000      -0.399876       -10.8812 
  38   1.0000      -0.392604       -10.6833 
  39   1.0000      -0.378508       -10.2997 
  40   1.0000      -0.374992       -10.2041 
  41   1.0000      -0.304177        -8.2771 
  42   1.0000      -0.299011        -8.1365 
  43   1.0000      -0.283394        -7.7116 
  44   0.0000      -0.202091        -5.4992 
  45   0.0000      -0.043065        -1.1719 
  46   0.0000      -0.034863        -0.9487 
  47   0.0000      -0.026520        -0.7217 
  48   0.0000      -0.009555        -0.2600 
  49   0.0000      -0.002050        -0.0558 
  50   0.0000       0.007839         0.2133 
  51   0.0000       0.013253         0.3606 
  52   0.0000       0.018879         0.5137 
  53   0.0000       0.022921         0.6237 
  54   0.0000       0.028695         0.7808 
*Only the first 10 virtual orbitals were printed.

                    ********************************
                    * MULLIKEN POPULATION ANALYSIS *
                    ********************************

--------------------------------------------
MULLIKEN ATOMIC CHARGES AND SPIN POPULATIONS
--------------------------------------------
   0 C :   -0.506751    0.102017
   1 C :   -0.738933   -0.058681
   2 C :   -0.598320    0.208969
   3 C :   -0.482329   -0.041103
   4 C :   -1.052358    0.075831
   5 C :    1.239498    0.098920
   6 O :   -0.683666    0.240410
   7 C :    1.247742    0.098074
   8 C :   -1.059811    0.075568
   9 C :   -0.487723   -0.041254
  10 C :   -0.587284    0.208849
  11 C :   -0.746836   -0.058551
  12 C :   -0.508698    0.101914
  13 H :    0.691421   -0.005734
  14 H :    0.535010    0.003643
  15 H :    0.651567    0.004890
  16 H :    0.521308    0.001159
  17 H :    0.586256   -0.009057
  18 H :    0.589143   -0.009363
  19 H :    0.520895    0.001038
  20 H :    0.639370    0.004857
  21 H :    0.538766    0.003780
  22 H :    0.691729   -0.006176
Sum of atomic charges         :    1.0000000
Sum of atomic spin populations:    1.0000000

-----------------------------------------------------
MULLIKEN REDUCED ORBITAL CHARGES AND SPIN POPULATIONS
-----------------------------------------------------
CHARGE
  0 C s       :     3.750633  s :     3.750633
      pz      :     0.934810  p :     2.650397
      px      :     0.879900
      py      :     0.835687
      dz2     :     0.003761  d :     0.124767
      dxz     :    -0.037728
      dyz     :    -0.016320
      dx2y2   :    -0.011325
      dxy     :     0.186379
      f0      :     0.000974  f :    -0.019045
      f+1     :    -0.000846
      f-1     :    -0.001146
      f+2     :     0.000808
      f-2     :    -0.001352
      f+3     :    -0.017990
      f-3     :     0.000507

  1 C s       :     3.724304  s :     3.724304
      pz      :     0.973969  p :     2.969252
      px      :     1.041620
      py      :     0.953663
      dz2     :    -0.000901  d :     0.054516
      dxz     :     0.014720
      dyz     :     0.052469
      dx2y2   :    -0.019115
      dxy     :     0.007343
      f0      :     0.000895  f :    -0.009139
      f+1     :     0.000416
      f-1     :     0.000195
      f+2     :     0.002069
      f-2     :    -0.002383
      f+3     :    -0.006720
      f-3     :    -0.003610

  2 C s       :     3.526310  s :     3.526310
      pz      :     0.855749  p :     2.863404
      px      :     0.975347
      py      :     1.032308
      dz2     :     0.022282  d :     0.214957
      dxz     :    -0.017078
      dyz     :     0.035374
      dx2y2   :     0.028980
      dxy     :     0.145400
      f0      :     0.000685  f :    -0.006351
      f+1     :     0.001582
      f-1     :     0.000621
      f+2     :    -0.001435
      f-2     :    -0.001843
      f+3     :    -0.005577
      f-3     :    -0.000385

  3 C s       :     3.521664  s :     3.521664
      pz      :     0.879101  p :     2.915256
      px      :     1.024755
      py      :     1.011399
      dz2     :    -0.000631  d :     0.053368
      dxz     :    -0.044759
      dyz     :    -0.000877
      dx2y2   :    -0.003836
      dxy     :     0.103472
      f0      :     0.000593  f :    -0.007960
      f+1     :    -0.000446
      f-1     :     0.001596
      f+2     :    -0.002123
      f-2     :     0.000809
      f+3     :    -0.006998
      f-3     :    -0.001390

  4 C s       :     4.018403  s :     4.018403
      pz      :     1.034987  p :     2.924370
      px      :     0.877101
      py      :     1.012282
      dz2     :     0.016171  d :     0.125808
      dxz     :     0.006775
      dyz     :     0.066148
      dx2y2   :     0.015624
      dxy     :     0.021090
      f0      :     0.000776  f :    -0.016223
      f+1     :    -0.001872
      f-1     :     0.000192
      f+2     :     0.001299
      f-2     :    -0.001530
      f+3     :    -0.012192
      f-3     :    -0.002895

  5 C s       :     3.139241  s :     3.139241
      pz      :     0.826304  p :     1.696258
      px      :     0.182590
      py      :     0.687364
      dz2     :    -0.039468  d :    -0.086086
      dxz     :     0.025582
      dyz     :     0.006271
      dx2y2   :    -0.081738
      dxy     :     0.003267
      f0      :     0.004010  f :     0.011089
      f+1     :     0.002951
      f-1     :     0.002858
      f+2     :     0.000548
      f-2     :     0.005379
      f+3     :    -0.002959
      f-3     :    -0.001698

  6 O s       :     4.216457  s :     4.216457
      pz      :     1.591091  p :     4.356820
      px      :     1.149487
      py      :     1.616243
      dz2     :    -0.003926  d :     0.101572
      dxz     :     0.044180
      dyz     :     0.011991
      dx2y2   :     0.019419
      dxy     :     0.029908
      f0      :     0.001169  f :     0.008817
      f+1     :     0.000078
      f-1     :     0.000010
      f+2     :     0.000617
      f-2     :     0.002537
      f+3     :     0.004623
      f-3     :    -0.000217

  7 C s       :     3.141359  s :     3.141359
      pz      :     0.826491  p :     1.694354
      px      :     0.180769
      py      :     0.687094
      dz2     :    -0.040144  d :    -0.094334
      dxz     :     0.025596
      dyz     :     0.005724
      dx2y2   :    -0.084489
      dxy     :    -0.001021
      f0      :     0.004005  f :     0.010879
      f+1     :     0.002947
      f-1     :     0.002877
      f+2     :     0.000514
      f-2     :     0.005368
      f+3     :    -0.003052
      f-3     :    -0.001780

  8 C s       :     4.016205  s :     4.016205
      pz      :     1.035324  p :     2.932918
      px      :     0.882670
      py      :     1.014924
      dz2     :     0.017250  d :     0.127049
      dxz     :     0.006180
      dyz     :     0.066588
      dx2y2   :     0.016939
      dxy     :     0.020094
      f0      :     0.000769  f :    -0.016362
      f+1     :    -0.001891
      f-1     :     0.000179
      f+2     :     0.001320
      f-2     :    -0.001516
      f+3     :    -0.012391
      f-3     :    -0.002833

  9 C s       :     3.515724  s :     3.515724
      pz      :     0.877353  p :     2.926471
      px      :     1.033605
      py      :     1.015514
      dz2     :    -0.001153  d :     0.053482
      dxz     :    -0.045925
      dyz     :    -0.000391
      dx2y2   :    -0.004753
      dxy     :     0.105704
      f0      :     0.000583  f :    -0.007954
      f+1     :    -0.000443
      f-1     :     0.001609
      f+2     :    -0.002120
      f-2     :     0.000809
      f+3     :    -0.007002
      f-3     :    -0.001391

 10 C s       :     3.514677  s :     3.514677
      pz      :     0.854923  p :     2.859299
      px      :     0.973671
      py      :     1.030705
      dz2     :     0.022388  d :     0.220099
      dxz     :    -0.016545
      dyz     :     0.035656
      dx2y2   :     0.028212
      dxy     :     0.150388
      f0      :     0.000677  f :    -0.006791
      f+1     :     0.001581
      f-1     :     0.000617
      f+2     :    -0.001495
      f-2     :    -0.001929
      f+3     :    -0.005786
      f-3     :    -0.000457

 11 C s       :     3.722369  s :     3.722369
      pz      :     0.973303  p :     2.972411
      px      :     1.045635
      py      :     0.953472
      dz2     :    -0.001010  d :     0.061308
      dxz     :     0.017603
      dyz     :     0.052755
      dx2y2   :    -0.016370
      dxy     :     0.008330
      f0      :     0.000898  f :    -0.009252
      f+1     :     0.000411
      f-1     :     0.000186
      f+2     :     0.002076
      f-2     :    -0.002395
      f+3     :    -0.006799
      f-3     :    -0.003627

 12 C s       :     3.744988  s :     3.744988
      pz      :     0.936774  p :     2.653916
      px      :     0.883481
      py      :     0.833661
      dz2     :     0.003855  d :     0.128570
      dxz     :    -0.036728
      dyz     :    -0.016681
      dx2y2   :    -0.008296
      dxy     :     0.186420
      f0      :     0.001008  f :    -0.018776
      f+1     :    -0.000851
      f-1     :    -0.001146
      f+2     :     0.000822
      f-2     :    -0.001317
      f+3     :    -0.017792
      f-3     :     0.000499

 13 H s       :     0.369977  s :     0.369977
      pz      :     0.002086  p :    -0.069386
      px      :    -0.033668
      py      :    -0.037805
      dz2     :     0.002026  d :     0.007988
      dxz     :     0.002463
      dyz     :     0.000577
      dx2y2   :     0.001051
      dxy     :     0.001870

 14 H s       :     0.433758  s :     0.433758
      pz      :     0.002185  p :     0.024345
      px      :     0.003767
      py      :     0.018393
      dz2     :     0.001840  d :     0.006887
      dxz     :     0.000280
      dyz     :     0.001632
      dx2y2   :     0.001327
      dxy     :     0.001808

 15 H s       :     0.365708  s :     0.365708
      pz      :     0.008142  p :    -0.023632
      px      :    -0.026357
      py      :    -0.005417
      dz2     :    -0.000414  d :     0.006356
      dxz     :     0.003258
      dyz     :     0.000615
      dx2y2   :     0.001522
      dxy     :     0.001375

 16 H s       :     0.465133  s :     0.465133
      pz      :     0.021557  p :     0.007146
      px      :    -0.010814
      py      :    -0.003597
      dz2     :     0.001679  d :     0.006412
      dxz     :     0.001383
      dyz     :     0.000363
      dx2y2   :     0.001751
      dxy     :     0.001237

 17 H s       :     0.442889  s :     0.442889
      pz      :    -0.006511  p :    -0.033402
      px      :    -0.004629
      py      :    -0.022262
      dz2     :     0.000911  d :     0.004257
      dxz     :     0.000334
      dyz     :     0.002014
      dx2y2   :     0.000876
      dxy     :     0.000124

 18 H s       :     0.441451  s :     0.441451
      pz      :    -0.006212  p :    -0.034856
      px      :    -0.005746
      py      :    -0.022898
      dz2     :     0.000919  d :     0.004261
      dxz     :     0.000333
      dyz     :     0.001998
      dx2y2   :     0.000882
      dxy     :     0.000130

 19 H s       :     0.465898  s :     0.465898
      pz      :     0.021268  p :     0.006810
      px      :    -0.010668
      py      :    -0.003791
      dz2     :     0.001690  d :     0.006397
      dxz     :     0.001384
      dyz     :     0.000378
      dx2y2   :     0.001713
      dxy     :     0.001231

 20 H s       :     0.376777  s :     0.376777
      pz      :     0.008269  p :    -0.022501
      px      :    -0.025975
      py      :    -0.004795
      dz2     :    -0.000413  d :     0.006355
      dxz     :     0.003251
      dyz     :     0.000617
      dx2y2   :     0.001540
      dxy     :     0.001359

 21 H s       :     0.431443  s :     0.431443
      pz      :     0.001823  p :     0.022920
      px      :     0.003334
      py      :     0.017763
      dz2     :     0.001850  d :     0.006871
      dxz     :     0.000279
      dyz     :     0.001621
      dx2y2   :     0.001330
      dxy     :     0.001792

 22 H s       :     0.370030  s :     0.370030
      pz      :     0.001701  p :    -0.069734
      px      :    -0.033859
      py      :    -0.037576
      dz2     :     0.002035  d :     0.007975
      dxz     :     0.002495
      dyz     :     0.000562
      dx2y2   :     0.001031
      dxy     :     0.001852


SPIN
  0 C s       :    -0.008854  s :    -0.008854
      pz      :     0.059170  p :     0.103953
      px      :     0.000486
      py      :     0.044297
      dz2     :    -0.000716  d :     0.007569
      dxz     :     0.010737
      dyz     :    -0.002109
      dx2y2   :    -0.000533
      dxy     :     0.000190
      f0      :    -0.000088  f :    -0.000651
      f+1     :    -0.000097
      f-1     :    -0.000184
      f+2     :    -0.000489
      f-2     :    -0.000245
      f+3     :     0.000498
      f-3     :    -0.000046

  1 C s       :     0.009143  s :     0.009143
      pz      :    -0.043919  p :    -0.072153
      px      :    -0.019115
      py      :    -0.009119
      dz2     :     0.000012  d :     0.004605
      dxz     :     0.010179
      dyz     :     0.001059
      dx2y2   :    -0.007885
      dxy     :     0.001239
      f0      :     0.000103  f :    -0.000277
      f+1     :    -0.000077
      f-1     :    -0.000008
      f+2     :    -0.000017
      f-2     :    -0.000028
      f+3     :    -0.000222
      f-3     :    -0.000027

  2 C s       :    -0.011556  s :    -0.011556
      pz      :     0.174055  p :     0.221377
      px      :     0.010610
      py      :     0.036711
      dz2     :    -0.000836  d :    -0.000175
      dxz     :     0.000019
      dyz     :    -0.000401
      dx2y2   :    -0.001487
      dxy     :     0.002530
      f0      :    -0.000132  f :    -0.000677
      f+1     :    -0.000162
      f-1     :    -0.000222
      f+2     :     0.000018
      f-2     :     0.000011
      f+3     :    -0.000033
      f-3     :    -0.000157

  3 C s       :     0.008244  s :     0.008244
      pz      :    -0.034576  p :    -0.053980
      px      :    -0.004903
      py      :    -0.014501
      dz2     :     0.000169  d :     0.004737
      dxz     :    -0.007684
      dyz     :     0.003109
      dx2y2   :     0.005150
      dxy     :     0.003993
      f0      :     0.000031  f :    -0.000104
      f+1     :     0.000027
      f-1     :    -0.000087
      f+2     :     0.000004
      f-2     :    -0.000040
      f+3     :     0.000021
      f-3     :    -0.000060

  4 C s       :    -0.019889  s :    -0.019889
      pz      :     0.072320  p :     0.091691
      px      :     0.004686
      py      :     0.014686
      dz2     :     0.000523  d :     0.004613
      dxz     :    -0.003153
      dyz     :    -0.001011
      dx2y2   :     0.005681
      dxy     :     0.002572
      f0      :    -0.000190  f :    -0.000584
      f+1     :    -0.000014
      f-1     :    -0.000054
      f+2     :    -0.000337
      f-2     :    -0.000307
      f+3     :     0.000593
      f-3     :    -0.000276

  5 C s       :     0.010646  s :     0.010646
      pz      :     0.065813  p :     0.073374
      px      :    -0.002975
      py      :     0.010537
      dz2     :     0.000567  d :     0.013896
      dxz     :     0.003035
      dyz     :     0.004680
      dx2y2   :     0.003289
      dxy     :     0.002324
      f0      :     0.000594  f :     0.001003
      f+1     :     0.000195
      f-1     :     0.000087
      f+2     :     0.000117
      f-2     :     0.001409
      f+3     :    -0.001545
      f-3     :     0.000147

  6 O s       :     0.008808  s :     0.008808
      pz      :     0.207340  p :     0.229017
      px      :     0.013132
      py      :     0.008545
      dz2     :     0.000087  d :     0.002393
      dxz     :    -0.000820
      dyz     :     0.002175
      dx2y2   :    -0.000149
      dxy     :     0.001100
      f0      :    -0.000012  f :     0.000192
      f+1     :    -0.000063
      f-1     :    -0.000024
      f+2     :     0.000062
      f-2     :    -0.000012
      f+3     :     0.000246
      f-3     :    -0.000005

  7 C s       :     0.010665  s :     0.010665
      pz      :     0.066381  p :     0.073007
      px      :    -0.002880
      py      :     0.009507
      dz2     :     0.000594  d :     0.013400
      dxz     :     0.003013
      dyz     :     0.004541
      dx2y2   :     0.003313
      dxy     :     0.001939
      f0      :     0.000593  f :     0.001002
      f+1     :     0.000195
      f-1     :     0.000088
      f+2     :     0.000116
      f-2     :     0.001405
      f+3     :    -0.001537
      f-3     :     0.000141

  8 C s       :    -0.019886  s :    -0.019886
      pz      :     0.072374  p :     0.091630
      px      :     0.004633
      py      :     0.014623
      dz2     :     0.000519  d :     0.004403
      dxz     :    -0.002841
      dyz     :    -0.001002
      dx2y2   :     0.005432
      dxy     :     0.002295
      f0      :    -0.000189  f :    -0.000579
      f+1     :    -0.000010
      f-1     :    -0.000056
      f+2     :    -0.000341
      f-2     :    -0.000322
      f+3     :     0.000620
      f-3     :    -0.000279

  9 C s       :     0.008333  s :     0.008333
      pz      :    -0.034647  p :    -0.054012
      px      :    -0.004946
      py      :    -0.014419
      dz2     :     0.000160  d :     0.004518
      dxz     :    -0.006476
      dyz     :     0.002955
      dx2y2   :     0.004659
      dxy     :     0.003219
      f0      :     0.000031  f :    -0.000093
      f+1     :     0.000027
      f-1     :    -0.000084
      f+2     :    -0.000002
      f-2     :    -0.000041
      f+3     :     0.000029
      f-3     :    -0.000053

 10 C s       :    -0.011450  s :    -0.011450
      pz      :     0.174397  p :     0.221058
      px      :     0.010356
      py      :     0.036305
      dz2     :    -0.000851  d :    -0.000077
      dxz     :     0.000167
      dyz     :    -0.000649
      dx2y2   :    -0.000929
      dxy     :     0.002184
      f0      :    -0.000132  f :    -0.000682
      f+1     :    -0.000161
      f-1     :    -0.000222
      f+2     :     0.000019
      f-2     :     0.000021
      f+3     :    -0.000051
      f-3     :    -0.000156

 11 C s       :     0.009112  s :     0.009112
      pz      :    -0.043669  p :    -0.071966
      px      :    -0.019045
      py      :    -0.009252
      dz2     :     0.000076  d :     0.004568
      dxz     :     0.010111
      dyz     :     0.000681
      dx2y2   :    -0.007135
      dxy     :     0.000835
      f0      :     0.000100  f :    -0.000265
      f+1     :    -0.000080
      f-1     :    -0.000008
      f+2     :    -0.000014
      f-2     :    -0.000028
      f+3     :    -0.000202
      f-3     :    -0.000033

 12 C s       :    -0.008851  s :    -0.008851
      pz      :     0.059751  p :     0.103676
      px      :     0.000365
      py      :     0.043559
      dz2     :    -0.000635  d :     0.007719
      dxz     :     0.010254
      dyz     :    -0.001766
      dx2y2   :    -0.000389
      dxy     :     0.000255
      f0      :    -0.000087  f :    -0.000630
      f+1     :    -0.000099
      f-1     :    -0.000184
      f+2     :    -0.000486
      f-2     :    -0.000244
      f+3     :     0.000521
      f-3     :    -0.000051

 13 H s       :    -0.012171  s :    -0.012171
      pz      :     0.002508  p :     0.005845
      px      :     0.001719
      py      :     0.001619
      dz2     :     0.000143  d :     0.000592
      dxz     :     0.000389
      dyz     :    -0.000022
      dx2y2   :     0.000088
      dxy     :    -0.000006

 14 H s       :     0.006437  s :     0.006437
      pz      :    -0.000034  p :    -0.002597
      px      :    -0.000516
      py      :    -0.002046
      dz2     :    -0.000048  d :    -0.000197
      dxz     :    -0.000069
      dyz     :    -0.000046
      dx2y2   :    -0.000035
      dxy     :     0.000001

 15 H s       :    -0.001697  s :    -0.001697
      pz      :     0.003939  p :     0.005556
      px      :    -0.000190
      py      :     0.001807
      dz2     :     0.000054  d :     0.001031
      dxz     :     0.000563
      dyz     :     0.000127
      dx2y2   :     0.000160
      dxy     :     0.000125

 16 H s       :     0.002084  s :     0.002084
      pz      :    -0.002189  p :    -0.000829
      px      :     0.000822
      py      :     0.000538
      dz2     :    -0.000021  d :    -0.000095
      dxz     :    -0.000095
      dyz     :     0.000053
      dx2y2   :    -0.000006
      dxy     :    -0.000027

 17 H s       :    -0.011317  s :    -0.011317
      pz      :     0.000903  p :     0.001957
      px      :    -0.000229
      py      :     0.001282
      dz2     :     0.000116  d :     0.000304
      dxz     :    -0.000021
      dyz     :     0.000187
      dx2y2   :     0.000028
      dxy     :    -0.000006

 18 H s       :    -0.011637  s :    -0.011637
      pz      :     0.000737  p :     0.001966
      px      :    -0.000223
      py      :     0.001452
      dz2     :     0.000112  d :     0.000308
      dxz     :    -0.000021
      dyz     :     0.000191
      dx2y2   :     0.000031
      dxy     :    -0.000006

 19 H s       :     0.001960  s :     0.001960
      pz      :    -0.002284  p :    -0.000825
      px      :     0.000881
      py      :     0.000578
      dz2     :    -0.000023  d :    -0.000097
      dxz     :    -0.000094
      dyz     :     0.000054
      dx2y2   :    -0.000006
      dxy     :    -0.000028

 20 H s       :    -0.001796  s :    -0.001796
      pz      :     0.003871  p :     0.005619
      px      :    -0.000296
      py      :     0.002044
      dz2     :     0.000054  d :     0.001035
      dxz     :     0.000555
      dyz     :     0.000133
      dx2y2   :     0.000164
      dxy     :     0.000129

 21 H s       :     0.006611  s :     0.006611
      pz      :     0.000015  p :    -0.002635
      px      :    -0.000512
      py      :    -0.002138
      dz2     :    -0.000045  d :    -0.000196
      dxz     :    -0.000070
      dyz     :    -0.000047
      dx2y2   :    -0.000035
      dxy     :     0.000000

 22 H s       :    -0.012867  s :    -0.012867
      pz      :     0.002569  p :     0.006090
      px      :     0.001919
      py      :     0.001601
      dz2     :     0.000146  d :     0.000601
      dxz     :     0.000389
      dyz     :    -0.000024
      dx2y2   :     0.000088
      dxy     :     0.000001



                     *******************************
                     * LOEWDIN POPULATION ANALYSIS *
                     *******************************

-------------------------------------------
LOEWDIN ATOMIC CHARGES AND SPIN POPULATIONS
-------------------------------------------
   0 C :    0.245385    0.067394
   1 C :    0.246781    0.023144
   2 C :    0.253228    0.104775
   3 C :    0.238885    0.025333
   4 C :    0.255792    0.057803
   5 C :   -0.325109    0.085846
   6 O :    0.696281    0.193786
   7 C :   -0.325007    0.085711
   8 C :    0.255790    0.057754
   9 C :    0.238864    0.025283
  10 C :    0.253158    0.104629
  11 C :    0.246805    0.023100
  12 C :    0.245252    0.067358
  13 H :   -0.158398    0.011972
  14 H :   -0.152294   -0.004131
  15 H :   -0.150266    0.025188
  16 H :   -0.154357   -0.003432
  17 H :   -0.147865    0.009428
  18 H :   -0.147855    0.009431
  19 H :   -0.154334   -0.003430
  20 H :   -0.150248    0.025221
  21 H :   -0.152280   -0.004130
  22 H :   -0.158208    0.011967

----------------------------------------------------
LOEWDIN REDUCED ORBITAL CHARGES AND SPIN POPULATIONS
----------------------------------------------------
CHARGE
  0 C s       :     2.471611  s :     2.471611
      pz      :     0.645447  p :     2.258240
      px      :     0.840937
      py      :     0.771857
      dz2     :     0.072789  d :     0.686479
      dxz     :     0.127994
      dyz     :     0.097655
      dx2y2   :     0.185704
      dxy     :     0.202337
      f0      :     0.030370  f :     0.338284
      f+1     :     0.020922
      f-1     :     0.038316
      f+2     :     0.049276
      f-2     :     0.042557
      f+3     :     0.096674
      f-3     :     0.060169

  1 C s       :     2.484352  s :     2.484352
      pz      :     0.639092  p :     2.267861
      px      :     0.838982
      py      :     0.789787
      dz2     :     0.069049  d :     0.667393
      dxz     :     0.128859
      dyz     :     0.073695
      dx2y2   :     0.237046
      dxy     :     0.158744
      f0      :     0.029304  f :     0.333613
      f+1     :     0.037622
      f-1     :     0.016107
      f+2     :     0.038230
      f-2     :     0.049339
      f+3     :     0.110499
      f-3     :     0.052512

  2 C s       :     2.490356  s :     2.490356
      pz      :     0.603128  p :     2.242158
      px      :     0.836647
      py      :     0.802383
      dz2     :     0.087865  d :     0.681085
      dxz     :     0.078162
      dyz     :     0.126363
      dx2y2   :     0.188627
      dxy     :     0.200067
      f0      :     0.021779  f :     0.333173
      f+1     :     0.032165
      f-1     :     0.029501
      f+2     :     0.050248
      f-2     :     0.051187
      f+3     :     0.094044
      f-3     :     0.054248

  3 C s       :     2.486804  s :     2.486804
      pz      :     0.629766  p :     2.270322
      px      :     0.837264
      py      :     0.803293
      dz2     :     0.069993  d :     0.670782
      dxz     :     0.100901
      dyz     :     0.094071
      dx2y2   :     0.167150
      dxy     :     0.238667
      f0      :     0.028292  f :     0.333207
      f+1     :     0.018629
      f-1     :     0.034583
      f+2     :     0.044792
      f-2     :     0.041045
      f+3     :     0.108099
      f-3     :     0.057766

  4 C s       :     2.485075  s :     2.485075
      pz      :     0.628671  p :     2.263492
      px      :     0.836057
      py      :     0.798764
      dz2     :     0.069627  d :     0.655826
      dxz     :     0.130373
      dyz     :     0.067729
      dx2y2   :     0.218990
      dxy     :     0.169106
      f0      :     0.028815  f :     0.339815
      f+1     :     0.042339
      f-1     :     0.016649
      f+2     :     0.035107
      f-2     :     0.050882
      f+3     :     0.111092
      f-3     :     0.054931

  5 C s       :     2.450765  s :     2.450765
      pz      :     0.650174  p :     2.187756
      px      :     0.724988
[...]
     62       0.003300   0.006401  -0.004762
     63      -0.023903   0.044629  -0.054311
     64       0.137150  -0.276108   0.331121
     65      -0.064056   0.130477  -0.156027
     66       0.301580  -0.134877   0.315179
     67       0.184168  -0.081182   0.191790
     68      -0.168781   0.075175  -0.175831


-----------
IR SPECTRUM
-----------

 Mode   freq       eps      Int      T**2         TX        TY        TZ
       cm**-1   L/(mol*cm) km/mol    a.u.
----------------------------------------------------------------------------
  8:     74.14   0.000041    0.21  0.000173  (-0.001317 -0.013078 -0.000017)
  9:    189.39   0.177084  894.91  0.291792  (-0.539839 -0.000095 -0.019148)
 10:    218.97   0.000003    0.02  0.000005  (-0.001859 -0.001029 -0.000041)
 11:    313.51   0.000117    0.59  0.000116  (-0.000622  0.010755  0.000060)
 12:    345.20   0.123711  625.18  0.111836  (-0.333536  0.000008 -0.024275)
 13:    383.35   0.057628  291.23  0.046912  ( 0.216575 -0.000024  0.002604)
 14:    405.26   0.000062    0.31  0.000048  ( 0.002651 -0.006358  0.000244)
 15:    453.28   0.452089  2284.67  0.311242  (-0.557881  0.000415  0.003100)
 16:    466.52   0.001409    7.12  0.000943  ( 0.009997  0.029031  0.000158)
 17:    542.92   0.151491  765.58  0.087075  (-0.293342  0.000034 -0.032015)
 18:    579.07   0.000087    0.44  0.000047  (-0.000101 -0.006829 -0.000065)
 19:    593.16   0.024631  124.47  0.012958  (-0.112306  0.000015 -0.018590)
 20:    634.69   0.000530    2.68  0.000261  ( 0.000277 -0.016132 -0.000511)
 21:    658.74   0.024008  121.33  0.011373  ( 0.030856 -0.002577 -0.102051)
 22:    661.55   0.005413   27.35  0.002553  ( 0.001107  0.050241 -0.005286)
 23:    771.59   0.012792   64.65  0.005174  (-0.064448 -0.022192 -0.022969)
 24:    772.23   0.238580  1205.69  0.096412  (-0.292768  0.004857 -0.103321)
 25:    805.08   0.104563  528.42  0.040531  (-0.200531 -0.001228  0.017797)
 26:    808.64   0.003872   19.57  0.001494  ( 0.007927 -0.037830 -0.000578)
 27:    822.47   0.001997   10.09  0.000758  (-0.001088 -0.027504  0.000409)
 28:    889.30   0.332433  1679.98  0.116653  ( 0.341509 -0.000008  0.004981)
 29:    937.53   0.269699  1362.95  0.089771  ( 0.297903  0.000186  0.032008)
 30:    949.03   0.001142    5.77  0.000375  ( 0.003805 -0.018996  0.000217)
 31:    964.97   1.213778  6133.94  0.392527  ( 0.626519  0.000034  0.000683)
 32:    999.21   0.000057    0.29  0.000018  ( 0.003965  0.000211  0.001465)
 33:   1000.79   0.000011    0.06  0.000003  (-0.000958  0.001574 -0.000264)
 34:   1010.18   0.000013    0.07  0.000004  (-0.001066  0.001705  0.000088)
 35:   1018.69   0.012907   65.23  0.003954  ( 0.062779 -0.003163 -0.001632)
 36:   1019.46   0.020241  102.29  0.006196  (-0.078625 -0.003610  0.000962)
 37:   1021.83   0.076182  384.99  0.023266  (-0.152483  0.000553 -0.003792)
 38:   1030.69   0.000014    0.07  0.000004  ( 0.001383 -0.001558  0.000063)
 39:   1049.76   0.653652  3303.29  0.194312  (-0.440726  0.000057 -0.008525)
 40:   1101.50   0.002764   13.97  0.000783  (-0.011328  0.000973 -0.025569)
 41:   1107.07   0.006730   34.01  0.001897  ( 0.001697  0.043518  0.000642)
 42:   1153.60   0.000272    1.37  0.000074  (-0.000118 -0.008577  0.000151)
 43:   1154.67   0.000422    2.13  0.000114  (-0.009336  0.000208  0.005180)
 44:   1171.58   0.000117    0.59  0.000031  (-0.000779  0.005520 -0.000071)
 45:   1206.06   0.199493  1008.16  0.051618  (-0.227165  0.000109 -0.003787)
 46:   1262.95   0.000928    4.69  0.000229  ( 0.000798  0.015121  0.000059)
 47:   1317.74   0.000970    4.90  0.000230  (-0.014860 -0.000145  0.002990)
 48:   1333.50   0.000547    2.76  0.000128  (-0.000058  0.011311 -0.000026)
 49:   1389.07   0.029455  148.85  0.006617  ( 0.079253 -0.000420 -0.018332)
 50:   1391.16   0.008161   41.24  0.001831  (-0.000895 -0.042775  0.000214)
 51:   1460.67   0.082474  416.79  0.017620  (-0.132738 -0.000120  0.000869)
 52:   1481.44   0.001783    9.01  0.000376  ( 0.008119  0.000044 -0.017598)
 53:   1493.73   0.000368    1.86  0.000077  (-0.000043  0.008768 -0.000031)
 54:   1499.49   0.011383   57.52  0.002369  (-0.000544  0.048668  0.000050)
 55:   1570.37   0.109285  552.28  0.021717  (-0.147303 -0.000200  0.004317)
 56:   1576.92   0.001484    7.50  0.000294  (-0.003161  0.016844  0.000070)
 57:   1590.35   0.521565  2635.77  0.102343  ( 0.319725  0.000029  0.010916)
 58:   1662.03   0.000084    0.43  0.000016  ( 0.000006 -0.003982  0.000021)
 59:   3209.05   0.000399    2.02  0.000039  (-0.006091  0.001303  0.000114)
 60:   3209.12   0.000969    4.90  0.000094  ( 0.009667  0.000885 -0.000094)
 61:   3217.93   0.000962    4.86  0.000093  (-0.007403 -0.000877  0.006141)
 62:   3218.33   0.001097    5.54  0.000106  (-0.000899  0.010261  0.000516)
 63:   3221.84   0.000429    2.17  0.000042  (-0.006388  0.000031  0.000874)
 64:   3223.37   0.000630    3.18  0.000061  (-0.000096  0.007806 -0.000074)
 65:   3229.11   0.004001   20.22  0.000387  (-0.019550 -0.000162  0.002106)
 66:   3230.75   0.000632    3.19  0.000061  ( 0.000860  0.007764 -0.000111)
 67:   3231.90   0.040254  203.43  0.003887  (-0.062324  0.000112 -0.001612)
 68:   3233.88   0.000080    0.40  0.000008  (-0.000602  0.002705 -0.000098)

* The epsilon (eps) is given for a Dirac delta lineshape.
** The dipole moment derivative (T) already includes vibrational overlap.

The first frequency considered to be a vibration is 8
The total number of vibrations considered is 61


--------------------------
THERMOCHEMISTRY AT 298.15K
--------------------------

Temperature         ...   298.15 K
Pressure            ...     1.00 atm
Total Mass          ...   170.21 AMU
Quasi RRHO          ...     True
Cut-Off Frequency   ...     1.00 cm^-1

Throughout the following assumptions are being made:
  (1) The electronic state is orbitally nondegenerate
      but the spin degeneracy is treated
  (2) There are no thermally accessible electronically excited states
  (3) Hindered rotations indicated by low frequency modes are not
      treated as such but are treated as vibrations and this may
      cause some error
  (4) All equations used are the standard statistical mechanics
      equations for an ideal gas
  (5) All vibrations are strictly harmonic

freq.      74.14  E(vib)   ...       0.49 
freq.     189.39  E(vib)   ...       0.36 
freq.     218.97  E(vib)   ...       0.33 
freq.     313.51  E(vib)   ...       0.25 
freq.     345.20  E(vib)   ...       0.23 
freq.     383.35  E(vib)   ...       0.20 
freq.     405.26  E(vib)   ...       0.19 
freq.     453.28  E(vib)   ...       0.16 
freq.     466.52  E(vib)   ...       0.16 
freq.     542.92  E(vib)   ...       0.12 
freq.     579.07  E(vib)   ...       0.11 
freq.     593.16  E(vib)   ...       0.10 
freq.     634.69  E(vib)   ...       0.09 
freq.     658.74  E(vib)   ...       0.08 
freq.     661.55  E(vib)   ...       0.08 
freq.     771.59  E(vib)   ...       0.05 
freq.     772.23  E(vib)   ...       0.05 
freq.     805.08  E(vib)   ...       0.05 
freq.     808.64  E(vib)   ...       0.05 
freq.     822.47  E(vib)   ...       0.05 
freq.     889.30  E(vib)   ...       0.04 
freq.     937.53  E(vib)   ...       0.03 
freq.     949.03  E(vib)   ...       0.03 
freq.     964.97  E(vib)   ...       0.03 
freq.     999.21  E(vib)   ...       0.02 
freq.    1000.79  E(vib)   ...       0.02 
freq.    1010.18  E(vib)   ...       0.02 
freq.    1018.69  E(vib)   ...       0.02 
freq.    1019.46  E(vib)   ...       0.02 
freq.    1021.83  E(vib)   ...       0.02 
freq.    1030.69  E(vib)   ...       0.02 
freq.    1049.76  E(vib)   ...       0.02 
freq.    1101.50  E(vib)   ...       0.02 
freq.    1107.07  E(vib)   ...       0.02 
freq.    1153.60  E(vib)   ...       0.01 
freq.    1154.67  E(vib)   ...       0.01 
freq.    1171.58  E(vib)   ...       0.01 
freq.    1206.06  E(vib)   ...       0.01 
freq.    1262.95  E(vib)   ...       0.01 
freq.    1317.74  E(vib)   ...       0.01 
freq.    1333.50  E(vib)   ...       0.01 
freq.    1389.07  E(vib)   ...       0.00 
freq.    1391.16  E(vib)   ...       0.00 
freq.    1460.67  E(vib)   ...       0.00 
freq.    1481.44  E(vib)   ...       0.00 
freq.    1493.73  E(vib)   ...       0.00 
freq.    1499.49  E(vib)   ...       0.00 
freq.    1570.37  E(vib)   ...       0.00 
freq.    1576.92  E(vib)   ...       0.00 
freq.    1590.35  E(vib)   ...       0.00 
freq.    1662.03  E(vib)   ...       0.00 
freq.    3209.05  E(vib)   ...       0.00 
freq.    3209.12  E(vib)   ...       0.00 
freq.    3217.93  E(vib)   ...       0.00 
freq.    3218.33  E(vib)   ...       0.00 
freq.    3221.84  E(vib)   ...       0.00 
freq.    3223.37  E(vib)   ...       0.00 
freq.    3229.11  E(vib)   ...       0.00 
freq.    3230.75  E(vib)   ...       0.00 
freq.    3231.90  E(vib)   ...       0.00 
freq.    3233.88  E(vib)   ...       0.00 

------------
INNER ENERGY
------------

The inner energy is: U= E(el) + E(ZPE) + E(vib) + E(rot) + E(trans)
    E(el)   - is the total energy from the electronic structure calculation
              = E(kin-el) + E(nuc-el) + E(el-el) + E(nuc-nuc)
    E(ZPE)  - the the zero temperature vibrational energy from the frequency calculation
    E(vib)  - the the finite temperature correction to E(ZPE) due to population
              of excited vibrational states
    E(rot)  - is the rotational thermal energy
    E(trans)- is the translational thermal energy

Summary of contributions to the inner energy U:
Electronic energy                ...   -537.88113106 Eh
Zero point energy                ...      0.18348456 Eh     115.14 kcal/mol
Thermal vibrational correction   ...      0.00580810 Eh       3.64 kcal/mol
Thermal rotational correction    ...      0.00141627 Eh       0.89 kcal/mol
Thermal translational correction ...      0.00141627 Eh       0.89 kcal/mol
-----------------------------------------------------------------------
Total thermal energy                   -537.68900586 Eh


Summary of corrections to the electronic energy:
(perhaps to be used in another calculation)
Total thermal correction                  0.00864065 Eh       5.42 kcal/mol
Non-thermal (ZPE) correction              0.18348456 Eh     115.14 kcal/mol
-----------------------------------------------------------------------
Total correction                          0.19212520 Eh     120.56 kcal/mol


--------
ENTHALPY
--------

The enthalpy is H = U + kB*T
                kB is Boltzmann's constant
Total thermal energy              ...   -537.68900586 Eh 
Thermal Enthalpy correction       ...      0.00094421 Eh       0.59 kcal/mol
-----------------------------------------------------------------------
Total Enthalpy                    ...   -537.68806165 Eh


Note: Only C1 symmetry has been detected, increase convergence thresholds 
      if your molecule has a higher symmetry. Symmetry factor of 1.0 is   
      used for the rotational entropy correction. 
 

Note: Rotational entropy computed according to Herzberg 
Infrared and Raman Spectra, Chapter V,1, Van Nostrand Reinhold, 1945 
Point Group:  C1, Symmetry Number:   1  
Rotational constants in cm-1:     0.082795     0.014866     0.013331 

Vibrational entropy computed according to the QRRHO of S. Grimme
Chem.Eur.J. 2012 18 9955 using a reference frequency of 100.0 cm-1


-------
ENTROPY
-------

The entropy contributions are T*S = T*(S(el)+S(vib)+S(rot)+S(trans))
     S(el)   - electronic entropy
     S(vib)  - vibrational entropy
     S(rot)  - rotational entropy
     S(trans)- translational entropy
The entropies will be listed as multiplied by the temperature to get
units of energy

Electronic entropy                ...      0.00065446 Eh      0.41 kcal/mol
Vibrational entropy               ...      0.00901828 Eh      5.66 kcal/mol
Rotational entropy                ...      0.01471219 Eh      9.23 kcal/mol
Translational entropy             ...      0.01962451 Eh     12.31 kcal/mol
-----------------------------------------------------------------------
Final entropy term                ...      0.04400944 Eh     27.62 kcal/mol

In case the symmetry of your molecule has not been determined correctly
or in case you have a reason to use a different symmetry number we print 
out the resulting rotational entropy values for sn=1,12:

 non-linear molecules -----------------------------------
|  sn= 1 | S(rot)=       0.01471219 Eh      9.23 kcal/mol|
|  sn= 2 | S(rot)=       0.01405773 Eh      8.82 kcal/mol|
|  sn= 3 | S(rot)=       0.01367490 Eh      8.58 kcal/mol|
|  sn= 4 | S(rot)=       0.01340327 Eh      8.41 kcal/mol|
|  sn= 5 | S(rot)=       0.01319259 Eh      8.28 kcal/mol|
|  sn= 6 | S(rot)=       0.01302044 Eh      8.17 kcal/mol|
|  sn= 7 | S(rot)=       0.01287490 Eh      8.08 kcal/mol|
|  sn= 8 | S(rot)=       0.01274882 Eh      8.00 kcal/mol|
|  sn= 9 | S(rot)=       0.01263761 Eh      7.93 kcal/mol|
|  sn=10 | S(rot)=       0.01253813 Eh      7.87 kcal/mol|
|  sn=11 | S(rot)=       0.01244814 Eh      7.81 kcal/mol|
|  sn=12 | S(rot)=       0.01236599 Eh      7.76 kcal/mol|
 linear molecules ---------------------------------------
|  Dinfh | S(rot)=       0.00940247 Eh      5.90 kcal/mol|
|  Cinfv | S(rot)=       0.01005693 Eh      6.31 kcal/mol|
 --------------------------------------------------------


-------------------
GIBBS FREE ENERGY
-------------------

The Gibbs free energy is G = H - T*S

Total enthalpy                    ...   -537.68806165 Eh 
Total entropy correction          ...     -0.04400944 Eh    -27.62 kcal/mol
-----------------------------------------------------------------------
Final Gibbs free energy         ...   -537.73207109 Eh

For completeness - the Gibbs free energy minus the electronic energy
G-E(el)                           ...      0.14905998 Eh     93.54 kcal/mol


Maximum memory used throughout the entire PROP-calculation: 610.1 MB

--------------------------------
SUGGESTED CITATIONS FOR THIS RUN
--------------------------------

Below you find a list of papers that are relevant to this ORCA run
We neither can nor want to force you to cite these papers, but we appreciate if you do
You receive ORCA, which is the product of decades of hard work by many enthusiastic individuals, for free
The only thing we kindly ask in return is that you cite our papers,
We deeply appreciate it, if you show your appreciation for ORCA by not just citing the generic ORCA reference.

Please note that relegating all ORCA citations to the supporting information does *not* help us.
SI sections are not indexed - citations you put there will not count into any citation statistics
But we need these citations in order to attract the funding resources that allow us to do what we are doing

Therefore, if you are a happy ORCA user, please consider citing a few of the papers listed below in the main body of your paper

In addition to the list printed below, the program has created the file cs_rporg_061_ox_freq_04.bibtex that contains the list in bibtex format
You can import this file easily into all common literature databanks and citation aid programs


List of essential papers. We consider these as the minimum necessary citations

  1. Neese,F.
     Software update: the ORCA program system, version 5.0
     WIRES Comput. Molec. Sci., 2022 12(1)e1606
     doi.org/10.1002/wcms.1606

List of papers to cite with high priority. The work reported in these papers was absolutely
necessary for this run to complete.
Our perspective: the developers of density functionals and basis sets usually get cited in chemistry papers
Good! But without the algorithms to do something with them, the functionals or basis sets would not do anything.
Hence, in our opinion, the algorithm design and method developments papers are equally worthy of getting cited

  1. Neese,F.
     An improvement of the resolution of the identity approximation for the formation of the Coulomb matrix
     J. Comp. Chem., 2003 24(14)1740-1747
     doi.org/10.1002/jcc.10318
  2. Neese,F.; Wennmohs,F.; Hansen,A.; Becker,U.
     Efficient, approximate and parallel Hartree-Fock and hybrid DFT calculations. A 'chain-of-spheres' algorithm for the Hartree-Fock exchange
     Chem. Phys., 2009 356(1-3)98-109
     doi.org/10.1016/j.chemphys.2008.10.036
  3. Bykov,D.; Petrenko,T.; Izsak,R.; Kossmann,S.; Becker,U.; Valeev,E.; Neese,F.
     Efficient implementation of the analytic second derivatives of Hartree-Fock and hybrid DFT energies: a detailed analysis of different approximations
     Molec. Phys., 2015 113 1961-1977
     doi.org/10.1080/00268976.2015.1025114
  4. Garcia-Rates,M.; Neese,F.
     Efficient implementation of the analytical second derivatives of hartree-fock and hybrid DFT energies within the framework of the conductor-like polarizable continuum model
     J. Comput. Chem., 2019 40 1816-1828
     doi.org/10.1002/jcc.25833
  5. Garcia-Rates,M.; Neese,F.
     Effect of the Solute Cavity on the Solvation Energy and its Derivatives within the Framework of the Gaussian Charge Scheme
     J. Comput. Chem., 2020 41 922-939
     doi.org/10.1002/jcc.26139
  6. Helmich-Paris,B.; de Souza,B.; Neese,F.; Izsák,R.
     An improved chain of spheres for exchange algorithm
     J. Chem. Phys., 2021 155 104109
     doi.org/doi: 10.1063/5.0058766.
  7. Neese,F.
     The SHARK Integral Generation and Digestion System
     J. Comp. Chem., 2022  1-16
     doi.org/10.1002/jcc.26942
  8. Grimme,S.; Antony,J.; Ehrlich,S.; Krieg,H.
     A consistent and accurate ab initio parametrization of density functional dispersion correction (DFT-D) for the 94 elements H-Pu
     J. Chem. Phys., 2010 132 154104-XXXX
     doi.org/10.1063/1.3382344
  9. Grimme,S.; Ehrlich,S.; Goerigk,L.
     Effect of the damping function in dispersion corrected density functional theory
     J. Comput. Chem., 2011 32(7)1456-1465
     doi.org/10.1002/jcc.21759

List of suggested additional citations. These are papers that are important in the 'surrounding' of 
of this run, or papers that preceded the highly important papers. If you like your results we are grateful for a citation.

  1. Izsak,R.; Neese,F.
     An overlap fitted chain of spheres exchange method
     J. Chem. Phys., 2011 135 144105
     doi.org/10.1063/1.3646921
  2. Izsak,R.; Hansen,A.; Neese,F.
     The resolution of identity and chain of spheres approximations for the LPNO-CCSD singles Fock term
     Molec. Phys., 2012 110 2413-2417
     doi.org/10.1080/00268976.2012.687466
  3. Neese,F.
     The ORCA program system
     WIRES Comput. Molec. Sci., 2012 2(1)73-78
     doi.org/10.1002/wcms.81
  4. Izsak,R.; Neese,F.; Klopper,W.
     Robust fitting techniques in the chain of spheres approximation to the Fock exchange: The role of the complementary space
     J. Chem. Phys., 2013 139 
     doi.org/10.1063/1.4819264
  5. Neese,F.
     Software update: the ORCA program system, version 4.0
     WIRES Comput. Molec. Sci., 2018 8(1)1-6
     doi.org/10.1002/wcms.1327
  6. Neese,F.; Wennmohs,F.; Becker,U.; Riplinger,C.
     The ORCA quantum chemistry program package
     J. Chem. Phys., 2020 152 Art. No. L224108
     doi.org/10.1063/5.0004608

List of optional additional citations

  1. Neese,F.
     Approximate second-order SCF convergence for spin unrestricted wavefunctions
     Chem. Phys. Lett., 2000 325(1-3)93-98
     doi.org/10.1016/s0009-2614(00)00662-x

Timings for individual modules:

Sum of individual times          ...     6342.721 sec (= 105.712 min)
Startup calculation              ...       11.206 sec (=   0.187 min)   0.2 %
SCF iterations                   ...      394.216 sec (=   6.570 min)   6.2 %
Property integrals               ...     1540.572 sec (=  25.676 min)  24.3 %
SCF Response                     ...     2516.504 sec (=  41.942 min)  39.7 %
Property calculations            ...     1880.223 sec (=  31.337 min)  29.6 %
                             ****ORCA TERMINATED NORMALLY****
TOTAL RUN TIME: 0 days 1 hours 45 minutes 46 seconds 321 msec
