 vasp.6.3.2 27Jun22 (build Oct 25 2024 11:36:28) complex                        
  
 executed on             LinuxIFC date 2024.12.20  05:17:16
 running on   80 total cores
 distrk:  each k-point on   80 cores,    1 groups
 distr:  one band on NCORE=  10 cores,    8 groups


--------------------------------------------------------------------------------------------------------


 INCAR:
   SYSTEM = 102_red
   ISTART = 1
   ICHARG = 2
   INIWAV = 1
   NELM = 100
   ALGO = fast   	
   ISPIN = 2
   EDIFF = 1E-05
   ISMEAR = 0
   SIGMA = 0.05
   PREC = accurate
   ENCUT = 500
   LREAL = auto  	
   LWAVE = .TRUE.
   LCHARG = .FALSE.
   LAECHG = .FALSE.
   LVHAR = .FALSE.
   LVTOT = .FALSE.
   EDIFFG = -0.02
   IBRION = 2
   NSW = 500
   ISIF = 2
   POTIM = 0.5
   IVDW = 11
   LPLANE = .TRUE.
   NCORE = 10
   LSCALU = .FALSE.
   NSIM = 4
   LSOL = .TRUE.
   ISOL = 2
   R_SOLV = 2.1900
   EPSILON_INF = 1.8069
   N_MOL = 0.0115
   P_MOL = 0.82
   EB_K = 35.6880

 POTCAR:    PAW_PBE C 08Apr2002                   
 POTCAR:    PAW_PBE N 08Apr2002                   
 POTCAR:    PAW_PBE H 15Jun2001                   
 -----------------------------------------------------------------------------
|                                                                             |
|           W    W    AA    RRRRR   N    N  II  N    N   GGGG   !!!           |
|           W    W   A  A   R    R  NN   N  II  NN   N  G    G  !!!           |
|           W    W  A    A  R    R  N N  N  II  N N  N  G       !!!           |
|           W WW W  AAAAAA  RRRRR   N  N N  II  N  N N  G  GGG   !            |
|           WW  WW  A    A  R   R   N   NN  II  N   NN  G    G                |
|           W    W  A    A  R    R  N    N  II  N    N   GGGG   !!!           |
|                                                                             |
|     You use a magnetic or noncollinear calculation, but did not specify     |
|     the initial magnetic moment with the MAGMOM tag. Note that a            |
|     default of 1 will be used for all atoms. This ferromagnetic setup       |
|     may break the symmetry of the crystal, in particular it may rule        |
|     out finding an antiferromagnetic solution. Thence, we recommend         |
|     setting the initial magnetic moment manually or verifying carefully     |
|     that this magnetic setup is desired.                                    |
|                                                                             |
 -----------------------------------------------------------------------------

 POTCAR:    PAW_PBE C 08Apr2002                   
   SHA256 =  253f7b50bb8d59471dbedb8285d89021f4a42ed1a2c5d38a03a736e69125dd95 C/POTCAR              
   COPYR  = (c) Copyright 08Apr2002 Georg Kresse                                                    
   COPYR  = This file is part of the software VASP. Any use, copying, and all other rights are regul
   COPYR  = If you do not have a valid VASP license, you may not use, copy or distribute this file. 
   VRHFIN =C: s2p2                                                                                  
   LEXCH  = PE                                                                                      
   EATOM  =   147.1560 eV,   10.8157 Ry                                                             
                                                                                                    
   TITEL  = PAW_PBE C 08Apr2002                                                                     
   LULTRA =        F    use ultrasoft PP ?                                                          
   IUNSCR =        1    unscreen: 0-lin 1-nonlin 2-no                                               
   RPACOR =    1.200    partial core radius                                                         
   POMASS =   12.011; ZVAL   =    4.000    mass and valenz                                          
   RCORE  =    1.500    outmost cutoff radius                                                       
   RWIGS  =    1.630; RWIGS  =    0.863    wigner-seitz radius (au A)                               
   ENMAX  =  400.000; ENMIN  =  300.000 eV                                                          
   ICORE  =        2    local potential                                                             
   LCOR   =        T    correct aug charges                                                         
   LPAW   =        T    paw PP                                                                      
   EAUG   =  644.873                                                                                
   DEXC   =    0.000                                                                                
   RMAX   =    1.529    core radius for proj-oper                                                   
   RAUG   =    1.300    factor for augmentation sphere                                              
   RDEP   =    1.501    radius for radial grids                                                     
   RDEPT  =    1.300    core radius for aug-charge                                                  
                                                                                                    
   Atomic configuration                                                                             
    4 entries                                                                                       
     n  l   j            E        occ.                                                              
     1  0  0.50      -273.3789   2.0000                                                             
     2  0  0.50       -13.7508   2.0000                                                             
     2  1  0.50        -5.2854   2.0000                                                             
     3  2  1.50        -5.4423   0.0000                                                             
   Description                                                                                      
     l       E           TYP  RCUT    TYP  RCUT                                                     
     0    -13.7508458     23  1.200                                                                 
     0     -8.2022199     23  1.200                                                                 
     1     -5.2854383     23  1.500                                                                 
     1     34.0145650     23  1.500                                                                 
     2     -5.4423304      7  1.500                                                                 
  local pseudopotential read in
  partial core-charges read in
  partial kinetic energy density read in
  atomic valenz-charges read in
  non local Contribution for L=           0  read in
    real space projection operators read in
  non local Contribution for L=           0  read in
    real space projection operators read in
  non local Contribution for L=           1  read in
    real space projection operators read in
  non local Contribution for L=           1  read in
    real space projection operators read in
    PAW grid and wavefunctions read in
 
   number of l-projection  operators is LMAX  =           4
   number of lm-projection operators is LMMAX =           8
 
 POTCAR:    PAW_PBE N 08Apr2002                   
   SHA256 =  e053789ff3a61a86a1b75d8a110fcc91f86041011e7b0817c7c99e4e8a6349d7 N/POTCAR              
   COPYR  = (c) Copyright 08Apr2002 Georg Kresse                                                    
   COPYR  = This file is part of the software VASP. Any use, copying, and all other rights are regul
   COPYR  = If you do not have a valid VASP license, you may not use, copy or distribute this file. 
   VRHFIN =N: s2p3                                                                                  
   LEXCH  = PE                                                                                      
   EATOM  =   264.5486 eV,   19.4438 Ry                                                             
                                                                                                    
   TITEL  = PAW_PBE N 08Apr2002                                                                     
   LULTRA =        F    use ultrasoft PP ?                                                          
   IUNSCR =        1    unscreen: 0-lin 1-nonlin 2-no                                               
   RPACOR =    1.200    partial core radius                                                         
   POMASS =   14.001; ZVAL   =    5.000    mass and valenz                                          
   RCORE  =    1.500    outmost cutoff radius                                                       
   RWIGS  =    1.400; RWIGS  =    0.741    wigner-seitz radius (au A)                               
   ENMAX  =  400.000; ENMIN  =  300.000 eV                                                          
   ICORE  =        2    local potential                                                             
   LCOR   =        T    correct aug charges                                                         
   LPAW   =        T    paw PP                                                                      
   EAUG   =  627.112                                                                                
   DEXC   =    0.000                                                                                
   RMAX   =    1.529    core radius for proj-oper                                                   
   RAUG   =    1.300    factor for augmentation sphere                                              
   RDEP   =    1.514    radius for radial grids                                                     
   RDEPT  =    1.338    core radius for aug-charge                                                  
                                                                                                    
   Atomic configuration                                                                             
    4 entries                                                                                       
     n  l   j            E        occ.                                                              
     1  0  0.50      -384.7179   2.0000                                                             
     2  0  0.50       -18.5828   2.0000                                                             
     2  1  0.50        -7.0898   3.0000                                                             
     3  2  1.50        -6.8029   0.0000                                                             
   Description                                                                                      
     l       E           TYP  RCUT    TYP  RCUT                                                     
     0    -18.5828119     23  1.200                                                                 
     0    -13.5018863     23  1.200                                                                 
     1     -7.0897853     23  1.500                                                                 
     1      9.5240782     23  1.500                                                                 
     2     -6.8029130      7  1.500                                                                 
  local pseudopotential read in
  partial core-charges read in
  partial kinetic energy density read in
  atomic valenz-charges read in
  non local Contribution for L=           0  read in
    real space projection operators read in
  non local Contribution for L=           0  read in
    real space projection operators read in
  non local Contribution for L=           1  read in
    real space projection operators read in
  non local Contribution for L=           1  read in
    real space projection operators read in
    PAW grid and wavefunctions read in
 
   number of l-projection  operators is LMAX  =           4
   number of lm-projection operators is LMMAX =           8
 
 POTCAR:    PAW_PBE H 15Jun2001                   
   SHA256 =  030f79b5d3ab3cf0e668861823c8fb652ff669f3e15e46930bd03bfd63a607b6 H/POTCAR              
   COPYR  = (c) Copyright 15Jun2001 Georg Kresse                                                    
   COPYR  = This file is part of the software VASP. Any use, copying, and all other rights are regul
   COPYR  = If you do not have a valid VASP license, you may not use, copy or distribute this file. 
   VRHFIN =H: ultrasoft test                                                                        
   LEXCH  = PE                                                                                      
   EATOM  =    12.4884 eV,    0.9179 Ry                                                             
                                                                                                    
   TITEL  = PAW_PBE H 15Jun2001                                                                     
   LULTRA =        F    use ultrasoft PP ?                                                          
   IUNSCR =        0    unscreen: 0-lin 1-nonlin 2-no                                               
   RPACOR =    0.000    partial core radius                                                         
   POMASS =    1.000; ZVAL   =    1.000    mass and valenz                                          
   RCORE  =    1.100    outmost cutoff radius                                                       
   RWIGS  =    0.700; RWIGS  =    0.370    wigner-seitz radius (au A)                               
   ENMAX  =  250.000; ENMIN  =  200.000 eV                                                          
   RCLOC  =    0.701    cutoff for local pot                                                        
   LCOR   =        T    correct aug charges                                                         
   LPAW   =        T    paw PP                                                                      
   EAUG   =  400.000                                                                                
   RMAX   =    1.123    core radius for proj-oper                                                   
   RAUG   =    1.200    factor for augmentation sphere                                              
   RDEP   =    1.112    radius for radial grids                                                     
   RDEPT  =    0.926    core radius for aug-charge                                                  
                                                                                                    
   Atomic configuration                                                                             
    2 entries                                                                                       
     n  l   j            E        occ.                                                              
     1  0  0.50        -6.4927   1.0000                                                             
     2  1  0.50        -3.4015   0.0000                                                             
   Description                                                                                      
     l       E           TYP  RCUT    TYP  RCUT                                                     
     0     -6.4927494     23  1.100                                                                 
     0      6.8029130     23  1.100                                                                 
     1     -4.0817478     23  1.100                                                                 
  local pseudopotential read in
  atomic valenz-charges read in
  non local Contribution for L=           0  read in
    real space projection operators read in
  non local Contribution for L=           0  read in
    real space projection operators read in
  non local Contribution for L=           1  read in
    real space projection operators read in
    PAW grid and wavefunctions read in
 
   number of l-projection  operators is LMAX  =           3
   number of lm-projection operators is LMMAX =           5
 
 Optimization of the real space projectors (new method)

 maximal supplied QI-value         = 25.13
 optimisation between [QCUT,QGAM] = [ 11.31, 22.87] = [ 35.82,146.48] Ry 
 Optimized for a Real-space Cutoff    1.03 Angstroem

   l    n(q)    QCUT    max X(q) W(low)/X(q) W(high)/X(q)  e(spline) 
   0      7    11.310   115.676    0.20E-03    0.90E-03    0.20E-06
   0      7    11.310    87.132    0.20E-03    0.89E-03    0.19E-06
   1      6    11.310     4.429    0.16E-03    0.28E-03    0.12E-06
   1      6    11.310     2.733    0.12E-03    0.21E-03    0.99E-07
 Optimization of the real space projectors (new method)

 maximal supplied QI-value         = 25.13
 optimisation between [QCUT,QGAM] = [ 11.31, 22.87] = [ 35.82,146.48] Ry 
 Optimized for a Real-space Cutoff    1.43 Angstroem

   l    n(q)    QCUT    max X(q) W(low)/X(q) W(high)/X(q)  e(spline) 
   0     10    11.310    79.467    0.42E-04    0.81E-04    0.60E-06
   0     10    11.310    66.151    0.40E-04    0.81E-04    0.60E-06
   1      9    11.310    17.416    0.14E-03    0.88E-04    0.14E-05
   1      9    11.310    12.382    0.15E-03    0.93E-04    0.14E-05
 Optimization of the real space projectors (new method)

 maximal supplied QI-value         = 34.20
 optimisation between [QCUT,QGAM] = [ 11.29, 22.57] = [ 35.68,142.71] Ry 
 Optimized for a Real-space Cutoff    1.20 Angstroem

   l    n(q)    QCUT    max X(q) W(low)/X(q) W(high)/X(q)  e(spline) 
   0      8    11.287    19.460    0.22E-03    0.50E-03    0.19E-06
   0      8    11.287    12.209    0.21E-03    0.48E-03    0.18E-06
   1      8    11.287     4.655    0.21E-03    0.11E-04    0.26E-06
  PAW_PBE C 08Apr2002                   :
 energy of atom  1       EATOM= -147.1560
 kinetic energy error for atom=    0.0076 (will be added to EATOM!!)
  PAW_PBE N 08Apr2002                   :
 energy of atom  2       EATOM= -264.5486
 kinetic energy error for atom=    0.0138 (will be added to EATOM!!)
  PAW_PBE H 15Jun2001                   :
 energy of atom  3       EATOM=  -12.4884
 kinetic energy error for atom=    0.0020 (will be added to EATOM!!)
 
 
 POSCAR: C N H
  positions in direct lattice
  velocities in cartesian coordinates
 exchange correlation table for  LEXCH =        8
   RHO(1)=    0.500       N(1)  =     2000
   RHO(2)=  100.500       N(2)  =     4000
 
 POSCAR: C N H
  positions in direct lattice
  velocities in cartesian coordinates
 
 POSCAR: C N H
  positions in direct lattice
  velocities in cartesian coordinates
 


--------------------------------------------------------------------------------------------------------


 ion  position               nearest neighbor table
   1  0.529  0.468  0.500-  17 1.09   2 1.38   9 1.42
   2  0.559  0.486  0.500-  16 1.09   1 1.38   3 1.42
   3  0.558  0.521  0.500-  15 1.09   4 1.38   2 1.42
   4  0.528  0.539  0.500-  14 1.09   3 1.38   5 1.42
   5  0.497  0.521  0.500-  10 1.37   4 1.42   9 1.44
   6  0.440  0.522  0.500-  13 1.09  10 1.33   7 1.42
   7  0.438  0.486  0.500-  12 1.09   8 1.38   6 1.42
   8  0.467  0.468  0.500-  11 1.09   7 1.38   9 1.42
   9  0.498  0.485  0.500-   8 1.42   1 1.42   5 1.44
  10  0.468  0.539  0.500-   6 1.33   5 1.37
  11  0.466  0.441  0.500-   8 1.09
  12  0.413  0.474  0.500-   7 1.09
  13  0.417  0.536  0.500-   6 1.09
  14  0.527  0.566  0.500-   4 1.09
  15  0.582  0.535  0.500-   3 1.09
  16  0.583  0.473  0.500-   2 1.09
  17  0.530  0.441  0.500-   1 1.09
 
  LATTYP: Found a simple cubic cell.
 ALAT       =    40.0000000000
  
  Lattice vectors:
  
 A1 = (  40.0000000000,   0.0000000000,   0.0000000000)
 A2 = (   0.0000000000,  40.0000000000,   0.0000000000)
 A3 = (   0.0000000000,   0.0000000000,  40.0000000000)


Analysis of symmetry for initial positions (statically):
=====================================================================
 Subroutine PRICEL returns:
 Original cell was already a primitive cell.
 

 Routine SETGRP: Setting up the symmetry group for a 
 simple cubic supercell.


 Subroutine GETGRP returns: Found  2 space group operations
 (whereof  2 operations were pure point group operations)
 out of a pool of 48 trial point group operations.


The static configuration has the point symmetry C_1h.


Analysis of symmetry for dynamics (positions and initial velocities):
=====================================================================
 Subroutine PRICEL returns:
 Original cell was already a primitive cell.
 

 Routine SETGRP: Setting up the symmetry group for a 
 simple cubic supercell.


 Subroutine GETGRP returns: Found  2 space group operations
 (whereof  2 operations were pure point group operations)
 out of a pool of 48 trial point group operations.


The dynamic configuration has the point symmetry C_1h.


Analysis of constrained symmetry for selective dynamics:
=====================================================================
 Subroutine PRICEL returns:
 Original cell was already a primitive cell.
 

 Routine SETGRP: Setting up the symmetry group for a 
 simple cubic supercell.


 Subroutine GETGRP returns: Found  2 space group operations
 (whereof  2 operations were pure point group operations)
 out of a pool of 48 trial point group operations.


The constrained configuration has the point symmetry C_1h.


Analysis of structural, dynamic, and magnetic symmetry:
=====================================================================
 Subroutine PRICEL returns:
 Original cell was already a primitive cell.
 

 Routine SETGRP: Setting up the symmetry group for a 
 simple cubic supercell.


 Subroutine GETGRP returns: Found  2 space group operations
 (whereof  2 operations were pure point group operations)
 out of a pool of 48 trial point group operations.


The overall configuration has the point symmetry C_1h.


 Subroutine INISYM returns: Found  2 space group operations
 (whereof  2 operations are pure point group operations),
 and found     1 'primitive' translations


----------------------------------------------------------------------------------------

                                     Primitive cell                                     

  volume of cell :   64000.0000

  direct lattice vectors                    reciprocal lattice vectors
    40.000000000  0.000000000  0.000000000     0.025000000  0.000000000  0.000000000
     0.000000000 40.000000000  0.000000000     0.000000000  0.025000000  0.000000000
     0.000000000  0.000000000 40.000000000     0.000000000  0.000000000  0.025000000

  length of vectors
    40.000000000 40.000000000 40.000000000     0.025000000  0.025000000  0.025000000

  position of ions in fractional coordinates (direct lattice)
     0.529302629  0.468063368  0.500000000
     0.558805777  0.486001048  0.500000000
     0.558203778  0.521451152  0.500000000
     0.528177438  0.538519474  0.500000000
     0.497399488  0.520809309  0.500000000
     0.439711537  0.521596464  0.500000000
     0.437658467  0.486208822  0.500000000
     0.466860891  0.467892467  0.500000000
     0.498013430  0.484886662  0.500000000
     0.468132728  0.538653663  0.500000000
     0.466401193  0.440592274  0.500000000
     0.413223238  0.474129361  0.500000000
     0.416699206  0.536398647  0.500000000
     0.527333181  0.565792780  0.500000000
     0.581715318  0.535280289  0.500000000
     0.582754913  0.472960952  0.500000000
     0.529607788  0.440762267  0.500000000

  ion indices of the primitive-cell ions
   primitive index   ion index
                 1           1
                 2           2
                 3           3
                 4           4
                 5           5
                 6           6
                 7           7
                 8           8
                 9           9
                10          10
                11          11
                12          12
                13          13
                14          14
                15          15
                16          16
                17          17

----------------------------------------------------------------------------------------

 
 
 KPOINTS: K-Point Grid                            

Automatic generation of k-mesh.
 Grid dimensions read from file:
 generate k-points for:    1    1    1

 Generating k-lattice:

  Cartesian coordinates                     Fractional coordinates (reciprocal lattice)
     0.025000000  0.000000000  0.000000000     1.000000000  0.000000000  0.000000000
     0.000000000  0.025000000  0.000000000     0.000000000  1.000000000  0.000000000
     0.000000000  0.000000000  0.025000000     0.000000000  0.000000000  1.000000000

  Length of vectors
     0.025000000  0.025000000  0.025000000

  Shift w.r.t. Gamma in fractional coordinates (k-lattice)
     0.000000000  0.000000000  0.000000000

 
 Subroutine IBZKPT returns following result:
 ===========================================
 
 Found      1 irreducible k-points:
 
 Following reciprocal coordinates:
            Coordinates               Weight
  0.000000  0.000000  0.000000      1.000000
 
 Following cartesian coordinates:
            Coordinates               Weight
  0.000000  0.000000  0.000000      1.000000
 


--------------------------------------------------------------------------------------------------------




 Dimension of arrays:
   k-points           NKPTS =      1   k-points in BZ     NKDIM =      1   number of bands    NBANDS=     48
   number of dos      NEDOS =    301   number of ions     NIONS =     17
   non local maximal  LDIM  =      4   non local SUM 2l+1 LMDIM =      8
   total plane-waves  NPLWV = ******
   max r-space proj   IRMAX =   4928   max aug-charges    IRDMAX=   5085
   dimension x,y,z NGX =   294 NGY =  294 NGZ =  294
   dimension x,y,z NGXF=   588 NGYF=  588 NGZF=  588
   support grid    NGXF=   588 NGYF=  588 NGZF=  588
   ions per type =               9   1   7
   NGX,Y,Z   is equivalent  to a cutoff of  12.22, 12.22, 12.22 a.u.
   NGXF,Y,Z  is equivalent  to a cutoff of  24.44, 24.44, 24.44 a.u.

 SYSTEM =  102_red                                 
 POSCAR =  C N H                                   

 Startparameter for this run:
   NWRITE =      2    write-flag & timer
   PREC   = accura    normal or accurate (medium, high low for compatibility)
   ISTART =      1    job   : 0-new  1-cont  2-samecut
   ICHARG =      2    charge: 1-file 2-atom 10-const
   ISPIN  =      2    spin polarized calculation?
   LNONCOLLINEAR =      F non collinear calculations
   LSORBIT =      F    spin-orbit coupling
   INIWAV =      1    electr: 0-lowe 1-rand  2-diag
   LASPH  =      F    aspherical Exc in radial PAW
 Electronic Relaxation 1
   ENCUT  =  500.0 eV  36.75 Ry    6.06 a.u.  72.93 72.93 72.93*2*pi/ulx,y,z
   ENINI  =  500.0     initial cutoff
   ENAUG  =  644.9 eV  augmentation charge cutoff
   NELM   =    100;   NELMIN=  2; NELMDL=  0     # of ELM steps 
   EDIFF  = 0.1E-04   stopping-criterion for ELM
   LREAL  =      T    real-space projection
   NLSPLINE    = F    spline interpolate recip. space projectors
   LCOMPAT=      F    compatible to vasp.4.4
   GGA_COMPAT  = T    GGA compatible to vasp.4.4-vasp.4.6
   LMAXPAW     = -100 max onsite density
   LMAXMIX     =    2 max onsite mixed and CHGCAR
   VOSKOWN=      0    Vosko Wilk Nusair interpolation
   ROPT   =   -0.00025  -0.00025  -0.00025
 Ionic relaxation
   EDIFFG = -.2E-01   stopping-criterion for IOM
   NSW    =    500    number of steps for IOM
   NBLOCK =      1;   KBLOCK =    500    inner block; outer block 
   IBRION =      2    ionic relax: 0-MD 1-quasi-New 2-CG
   NFREE  =      1    steps in history (QN), initial steepest desc. (CG)
   ISIF   =      2    stress and relaxation
   IWAVPR =     11    prediction:  0-non 1-charg 2-wave 3-comb
   ISYM   =      2    0-nonsym 1-usesym 2-fastsym
   LCORR  =      T    Harris-Foulkes like correction to forces

   POTIM  = 0.5000    time-step for ionic-motion
   TEIN   =    0.0    initial temperature
   TEBEG  =    0.0;   TEEND  =   0.0 temperature during run
   SMASS  =  -3.00    Nose mass-parameter (am)
   estimated Nose-frequenzy (Omega)   =  0.10E-29 period in steps = 0.13E+47 mass=  -0.366E-25a.u.
   SCALEE = 1.0000    scale energy and forces
   NPACO  =    256;   APACO  = 10.0  distance and # of slots for P.C.
   PSTRESS=    0.0 pullay stress

  Mass of Ions in am
   POMASS =  12.01 14.00  1.00
  Ionic Valenz
   ZVAL   =   4.00  5.00  1.00
  Atomic Wigner-Seitz radii
   RWIGS  =  -1.00 -1.00 -1.00
  virtual crystal weights 
   VCA    =   1.00  1.00  1.00
   NELECT =      48.0000    total number of electrons
   NUPDOWN=      -1.0000    fix difference up-down

 DOS related values:
   EMIN   =  10.00;   EMAX   =-10.00  energy-range for DOS
   EFERMI =   0.00
   ISMEAR =     0;   SIGMA  =   0.05  broadening in eV -4-tet -1-fermi 0-gaus

 Electronic relaxation 2 (details)
   IALGO  =     68    algorithm
   LDIAG  =      T    sub-space diagonalisation (order eigenvalues)
   LSUBROT=      F    optimize rotation matrix (better conditioning)
   TURBO    =      0    0=normal 1=particle mesh
   IRESTART =      0    0=no restart 2=restart with 2 vectors
   NREBOOT  =      0    no. of reboots
   NMIN     =      0    reboot dimension
   EREF     =   0.00    reference energy to select bands
   IMIX   =      4    mixing-type and parameters
     AMIX     =   0.40;   BMIX     =  1.00
     AMIX_MAG =   1.60;   BMIX_MAG =  1.00
     AMIN     =   0.10
     WC   =   100.;   INIMIX=   1;  MIXPRE=   1;  MAXMIX= -45

 Intra band minimization:
   WEIMIN = 0.0010     energy-eigenvalue tresh-hold
   EBREAK =  0.52E-07  absolut break condition
   DEPER  =   0.30     relativ break condition  

   TIME   =   0.40     timestep for ELM

  volume/ion in A,a.u.               =    3764.71     25405.49
  Fermi-wavevector in a.u.,A,eV,Ry     =   0.148740  0.281078  0.301011  0.022124
  Thomas-Fermi vector in A             =   0.822372
 
 Write flags
   LWAVE        =      T    write WAVECAR
   LDOWNSAMPLE  =      F    k-point downsampling of WAVECAR
   LCHARG       =      F    write CHGCAR
   LVTOT        =      F    write LOCPOT, total local potential
   LVHAR        =      F    write LOCPOT, Hartree potential only
   LELF         =      F    write electronic localiz. function (ELF)
   LORBIT       =      0    0 simple, 1 ext, 2 COOP (PROOUT), +10 PAW based schemes


 Dipole corrections
   LMONO  =      F    monopole corrections only (constant potential shift)
   LDIPOL =      F    correct potential (dipole corrections)
   IDIPOL =      0    1-x, 2-y, 3-z, 4-all directions 
   EPSILON=  1.0000000 bulk dielectric constant

 Exchange correlation treatment:
   GGA     =    --    GGA type
   LEXCH   =     8    internal setting for exchange type
   LIBXC   =     F    Libxc                    
   VOSKOWN =     0    Vosko Wilk Nusair interpolation
   LHFCALC =     F    Hartree Fock is set to
   LHFONE  =     F    Hartree Fock one center treatment
   AEXX    =    0.0000 exact exchange contribution

 Linear response parameters
   LEPSILON=     F    determine dielectric tensor
   LRPA    =     F    only Hartree local field effects (RPA)
   LNABLA  =     F    use nabla operator in PAW spheres
   LVEL    =     F    velocity operator in full k-point grid
   CSHIFT  =0.1000    complex shift for real part using Kramers Kronig
   OMEGAMAX=  -1.0    maximum frequency
   DEG_THRESHOLD= 0.2000000E-02 threshold for treating states as degnerate
   RTIME   =   -0.100 relaxation time in fs
  (WPLASMAI=    0.000 imaginary part of plasma frequency in eV, 0.658/RTIME)
   DFIELD  = 0.0000000 0.0000000 0.0000000 field for delta impulse in time
 
  Optional k-point grid parameters
   LKPOINTS_OPT  =     F    use optional k-point grid
   KPOINTS_OPT_MODE=     1    mode for optional k-point grid
 
 Orbital magnetization related:
   ORBITALMAG=     F  switch on orbital magnetization
   LCHIMAG   =     F  perturbation theory with respect to B field
   DQ        =  0.001000  dq finite difference perturbation B field
   LLRAUG    =     F  two centre corrections for induced B field

 Solvation model:
   LSOL             =     T         switch on solvation model
   LSOL_SCF         =     T         include solvation in SCF
   ISOL             =     2         solvation model type
   EFERMI_ref       =  0.000000         reference Fermi level
   capacitance_init =  1.000000         initial capacitance
 Nonlinear solvation model:
   LNLDIEL     =     T         switch on non-linear dielectric mode
   LNLION      =     T         switch on non-linear ionic mode
   LNLTEST     =     F         test non-linear model in linear regime
   I_NLOC_SOL  =     1         type of nonlocal dielectric response
   NC_K        =  0.015000     cutoff charge density for cavities (1/Angstrom**3)
   TAU         =  0.000879     cavity formation energy (eV/Angstrom**2)
   SIGMA_K     =  0.600000     cavity width
   A_K         =  0.125000     smoothing length (Angstrom)
   R_SOLV      =  2.190000     solvent radius (Angstrom)
   R_CAV       =  0.000000     cavity radius (Angstrom)
   R_DIEL      =  1.000000     dielectric radius (Angstrom)
   R_ION       =  0.000000     ionic radius (Angstrom)
   R_B         =  0.000000     bound charge radius (Angstrom)
   SOLTEMP     =298.000000     solvent temperature (K)
   EB_K        = 35.688000     relative permittivity of the bulk solvent
   EPSILON_INF =  1.806900     optical relative permittivity of bulk solvent
   N_MOL       =  0.011500     molar density of solvent (1/Angstrom**3)
   P_MOL       =  0.820000     solvent dipole moment (e*Angstrom)
   C_MOLAR     =  0.000000     electrolyte concentration (mol/L)
   LAMBDA_D_K  =  0.000000     Debye length (Angstrom)
   ZION        =  1.000000     charge of ions in electrolyte (e)
   D_ION       = -1.000000     minimum ion packing diameter (Angstrom)



--------------------------------------------------------------------------------------------------------


 conjugate gradient relaxation of ions
   using selective dynamics as specified on POSCAR
 charge density and potential will be updated during run
 spin polarized calculation
 RMM-DIIS sequential band-by-band and
  variant of blocked Davidson during initial phase
 perform sub-space diagonalisation
    before iterative eigenvector-optimisation
 modified Broyden-mixing scheme, WC =      100.0
 initial mixing is a Kerker type mixing with AMIX =  0.4000 and BMIX =      1.0000
 Hartree-type preconditioning will be used
 using additional bands           24
 real space projection scheme for non local part
 use partial core corrections
 calculate Harris-corrections to forces 
   (improved forces if not selfconsistent)
 use gradient corrections 
 use of overlap-Matrix (Vanderbilt PP)
 Gauss-broadening in eV      SIGMA  =   0.05


--------------------------------------------------------------------------------------------------------


  energy-cutoff  :      500.00
  volume of cell :    64000.00
      direct lattice vectors                 reciprocal lattice vectors
    40.000000000  0.000000000  0.000000000     0.025000000  0.000000000  0.000000000
     0.000000000 40.000000000  0.000000000     0.000000000  0.025000000  0.000000000
     0.000000000  0.000000000 40.000000000     0.000000000  0.000000000  0.025000000

  length of vectors
    40.000000000 40.000000000 40.000000000     0.025000000  0.025000000  0.025000000


 
 old parameters found on file WAVECAR:
  energy-cutoff  :      500.00
  volume of cell :    64000.00
      direct lattice vectors                 reciprocal lattice vectors
    40.000000000  0.000000000  0.000000000     0.025000000  0.000000000  0.000000000
     0.000000000 40.000000000  0.000000000     0.000000000  0.025000000  0.000000000
     0.000000000  0.000000000 40.000000000     0.000000000  0.000000000  0.025000000

  length of vectors

 
 k-points in units of 2pi/SCALE and weight: K-Point Grid                            
   0.00000000  0.00000000  0.00000000       1.000
 
 k-points in reciprocal lattice and weights: K-Point Grid                            
   0.00000000  0.00000000  0.00000000       1.000
 
 position of ions in fractional coordinates (direct lattice) 
   0.52930263  0.46806337  0.50000000
   0.55880578  0.48600105  0.50000000
   0.55820378  0.52145115  0.50000000
   0.52817744  0.53851947  0.50000000
   0.49739949  0.52080931  0.50000000
   0.43971154  0.52159646  0.50000000
   0.43765847  0.48620882  0.50000000
   0.46686089  0.46789247  0.50000000
   0.49801343  0.48488666  0.50000000
   0.46813273  0.53865366  0.50000000
   0.46640119  0.44059227  0.50000000
   0.41322324  0.47412936  0.50000000
   0.41669921  0.53639865  0.50000000
   0.52733318  0.56579278  0.50000000
   0.58171532  0.53528029  0.50000000
   0.58275491  0.47296095  0.50000000
   0.52960779  0.44076227  0.50000000
 
 position of ions in cartesian coordinates  (Angst):
  21.17210516 18.72253470 20.00000000
  22.35223107 19.44004194 20.00000000
  22.32815113 20.85804607 20.00000000
  21.12709752 21.54077897 20.00000000
  19.89597952 20.83237236 20.00000000
  17.58846147 20.86385857 20.00000000
  17.50633868 19.44835288 20.00000000
  18.67443564 18.71569870 20.00000000
  19.92053719 19.39546646 20.00000000
  18.72530912 21.54614653 20.00000000
  18.65604773 17.62369094 20.00000000
  16.52892953 18.96517444 20.00000000
  16.66796824 21.45594587 20.00000000
  21.09332725 22.63171122 20.00000000
  23.26861271 21.41121156 20.00000000
  23.31019652 18.91843810 20.00000000
  21.18431151 17.63049069 20.00000000
 


--------------------------------------------------------------------------------------------------------


 k-point   1 :   0.0000 0.0000 0.0000  plane waves: 1624525

 maximum and minimum number of plane-waves per node :    162473   162437

 maximum number of plane-waves:   1624525
 maximum index in each direction: 
   IXMAX=   72   IYMAX=   72   IZMAX=   72
   IXMIN=  -72   IYMIN=  -72   IZMIN=  -72


 real space projection operators:
  total allocation   :       2061.04 KBytes
  max/ min on nodes  :        210.42        199.90


 parallel 3D FFT for wavefunctions:
    minimum data exchange during FFTs selected (reduces bandwidth)
 parallel 3D FFT for charge:
    minimum data exchange during FFTs selected (reduces bandwidth)


 total amount of memory used by VASP MPI-rank0   682382. kBytes
=======================================================================

   base      :      30000. kBytes
   nonlr-proj:       1673. kBytes
   fftplans  :     167689. kBytes
   grid      :     451809. kBytes
   one-center:         12. kBytes
   wavefun   :      31199. kBytes
 
     INWAV:  cpu time      9.1841: real time      9.2069
 Broyden mixing: mesh for mixing (old mesh)
   NGX =145   NGY =145   NGZ =145
  (NGX  =588   NGY  =588   NGZ  =588)
  gives a total of ****** points

 initial charge density was supplied:
 charge density of overlapping atoms calculated
 number of electron      48.0000000 magnetization      17.0000000
 keeping initial charge density in first step


--------------------------------------------------------------------------------------------------------


 Maximum index for non-local projection operator          484
 Maximum index for augmentation-charges          154 (set IRDMAX)


--------------------------------------------------------------------------------------------------------


 First call to EWALD:  gamma=   0.044
 Maximum number of real-space cells 3x 3x 3
 Maximum number of reciprocal cells 3x 3x 3

    FEWALD:  cpu time      0.0017: real time      0.0017


--------------------------------------- Iteration      1(   1)  ---------------------------------------


    POTLOK:  cpu time      6.0480: real time      6.0593
    SETDIJ:  cpu time      0.0928: real time      0.0930
     EDDAV:  cpu time     24.3759: real time     24.4295
       DOS:  cpu time      0.0378: real time      0.0379
    CHARGE:  cpu time      7.9767: real time      7.9908
    MIXING:  cpu time      0.3897: real time      0.3898
    --------------------------------------------
      LOOP:  cpu time     38.9209: real time     39.0004

 eigenvalue-minimisations  :   240
 total energy-change (2. order) :-0.1091132E+03  (-0.7845586E+01)
 number of electron      47.9999996 magnetization      16.3450277
 augmentation part        1.3451302 magnetization      16.3712014

 Broyden mixing:
  rms(total) = 0.27034E+01    rms(broyden)= 0.27031E+01
  rms(prec ) = 0.27306E+01
  weight for this iteration     100.00

 Free energy of the ion-electron system (eV)
  ---------------------------------------------------
  alpha Z        PSCENC =         0.16757436
  Ewald energy   TEWEN  =      5007.02479390
  -Hartree energ DENC   =     -6119.75469712
  -exchange      EXHF   =         0.00000000
  -V(xc)+E(xc)   XCENC  =       156.42526884
  PAW double counting   =      1192.90075366    -1199.18915996
  entropy T*S    EENTRO =        -0.00000000
  eigenvalues    EBANDS =      -822.96334302
  atomic energy  EATOM  =      1676.27565366
  Solvation  Ecorr_sol  =         0.00000000
  ---------------------------------------------------
  free energy    TOTEN  =      -109.11315568 eV

  energy without entropy =     -109.11315568  energy(sigma->0) =     -109.11315568


--------------------------------------------------------------------------------------------------------




--------------------------------------- Iteration      1(   2)  ---------------------------------------


    --------------------------------------------
      INIT:  cpu time      0.3874: real time      0.3876
  FINALIZE:  cpu time     40.5859: real time     40.6389
    --------------------------------------------
    POTLOK:  cpu time     47.0129: real time     47.0815
    SETDIJ:  cpu time      0.0384: real time      0.0384
    EDDIAG:  cpu time      4.8740: real time      4.8813
  RMM-DIIS:  cpu time     16.3538: real time     16.3867
    ORTHCH:  cpu time      0.2022: real time      0.2026
       DOS:  cpu time      0.0003: real time      0.0003
    CHARGE:  cpu time      7.5207: real time      7.5637
    MIXING:  cpu time      0.2734: real time      0.2738
    --------------------------------------------
      LOOP:  cpu time     76.2757: real time     76.4283

 eigenvalue-minimisations  :   192
 total energy-change (2. order) : 0.5049917E+02  (-0.8661711E+01)
 number of electron      47.9999995 magnetization      15.6229446
 augmentation part        1.3292190 magnetization      15.5698618

 Broyden mixing:
  rms(total) = 0.13142E+01    rms(broyden)= 0.13141E+01
  rms(prec ) = 0.13378E+01
  weight for this iteration     100.00

 eigenvalues of (default mixing * dielectric matrix)
  average eigenvalue GAMMA=   0.9596
  0.9596

 Free energy of the ion-electron system (eV)
  ---------------------------------------------------
  alpha Z        PSCENC =         0.16757436
  Ewald energy   TEWEN  =      5007.02479390
  -Hartree energ DENC   =     -6216.85204542
  -exchange      EXHF   =         0.00000000
  -V(xc)+E(xc)   XCENC  =       201.17583934
  PAW double counting   =      2184.54661917    -2191.83841270
  entropy T*S    EENTRO =        -0.00000000
  eigenvalues    EBANDS =      -715.01386255
  atomic energy  EATOM  =      1676.27565366
  Solvation  Ecorr_sol  =        -4.10014604
  ---------------------------------------------------
  free energy    TOTEN  =       -58.61398629 eV

  energy without entropy =      -58.61398629  energy(sigma->0) =      -58.61398629


--------------------------------------------------------------------------------------------------------




--------------------------------------- Iteration      1(   3)  ---------------------------------------


    --------------------------------------------
      INIT:  cpu time      0.3845: real time      0.3849
  FINALIZE:  cpu time     49.1399: real time     49.1913
    --------------------------------------------
    POTLOK:  cpu time     55.5361: real time     55.6024
    SETDIJ:  cpu time      0.0389: real time      0.0389
    EDDIAG:  cpu time      4.8752: real time      4.8831
  RMM-DIIS:  cpu time     16.5116: real time     16.5472
    ORTHCH:  cpu time      0.1830: real time      0.1834
       DOS:  cpu time      0.0012: real time      0.0012
    CHARGE:  cpu time      7.4990: real time      7.5259
    MIXING:  cpu time      0.2801: real time      0.2806
    --------------------------------------------
      LOOP:  cpu time     84.9250: real time     85.0627

 eigenvalue-minimisations  :   192
 total energy-change (2. order) :-0.2977520E+02  (-0.3461453E+01)
 number of electron      47.9999995 magnetization      14.7528182
 augmentation part        1.2833467 magnetization      14.6762653

 Broyden mixing:
  rms(total) = 0.76212E+00    rms(broyden)= 0.76205E+00
  rms(prec ) = 0.77052E+00
  weight for this iteration     100.00

 eigenvalues of (default mixing * dielectric matrix)
  average eigenvalue GAMMA=   1.1577
  0.7872  1.5281

 Free energy of the ion-electron system (eV)
  ---------------------------------------------------
  alpha Z        PSCENC =         0.16757436
  Ewald energy   TEWEN  =      5007.02479390
  -Hartree energ DENC   =     -6297.80067788
  -exchange      EXHF   =         0.00000000
  -V(xc)+E(xc)   XCENC  =       180.12501034
  PAW double counting   =      3088.77443514    -3096.65954592
  entropy T*S    EENTRO =        -0.00000000
  eigenvalues    EBANDS =      -638.59548387
  atomic energy  EATOM  =      1676.27565366
  Solvation  Ecorr_sol  =        -7.70095048
  ---------------------------------------------------
  free energy    TOTEN  =       -88.38919075 eV

  energy without entropy =      -88.38919075  energy(sigma->0) =      -88.38919075


--------------------------------------------------------------------------------------------------------




--------------------------------------- Iteration      1(   4)  ---------------------------------------


    --------------------------------------------
      INIT:  cpu time      0.3868: real time      0.3869
  FINALIZE:  cpu time     49.1511: real time     49.2095
    --------------------------------------------
    POTLOK:  cpu time     55.5433: real time     55.6192
    SETDIJ:  cpu time      0.0450: real time      0.0451
    EDDIAG:  cpu time      4.8562: real time      4.8648
  RMM-DIIS:  cpu time     16.2673: real time     16.3013
    ORTHCH:  cpu time      0.1933: real time      0.1938
       DOS:  cpu time      0.0006: real time      0.0006
    CHARGE:  cpu time      7.5694: real time      7.5963
    MIXING:  cpu time      0.2892: real time      0.2897
    --------------------------------------------
      LOOP:  cpu time     84.7644: real time     84.9108

 eigenvalue-minimisations  :   193
 total energy-change (2. order) :-0.8520078E+01  (-0.1528966E+01)
 number of electron      47.9999994 magnetization      14.0866629
 augmentation part        1.2415209 magnetization      14.0182162

 Broyden mixing:
  rms(total) = 0.51568E+00    rms(broyden)= 0.51562E+00
  rms(prec ) = 0.51970E+00
  weight for this iteration     100.00

 eigenvalues of (default mixing * dielectric matrix)
  average eigenvalue GAMMA=   1.1271
  1.6617  1.0426  0.6771

 Free energy of the ion-electron system (eV)
  ---------------------------------------------------
  alpha Z        PSCENC =         0.16757436
  Ewald energy   TEWEN  =      5007.02479390
  -Hartree energ DENC   =     -6349.78137500
  -exchange      EXHF   =         0.00000000
  -V(xc)+E(xc)   XCENC  =       176.18033318
  PAW double counting   =      3882.64131640    -3890.73854111
  entropy T*S    EENTRO =        -0.00000000
  eigenvalues    EBANDS =      -588.52045810
  atomic energy  EATOM  =      1676.27565366
  Solvation  Ecorr_sol  =       -10.15856590
  ---------------------------------------------------
  free energy    TOTEN  =       -96.90926861 eV

  energy without entropy =      -96.90926861  energy(sigma->0) =      -96.90926861


--------------------------------------------------------------------------------------------------------




--------------------------------------- Iteration      1(   5)  ---------------------------------------


    --------------------------------------------
      INIT:  cpu time      0.3870: real time      0.3876
  FINALIZE:  cpu time     54.2282: real time     54.3090
    --------------------------------------------
    POTLOK:  cpu time     60.6311: real time     60.7307
    SETDIJ:  cpu time      0.0395: real time      0.0396
    EDDIAG:  cpu time      4.8289: real time      4.8370
  RMM-DIIS:  cpu time     16.2036: real time     16.2370
    ORTHCH:  cpu time      0.1919: real time      0.1924
       DOS:  cpu time      0.0009: real time      0.0009
    CHARGE:  cpu time      7.5431: real time      7.5794
    MIXING:  cpu time      0.3020: real time      0.3026
    --------------------------------------------
      LOOP:  cpu time     89.7412: real time     89.9195

 eigenvalue-minimisations  :   192
 total energy-change (2. order) :-0.4869137E+01  (-0.3376506E+00)
 number of electron      47.9999994 magnetization      12.8617053
 augmentation part        1.2293237 magnetization      12.8062208

 Broyden mixing:
  rms(total) = 0.34897E+00    rms(broyden)= 0.34895E+00
  rms(prec ) = 0.35166E+00
  weight for this iteration     100.00

 eigenvalues of (default mixing * dielectric matrix)
  average eigenvalue GAMMA=   1.3536
  1.9571  1.9571  0.8471  0.6533

 Free energy of the ion-electron system (eV)
  ---------------------------------------------------
  alpha Z        PSCENC =         0.16757436
  Ewald energy   TEWEN  =      5007.02479390
  -Hartree energ DENC   =     -6352.86022506
  -exchange      EXHF   =         0.00000000
  -V(xc)+E(xc)   XCENC  =       172.70844519
  PAW double counting   =      4116.67963999    -4124.64754652
  entropy T*S    EENTRO =        -0.00000000
  eigenvalues    EBANDS =      -587.43987589
  atomic energy  EATOM  =      1676.27565366
  Solvation  Ecorr_sol  =        -9.68686537
  ---------------------------------------------------
  free energy    TOTEN  =      -101.77840574 eV

  energy without entropy =     -101.77840574  energy(sigma->0) =     -101.77840574


--------------------------------------------------------------------------------------------------------




--------------------------------------- Iteration      1(   6)  ---------------------------------------


    --------------------------------------------
      INIT:  cpu time      0.3827: real time      0.3828
  FINALIZE:  cpu time     54.3371: real time     54.3920
    --------------------------------------------
    POTLOK:  cpu time     60.7573: real time     60.8278
    SETDIJ:  cpu time      0.0382: real time      0.0382
    EDDIAG:  cpu time      4.8372: real time      4.8472
  RMM-DIIS:  cpu time     16.1882: real time     16.2228
    ORTHCH:  cpu time      0.2200: real time      0.2204
       DOS:  cpu time      0.0003: real time      0.0003
    CHARGE:  cpu time      7.6098: real time      7.6264
    MIXING:  cpu time      0.3241: real time      0.3248
    --------------------------------------------
      LOOP:  cpu time     89.9751: real time     90.1081

 eigenvalue-minimisations  :   192
 total energy-change (2. order) :-0.7477078E+01  (-0.3777737E+00)
 number of electron      47.9999994 magnetization      12.3038532
 augmentation part        1.2246113 magnetization      12.2638018

 Broyden mixing:
  rms(total) = 0.19263E+00    rms(broyden)= 0.19261E+00
  rms(prec ) = 0.19359E+00
  weight for this iteration     100.00

 eigenvalues of (default mixing * dielectric matrix)
  average eigenvalue GAMMA=   1.3515
  2.4145  1.8240  1.0784  0.7937  0.6469

 Free energy of the ion-electron system (eV)
  ---------------------------------------------------
  alpha Z        PSCENC =         0.16757436
  Ewald energy   TEWEN  =      5007.02479390
  -Hartree energ DENC   =     -6354.80954490
  -exchange      EXHF   =         0.00000000
  -V(xc)+E(xc)   XCENC  =       166.97415887
  PAW double counting   =      4401.52663184    -4409.26873067
  entropy T*S    EENTRO =        -0.00000000
  eigenvalues    EBANDS =      -589.64148546
  atomic energy  EATOM  =      1676.27565366
  Solvation  Ecorr_sol  =        -7.50453503
  ---------------------------------------------------
  free energy    TOTEN  =      -109.25548343 eV

  energy without entropy =     -109.25548343  energy(sigma->0) =     -109.25548343


--------------------------------------------------------------------------------------------------------




--------------------------------------- Iteration      1(   7)  ---------------------------------------


    --------------------------------------------
      INIT:  cpu time      0.3799: real time      0.3804
  FINALIZE:  cpu time     60.0432: real time     60.1132
    --------------------------------------------
    POTLOK:  cpu time     66.5223: real time     66.6090
    SETDIJ:  cpu time      0.0375: real time      0.0375
    EDDIAG:  cpu time      4.7933: real time      4.7999
  RMM-DIIS:  cpu time     16.2349: real time     16.2681
    ORTHCH:  cpu time      0.1780: real time      0.1784
       DOS:  cpu time      0.0003: real time      0.0003
    CHARGE:  cpu time      7.6913: real time      7.7092
    MIXING:  cpu time      0.3122: real time      0.3128
    --------------------------------------------
      LOOP:  cpu time     95.7699: real time     95.9153

 eigenvalue-minimisations  :   192
 total energy-change (2. order) :-0.1096440E+01  (-0.1048583E+00)
 number of electron      47.9999994 magnetization      11.4800208
 augmentation part        1.2119170 magnetization      11.4524806

 Broyden mixing:
  rms(total) = 0.17074E+00    rms(broyden)= 0.17073E+00
  rms(prec ) = 0.17161E+00
  weight for this iteration     100.00

 eigenvalues of (default mixing * dielectric matrix)
  average eigenvalue GAMMA=   1.2430
  2.2167  2.2167  0.8989  0.8989  0.6134  0.6134

 Free energy of the ion-electron system (eV)
  ---------------------------------------------------
  alpha Z        PSCENC =         0.16757436
  Ewald energy   TEWEN  =      5007.02479390
  -Hartree energ DENC   =     -6359.25977981
  -exchange      EXHF   =         0.00000000
  -V(xc)+E(xc)   XCENC  =       166.32893883
  PAW double counting   =      4426.69095577    -4434.45167376
  entropy T*S    EENTRO =        -0.00000000
  eigenvalues    EBANDS =      -587.23784368
  atomic energy  EATOM  =      1676.27565366
  Solvation  Ecorr_sol  =        -5.89054225
  ---------------------------------------------------
  free energy    TOTEN  =      -110.35192299 eV

  energy without entropy =     -110.35192299  energy(sigma->0) =     -110.35192299


--------------------------------------------------------------------------------------------------------




--------------------------------------- Iteration      1(   8)  ---------------------------------------


    --------------------------------------------
      INIT:  cpu time      0.3948: real time      0.3949
  FINALIZE:  cpu time     57.4920: real time     57.5770
    --------------------------------------------
    POTLOK:  cpu time     64.0003: real time     64.0986
    SETDIJ:  cpu time      0.0436: real time      0.0437
    EDDIAG:  cpu time      4.8258: real time      4.8358
  RMM-DIIS:  cpu time     16.8706: real time     16.9221
    ORTHCH:  cpu time      0.1897: real time      0.1902
       DOS:  cpu time      0.0012: real time      0.0012
    CHARGE:  cpu time      8.1102: real time      8.1488
    MIXING:  cpu time      0.3591: real time      0.3598
    --------------------------------------------
      LOOP:  cpu time     94.4006: real time     94.6001

 eigenvalue-minimisations  :   193
 total energy-change (2. order) :-0.1008473E+01  (-0.4378494E-01)
 number of electron      47.9999994 magnetization       9.4175795
 augmentation part        1.2112568 magnetization       9.3978783

 Broyden mixing:
  rms(total) = 0.13143E+00    rms(broyden)= 0.13143E+00
  rms(prec ) = 0.13187E+00
  weight for this iteration     100.00

 eigenvalues of (default mixing * dielectric matrix)
  average eigenvalue GAMMA=   1.5599
  3.3546  2.8315  1.4715  1.1583  0.8302  0.6654  0.6078

 Free energy of the ion-electron system (eV)
  ---------------------------------------------------
  alpha Z        PSCENC =         0.16757436
  Ewald energy   TEWEN  =      5007.02479390
  -Hartree energ DENC   =     -6356.15551255
  -exchange      EXHF   =         0.00000000
  -V(xc)+E(xc)   XCENC  =       165.31924637
  PAW double counting   =      4349.59005637    -4357.30947115
  entropy T*S    EENTRO =        -0.00000000
  eigenvalues    EBANDS =      -592.82585036
  atomic energy  EATOM  =      1676.27565366
  Solvation  Ecorr_sol  =        -3.44688657
  ---------------------------------------------------
  free energy    TOTEN  =      -111.36039599 eV

  energy without entropy =     -111.36039599  energy(sigma->0) =     -111.36039599


--------------------------------------------------------------------------------------------------------




--------------------------------------- Iteration      1(   9)  ---------------------------------------


    --------------------------------------------
      INIT:  cpu time      0.4376: real time      0.4382
  FINALIZE:  cpu time     60.5783: real time     60.6584
    --------------------------------------------
    POTLOK:  cpu time     67.1670: real time     67.2655
    SETDIJ:  cpu time      0.0376: real time      0.0376
    EDDIAG:  cpu time      4.8549: real time      4.8620
  RMM-DIIS:  cpu time     17.4100: real time     17.4473
    ORTHCH:  cpu time      0.1708: real time      0.1712
       DOS:  cpu time      0.0005: real time      0.0005
    CHARGE:  cpu time      8.0358: real time      8.0607
    MIXING:  cpu time      0.3495: real time      0.3501
    --------------------------------------------
      LOOP:  cpu time     98.0260: real time     98.1948

 eigenvalue-minimisations  :   198
 total energy-change (2. order) :-0.4354717E+00  (-0.1085875E+00)
 number of electron      47.9999994 magnetization       8.8966379
 augmentation part        1.2094327 magnetization       8.8865968

 Broyden mixing:
  rms(total) = 0.10017E+00    rms(broyden)= 0.10016E+00
  rms(prec ) = 0.10082E+00
  weight for this iteration     100.00

 eigenvalues of (default mixing * dielectric matrix)
  average eigenvalue GAMMA=   1.5829
  4.5843  2.3996  1.8610  1.0147  0.7979  0.6231  0.6914  0.6914

 Free energy of the ion-electron system (eV)
  ---------------------------------------------------
  alpha Z        PSCENC =         0.16757436
  Ewald energy   TEWEN  =      5007.02479390
  -Hartree energ DENC   =     -6355.24086490
  -exchange      EXHF   =         0.00000000
  -V(xc)+E(xc)   XCENC  =       164.99116534
  PAW double counting   =      4258.17581981    -4265.85667671
  entropy T*S    EENTRO =        -0.00000000
  eigenvalues    EBANDS =      -599.05361387
  atomic energy  EATOM  =      1676.27565366
  Solvation  Ecorr_sol  =         1.72028076
  ---------------------------------------------------
  free energy    TOTEN  =      -111.79586765 eV

  energy without entropy =     -111.79586765  energy(sigma->0) =     -111.79586765


--------------------------------------------------------------------------------------------------------




--------------------------------------- Iteration      1(  10)  ---------------------------------------


    --------------------------------------------
      INIT:  cpu time      0.4182: real time      0.4183
  FINALIZE:  cpu time     58.0184: real time     58.0816
    --------------------------------------------
    POTLOK:  cpu time     64.6028: real time     64.6813
    SETDIJ:  cpu time      0.0388: real time      0.0388
    EDDIAG:  cpu time      4.8231: real time      4.8310
  RMM-DIIS:  cpu time     17.2045: real time     17.2397
    ORTHCH:  cpu time      0.1716: real time      0.1719
       DOS:  cpu time      0.0020: real time      0.0020
    CHARGE:  cpu time      8.1363: real time      8.1540
    MIXING:  cpu time      0.3644: real time      0.3651
    --------------------------------------------
      LOOP:  cpu time     95.3434: real time     95.4838

 eigenvalue-minimisations  :   196
 total energy-change (2. order) :-0.8264346E+00  (-0.2161113E-01)
 number of electron      47.9999994 magnetization       8.1198550
 augmentation part        1.2059073 magnetization       8.1141860

 Broyden mixing:
  rms(total) = 0.62794E-01    rms(broyden)= 0.62790E-01
  rms(prec ) = 0.63157E-01
  weight for this iteration     100.00

 eigenvalues of (default mixing * dielectric matrix)
  average eigenvalue GAMMA=   1.6508
  5.7151  2.1457  2.1457  1.1476  0.7908  0.7908  0.6104  0.7557  0.7557

 Free energy of the ion-electron system (eV)
  ---------------------------------------------------
  alpha Z        PSCENC =         0.16757436
  Ewald energy   TEWEN  =      5007.02479390
  -Hartree energ DENC   =     -6358.16092707
  -exchange      EXHF   =         0.00000000
  -V(xc)+E(xc)   XCENC  =       164.32072399
  PAW double counting   =      4279.29887276    -4287.00638295
  entropy T*S    EENTRO =        -0.00000000
  eigenvalues    EBANDS =      -597.03726027
  atomic energy  EATOM  =      1676.27565366
  Solvation  Ecorr_sol  =         2.49464939
  ---------------------------------------------------
  free energy    TOTEN  =      -112.62230223 eV

  energy without entropy =     -112.62230223  energy(sigma->0) =     -112.62230223


--------------------------------------------------------------------------------------------------------




--------------------------------------- Iteration      1(  11)  ---------------------------------------


    --------------------------------------------
      INIT:  cpu time      0.4339: real time      0.4345
  FINALIZE:  cpu time     52.7038: real time     52.7667
    --------------------------------------------
    POTLOK:  cpu time     59.2921: real time     59.3726
    SETDIJ:  cpu time      0.0388: real time      0.0388
    EDDIAG:  cpu time      4.8201: real time      4.8274
  RMM-DIIS:  cpu time     16.7268: real time     16.7618
    ORTHCH:  cpu time      0.1654: real time      0.1658
       DOS:  cpu time      0.0003: real time      0.0003
    CHARGE:  cpu time      8.0937: real time      8.1120
    MIXING:  cpu time      0.3758: real time      0.3765
    --------------------------------------------
      LOOP:  cpu time     89.5128: real time     89.6552

 eigenvalue-minimisations  :   197
 total energy-change (2. order) :-0.8611622E+00  (-0.9089732E-02)
 number of electron      47.9999994 magnetization       7.0300046
 augmentation part        1.2041955 magnetization       7.0268498

 Broyden mixing:
  rms(total) = 0.46882E-01    rms(broyden)= 0.46879E-01
  rms(prec ) = 0.47102E-01
  weight for this iteration     100.00

 eigenvalues of (default mixing * dielectric matrix)
  average eigenvalue GAMMA=   1.7711
  6.7885  2.2747  2.2747  1.6837  0.9825  0.7982  0.7982  0.8084  0.6867  0.6150

 Free energy of the ion-electron system (eV)
  ---------------------------------------------------
  alpha Z        PSCENC =         0.16757436
  Ewald energy   TEWEN  =      5007.02479390
  -Hartree energ DENC   =     -6359.09073547
  -exchange      EXHF   =         0.00000000
  -V(xc)+E(xc)   XCENC  =       163.52469490
  PAW double counting   =      4284.61271743    -4292.33377787
  entropy T*S    EENTRO =        -0.00000000
  eigenvalues    EBANDS =      -597.26462220
  atomic energy  EATOM  =      1676.27565366
  Solvation  Ecorr_sol  =         3.60023683
  ---------------------------------------------------
  free energy    TOTEN  =      -113.48346446 eV

  energy without entropy =     -113.48346446  energy(sigma->0) =     -113.48346446


--------------------------------------------------------------------------------------------------------




--------------------------------------- Iteration      1(  12)  ---------------------------------------


    --------------------------------------------
      INIT:  cpu time      0.4212: real time      0.4217
  FINALIZE:  cpu time     49.9091: real time     49.9963
    --------------------------------------------
    POTLOK:  cpu time     56.4889: real time     56.5948
    SETDIJ:  cpu time      0.0465: real time      0.0466
    EDDIAG:  cpu time      4.8441: real time      4.8539
  RMM-DIIS:  cpu time     17.3966: real time     17.4355
    ORTHCH:  cpu time      0.1670: real time      0.1674
       DOS:  cpu time      0.0049: real time      0.0049
    CHARGE:  cpu time      8.1404: real time      8.1712
    MIXING:  cpu time      0.3744: real time      0.3751
    --------------------------------------------
      LOOP:  cpu time     87.4628: real time     87.6495

 eigenvalue-minimisations  :   196
 total energy-change (2. order) :-0.6395736E+00  (-0.4322702E-02)
 number of electron      47.9999994 magnetization       6.3318488
 augmentation part        1.2036284 magnetization       6.3300390

 Broyden mixing:
  rms(total) = 0.35057E-01    rms(broyden)= 0.35056E-01
  rms(prec ) = 0.35227E-01
  weight for this iteration     100.00

 eigenvalues of (default mixing * dielectric matrix)
  average eigenvalue GAMMA=   1.8071
  7.6014  2.4369  2.1534  2.1534  0.9497  0.9497  0.7543  0.7543  0.8352  0.6731
  0.6173

 Free energy of the ion-electron system (eV)
  ---------------------------------------------------
  alpha Z        PSCENC =         0.16757436
  Ewald energy   TEWEN  =      5007.02479390
  -Hartree energ DENC   =     -6358.26718360
  -exchange      EXHF   =         0.00000000
  -V(xc)+E(xc)   XCENC  =       162.86110265
  PAW double counting   =      4273.28822624    -4281.01592505
  entropy T*S    EENTRO =        -0.00000000
  eigenvalues    EBANDS =      -599.35647947
  atomic energy  EATOM  =      1676.27565366
  Solvation  Ecorr_sol  =         4.89919930
  ---------------------------------------------------
  free energy    TOTEN  =      -114.12303803 eV

  energy without entropy =     -114.12303803  energy(sigma->0) =     -114.12303803


--------------------------------------------------------------------------------------------------------




--------------------------------------- Iteration      1(  13)  ---------------------------------------


    --------------------------------------------
      INIT:  cpu time      0.4158: real time      0.4158
  FINALIZE:  cpu time     52.6157: real time     52.6980
    --------------------------------------------
    POTLOK:  cpu time     59.1865: real time     59.2841
    SETDIJ:  cpu time      0.0404: real time      0.0405
    EDDIAG:  cpu time      4.8850: real time      4.8958
  RMM-DIIS:  cpu time     17.5890: real time     17.6283
    ORTHCH:  cpu time      0.1616: real time      0.1619
       DOS:  cpu time      0.0003: real time      0.0003
    CHARGE:  cpu time      8.1003: real time      8.0331
    MIXING:  cpu time      0.4074: real time      0.4082
    --------------------------------------------
      LOOP:  cpu time     90.3705: real time     90.4522

 eigenvalue-minimisations  :   198
 total energy-change (2. order) :-0.2048893E+00  (-0.1237550E-02)
 number of electron      47.9999994 magnetization       5.4025299
 augmentation part        1.2034313 magnetization       5.4016636

 Broyden mixing:
  rms(total) = 0.28806E-01    rms(broyden)= 0.28806E-01
  rms(prec ) = 0.28907E-01
  weight for this iteration     100.00

 eigenvalues of (default mixing * dielectric matrix)
  average eigenvalue GAMMA=   1.9070
  8.4418  3.3041  2.1865  2.1865  1.4260  0.7840  0.7840  0.8558  0.8558  0.8008
  0.6251  0.6338

 Free energy of the ion-electron system (eV)
  ---------------------------------------------------
  alpha Z        PSCENC =         0.16757436
  Ewald energy   TEWEN  =      5007.02479390
  -Hartree energ DENC   =     -6357.10730830
  -exchange      EXHF   =         0.00000000
  -V(xc)+E(xc)   XCENC  =       162.62215912
  PAW double counting   =      4272.54658187    -4280.26926558
  entropy T*S    EENTRO =        -0.00000000
  eigenvalues    EBANDS =      -600.88877527
  atomic energy  EATOM  =      1676.27565366
  Solvation  Ecorr_sol  =         5.30065894
  ---------------------------------------------------
  free energy    TOTEN  =      -114.32792730 eV

  energy without entropy =     -114.32792730  energy(sigma->0) =     -114.32792730


--------------------------------------------------------------------------------------------------------




--------------------------------------- Iteration      1(  14)  ---------------------------------------


    --------------------------------------------
      INIT:  cpu time      0.4184: real time      0.4188
  FINALIZE:  cpu time     55.2390: real time     55.3143
    --------------------------------------------
    POTLOK:  cpu time     61.7986: real time     61.9035
    SETDIJ:  cpu time      0.0420: real time      0.0420
    EDDIAG:  cpu time      4.8849: real time      4.8929
  RMM-DIIS:  cpu time     16.7907: real time     16.8249
    ORTHCH:  cpu time      0.1764: real time      0.1768
       DOS:  cpu time      0.0003: real time      0.0003
    CHARGE:  cpu time      8.1825: real time      8.2111
    MIXING:  cpu time      0.4193: real time      0.4202
    --------------------------------------------
      LOOP:  cpu time     92.2949: real time     92.4717

 eigenvalue-minimisations  :   192
 total energy-change (2. order) :-0.1328326E+00  (-0.3578404E-03)
 number of electron      47.9999994 magnetization       4.6454421
 augmentation part        1.2033882 magnetization       4.6447340

 Broyden mixing:
  rms(total) = 0.23085E-01    rms(broyden)= 0.23085E-01
  rms(prec ) = 0.23142E-01
  weight for this iteration     100.00

 eigenvalues of (default mixing * dielectric matrix)
  average eigenvalue GAMMA=   1.9822
  9.2229  4.2076  2.0988  2.0988  1.7418  1.0429  1.0429  0.7687  0.7687  0.8039
  0.7257  0.6228  0.6228

 Free energy of the ion-electron system (eV)
  ---------------------------------------------------
  alpha Z        PSCENC =         0.16757436
  Ewald energy   TEWEN  =      5007.02479390
  -Hartree energ DENC   =     -6355.96791103
  -exchange      EXHF   =         0.00000000
  -V(xc)+E(xc)   XCENC  =       162.47335394
  PAW double counting   =      4282.78519943    -4290.50490676
  entropy T*S    EENTRO =        -0.00000000
  eigenvalues    EBANDS =      -602.17483502
  atomic energy  EATOM  =      1676.27565366
  Solvation  Ecorr_sol  =         5.46031759
  ---------------------------------------------------
  free energy    TOTEN  =      -114.46075993 eV

  energy without entropy =     -114.46075993  energy(sigma->0) =     -114.46075993


--------------------------------------------------------------------------------------------------------




--------------------------------------- Iteration      1(  15)  ---------------------------------------


    --------------------------------------------
      INIT:  cpu time      0.4175: real time      0.4183
  FINALIZE:  cpu time     52.6900: real time     52.7560
    --------------------------------------------
    POTLOK:  cpu time     59.2609: real time     59.3446
    SETDIJ:  cpu time      0.0394: real time      0.0395
    EDDIAG:  cpu time      4.8614: real time      4.8697
  RMM-DIIS:  cpu time     16.9718: real time     17.0063
    ORTHCH:  cpu time      0.1740: real time      0.1744
       DOS:  cpu time      0.0003: real time      0.0003
    CHARGE:  cpu time      8.1326: real time      8.1749
    MIXING:  cpu time      0.4184: real time      0.4193
    --------------------------------------------
      LOOP:  cpu time     89.8589: real time     90.0289

 eigenvalue-minimisations  :   195
 total energy-change (2. order) :-0.7462558E-01  (-0.1733494E-03)
 number of electron      47.9999994 magnetization       3.7279103
 augmentation part        1.2034501 magnetization       3.7273404

 Broyden mixing:
  rms(total) = 0.20055E-01    rms(broyden)= 0.20055E-01
  rms(prec ) = 0.20102E-01
  weight for this iteration     100.00

 eigenvalues of (default mixing * dielectric matrix)
  average eigenvalue GAMMA=   2.0489
  9.8118  4.8539  2.2553  2.1196  2.1196  1.3967  0.7889  0.7889  0.8750  0.8750
  0.7779  0.7779  0.6219  0.6219

 Free energy of the ion-electron system (eV)
  ---------------------------------------------------
  alpha Z        PSCENC =         0.16757436
  Ewald energy   TEWEN  =      5007.02479390
  -Hartree energ DENC   =     -6355.33026720
  -exchange      EXHF   =         0.00000000
  -V(xc)+E(xc)   XCENC  =       162.39196200
  PAW double counting   =      4288.13615908    -4295.85664671
  entropy T*S    EENTRO =        -0.00000000
  eigenvalues    EBANDS =      -602.66351586
  atomic energy  EATOM  =      1676.27565366
  Solvation  Ecorr_sol  =         5.31890125
  ---------------------------------------------------
  free energy    TOTEN  =      -114.53538552 eV

  energy without entropy =     -114.53538552  energy(sigma->0) =     -114.53538552


--------------------------------------------------------------------------------------------------------




--------------------------------------- Iteration      1(  16)  ---------------------------------------


    --------------------------------------------
      INIT:  cpu time      0.4220: real time      0.4226
  FINALIZE:  cpu time     55.2031: real time     55.3074
    --------------------------------------------
    POTLOK:  cpu time     61.7833: real time     61.9056
    SETDIJ:  cpu time      0.0389: real time      0.0389
    EDDIAG:  cpu time      4.8771: real time      4.8849
  RMM-DIIS:  cpu time     16.7969: real time     16.8308
    ORTHCH:  cpu time      0.1603: real time      0.1607
       DOS:  cpu time      0.0045: real time      0.0046
    CHARGE:  cpu time      8.1140: real time      8.1317
    MIXING:  cpu time      0.4606: real time      0.4615
    --------------------------------------------
      LOOP:  cpu time     92.2357: real time     92.4187

 eigenvalue-minimisations  :   192
 total energy-change (2. order) :-0.4098140E-01  (-0.9759030E-04)
 number of electron      47.9999994 magnetization       2.7396379
 augmentation part        1.2036175 magnetization       2.7392649

 Broyden mixing:
  rms(total) = 0.15911E-01    rms(broyden)= 0.15911E-01
  rms(prec ) = 0.15940E-01
  weight for this iteration     100.00

 eigenvalues of (default mixing * dielectric matrix)
  average eigenvalue GAMMA=   2.1395
 10.5174  5.6932  2.6677  2.4309  2.0963  1.4581  1.1217  0.9855  0.7819  0.7819
  0.8334  0.7645  0.7175  0.6215  0.6215

 Free energy of the ion-electron system (eV)
  ---------------------------------------------------
  alpha Z        PSCENC =         0.16757436
  Ewald energy   TEWEN  =      5007.02479390
  -Hartree energ DENC   =     -6354.54313009
  -exchange      EXHF   =         0.00000000
  -V(xc)+E(xc)   XCENC  =       162.32668548
  PAW double counting   =      4282.86521153    -4290.58569726
  entropy T*S    EENTRO =        -0.00000000
  eigenvalues    EBANDS =      -603.00487770
  atomic energy  EATOM  =      1676.27565366
  Solvation  Ecorr_sol  =         4.89741920
  ---------------------------------------------------
  free energy    TOTEN  =      -114.57636692 eV

  energy without entropy =     -114.57636692  energy(sigma->0) =     -114.57636692


--------------------------------------------------------------------------------------------------------




--------------------------------------- Iteration      1(  17)  ---------------------------------------


    --------------------------------------------
      INIT:  cpu time      0.4044: real time      0.4049
  FINALIZE:  cpu time     52.5246: real time     52.6142
    --------------------------------------------
    POTLOK:  cpu time     59.0502: real time     59.1567
    SETDIJ:  cpu time      0.0394: real time      0.0394
    EDDIAG:  cpu time      4.9131: real time      4.9197
  RMM-DIIS:  cpu time     16.8131: real time     16.8475
    ORTHCH:  cpu time      0.1539: real time      0.1543
       DOS:  cpu time      0.0047: real time      0.0047
    CHARGE:  cpu time      8.0306: real time      8.0556
    MIXING:  cpu time      0.4557: real time      0.4566
    --------------------------------------------
      LOOP:  cpu time     89.4606: real time     89.6345

 eigenvalue-minimisations  :   192
 total energy-change (2. order) :-0.7087848E-02  (-0.8616245E-04)
 number of electron      47.9999994 magnetization       1.7852196
 augmentation part        1.2037765 magnetization       1.7850628

 Broyden mixing:
  rms(total) = 0.13712E-01    rms(broyden)= 0.13712E-01
  rms(prec ) = 0.13762E-01
  weight for this iteration     100.00

 eigenvalues of (default mixing * dielectric matrix)
  average eigenvalue GAMMA=   2.2065
 11.1511  6.4386  3.3181  2.1123  2.1123  1.8455  1.3579  0.9249  0.9249  0.7786
  0.7786  0.8220  0.8220  0.6762  0.6201  0.6201

 Free energy of the ion-electron system (eV)
  ---------------------------------------------------
  alpha Z        PSCENC =         0.16757436
  Ewald energy   TEWEN  =      5007.02479390
  -Hartree energ DENC   =     -6353.80623736
  -exchange      EXHF   =         0.00000000
  -V(xc)+E(xc)   XCENC  =       162.30381403
  PAW double counting   =      4279.95054672    -4287.66833127
  entropy T*S    EENTRO =        -0.00000000
  eigenvalues    EBANDS =      -603.24667774
  atomic energy  EATOM  =      1676.27565366
  Solvation  Ecorr_sol  =         4.41540895
  ---------------------------------------------------
  free energy    TOTEN  =      -114.58345477 eV

  energy without entropy =     -114.58345477  energy(sigma->0) =     -114.58345477


--------------------------------------------------------------------------------------------------------




--------------------------------------- Iteration      1(  18)  ---------------------------------------


    --------------------------------------------
      INIT:  cpu time      0.3976: real time      0.3989
  FINALIZE:  cpu time     49.8183: real time     49.9034
    --------------------------------------------
    POTLOK:  cpu time     56.3599: real time     56.4612
    SETDIJ:  cpu time      0.0410: real time      0.0410
    EDDIAG:  cpu time      4.8657: real time      4.8756
  RMM-DIIS:  cpu time     17.1065: real time     17.1434
    ORTHCH:  cpu time      0.1602: real time      0.1605
       DOS:  cpu time      0.0020: real time      0.0020
    CHARGE:  cpu time      8.0732: real time      8.1084
    MIXING:  cpu time      0.4875: real time      0.4885
    --------------------------------------------
      LOOP:  cpu time     87.0960: real time     87.2808

 eigenvalue-minimisations  :   192
 total energy-change (2. order) :-0.8041915E-02  (-0.1094909E-03)
 number of electron      47.9999994 magnetization       0.8972024
 augmentation part        1.2037298 magnetization       0.8970961

 Broyden mixing:
  rms(total) = 0.91504E-02    rms(broyden)= 0.91503E-02
  rms(prec ) = 0.91966E-02
  weight for this iteration     100.00

 eigenvalues of (default mixing * dielectric matrix)
  average eigenvalue GAMMA=   2.4143
 13.0371  7.7599  4.1743  2.3702  2.3702  1.9965  1.3744  1.0987  0.9387  0.9387
  0.7781  0.7781  0.7627  0.7627  0.6639  0.6196  0.6196

 Free energy of the ion-electron system (eV)
  ---------------------------------------------------
  alpha Z        PSCENC =         0.16757436
  Ewald energy   TEWEN  =      5007.02479390
  -Hartree energ DENC   =     -6353.86059281
  -exchange      EXHF   =         0.00000000
  -V(xc)+E(xc)   XCENC  =       162.31631373
  PAW double counting   =      4283.55345707    -4291.27327242
  entropy T*S    EENTRO =        -0.00000000
  eigenvalues    EBANDS =      -602.86993164
  atomic energy  EATOM  =      1676.27565366
[...]

 eigenvalue-minimisations  :   272
 total energy-change (2. order) :-0.1795206E-04  (-0.1158740E-03)
 number of electron      47.9999994 magnetization       0.0000001
 augmentation part        1.2055468 magnetization       0.0000002

 Broyden mixing:
  rms(total) = 0.97743E-03    rms(broyden)= 0.97461E-03
  rms(prec ) = 0.98578E-03
  weight for this iteration     100.00

 Free energy of the ion-electron system (eV)
  ---------------------------------------------------
  alpha Z        PSCENC =         0.16757436
  Ewald energy   TEWEN  =      5011.87823593
  -Hartree energ DENC   =     -6359.05864373
  -exchange      EXHF   =         0.00000000
  -V(xc)+E(xc)   XCENC  =       162.33569516
  PAW double counting   =      4294.67371060    -4302.40039115
  entropy T*S    EENTRO =        -0.00000000
  eigenvalues    EBANDS =      -602.85720939
  atomic energy  EATOM  =      1676.27565366
  Solvation  Ecorr_sol  =         4.34027135
  ---------------------------------------------------
  free energy    TOTEN  =      -114.64510321 eV

  energy without entropy =     -114.64510321  energy(sigma->0) =     -114.64510321


--------------------------------------------------------------------------------------------------------




--------------------------------------- Iteration      8(   2)  ---------------------------------------


    --------------------------------------------
      INIT:  cpu time      0.3940: real time      0.3947
  FINALIZE:  cpu time     80.9006: real time     80.9927
    --------------------------------------------
    POTLOK:  cpu time     87.4767: real time     87.5847
    SETDIJ:  cpu time      0.0443: real time      0.0443
    EDDIAG:  cpu time      4.8473: real time      4.8561
  RMM-DIIS:  cpu time     14.6813: real time     14.7125
    ORTHCH:  cpu time      0.1680: real time      0.1684
       DOS:  cpu time      0.0013: real time      0.0013
    --------------------------------------------
      LOOP:  cpu time    107.2189: real time    107.3673

 eigenvalue-minimisations  :   154
 total energy-change (2. order) :-0.7061162E-06  (-0.2420517E-05)
 number of electron      47.9999994 magnetization       0.0000001
 augmentation part        1.2055468 magnetization       0.0000002

 Free energy of the ion-electron system (eV)
  ---------------------------------------------------
  alpha Z        PSCENC =         0.16757436
  Ewald energy   TEWEN  =      5011.87823593
  -Hartree energ DENC   =     -6359.05735744
  -exchange      EXHF   =         0.00000000
  -V(xc)+E(xc)   XCENC  =       162.33560916
  PAW double counting   =      4294.96163899    -4302.68827695
  entropy T*S    EENTRO =        -0.00000000
  eigenvalues    EBANDS =      -602.85815785
  atomic energy  EATOM  =      1676.27565366
  Solvation  Ecorr_sol  =         4.33997622
  ---------------------------------------------------
  free energy    TOTEN  =      -114.64510391 eV

  energy without entropy =     -114.64510391  energy(sigma->0) =     -114.64510391


--------------------------------------------------------------------------------------------------------




 average (electrostatic) potential at core
  the test charge radii are     0.6991  0.7089  0.5201
  (the norm of the test charge is              1.0000)
       1 -59.0490       2 -59.0081       3 -59.0190       4 -58.9178       5 -59.7730
       6 -59.6949       7 -59.1021       8 -59.3221       9 -59.3353      10 -73.3525
      11 -42.5203      12 -42.4251      13 -42.2544      14 -42.1843      15 -42.2651
      16 -42.2710      17 -42.3369
 
 
 
 E-fermi :  -5.7401     XC(G=0):  -0.0442     alpha+bet : -0.0185

 Fermi energy:        -5.7400804087

 spin component 1

 k-point     1 :       0.0000    0.0000    0.0000
  band No.  band energies     occupation 
      1     -23.6171      1.00000
      2     -21.2135      1.00000
      3     -20.1124      1.00000
      4     -18.6917      1.00000
      5     -18.4110      1.00000
      6     -15.9822      1.00000
      7     -15.6121      1.00000
      8     -14.9124      1.00000
      9     -13.0271      1.00000
     10     -12.7548      1.00000
     11     -12.4924      1.00000
     12     -11.1732      1.00000
     13     -10.7677      1.00000
     14     -10.4736      1.00000
     15     -10.3300      1.00000
     16     -10.0117      1.00000
     17      -9.7747      1.00000
     18      -8.6920      1.00000
     19      -8.6300      1.00000
     20      -8.4497      1.00000
     21      -7.7768      1.00000
     22      -6.5054      1.00000
     23      -6.0222      1.00000
     24      -5.9954      1.00000
     25      -2.5709      0.00000
     26      -1.6201      0.00000
     27      -0.9419      0.00000
     28      -0.4845      0.00000
     29      -0.1831      0.00000
     30      -0.0766      0.00000
     31       0.0136      0.00000
     32       0.0714      0.00000
     33       0.0962      0.00000
     34       0.0973      0.00000
     35       0.1090      0.00000
     36       0.1115      0.00000
     37       0.1300      0.00000
     38       0.1397      0.00000
     39       0.1839      0.00000
     40       0.1869      0.00000
     41       0.1886      0.00000
     42       0.1897      0.00000
     43       0.1902      0.00000
     44       0.1924      0.00000
     45       0.1925      0.00000
     46       0.1926      0.00000
     47       0.2222      0.00000
     48       0.2256      0.00000
 Fermi energy:        -5.7400804087

 spin component 2

 k-point     1 :       0.0000    0.0000    0.0000
  band No.  band energies     occupation 
      1     -23.6171      1.00000
      2     -21.2135      1.00000
      3     -20.1124      1.00000
      4     -18.6917      1.00000
      5     -18.4110      1.00000
      6     -15.9822      1.00000
      7     -15.6121      1.00000
      8     -14.9124      1.00000
      9     -13.0271      1.00000
     10     -12.7548      1.00000
     11     -12.4924      1.00000
     12     -11.1732      1.00000
     13     -10.7677      1.00000
     14     -10.4736      1.00000
     15     -10.3300      1.00000
     16     -10.0117      1.00000
     17      -9.7747      1.00000
     18      -8.6920      1.00000
     19      -8.6300      1.00000
     20      -8.4497      1.00000
     21      -7.7768      1.00000
     22      -6.5054      1.00000
     23      -6.0222      1.00000
     24      -5.9955      1.00000
     25      -2.5709      0.00000
     26      -1.6201      0.00000
     27      -0.9419      0.00000
     28      -0.4845      0.00000
     29      -0.1831      0.00000
     30      -0.0766      0.00000
     31       0.0137      0.00000
     32       0.0714      0.00000
     33       0.0964      0.00000
     34       0.0974      0.00000
     35       0.1092      0.00000
     36       0.1118      0.00000
     37       0.1295      0.00000
     38       0.1399      0.00000
     39       0.1842      0.00000
     40       0.1871      0.00000
     41       0.1889      0.00000
     42       0.1901      0.00000
     43       0.1904      0.00000
     44       0.1926      0.00000
     45       0.1927      0.00000
     46       0.1929      0.00000
     47       0.2223      0.00000
     48       0.2253      0.00000


--------------------------------------------------------------------------------------------------------


 soft charge-density along one line, spin component           1
         0         1         2         3         4         5         6         7         8         9
 total charge-density along one line
 
 soft charge-density along one line, spin component           2
         0         1         2         3         4         5         6         7         8         9
 total charge-density along one line
 
 pseudopotential strength for first ion, spin component:           1
 10.272  13.661   0.001   0.000  -0.001  -0.004  -0.000   0.001
 13.661  18.168   0.001   0.000  -0.001  -0.005  -0.000   0.002
  0.001   0.001  -4.393  -0.000  -0.000   8.592   0.000   0.000
  0.000   0.000  -0.000  -4.387   0.000   0.000   8.585  -0.000
 -0.001  -0.001  -0.000   0.000  -4.394   0.000  -0.000   8.594
 -0.004  -0.005   8.592   0.000   0.000 -18.946  -0.000   0.000
 -0.000  -0.000   0.000   8.585  -0.000  -0.000 -18.941   0.000
  0.001   0.002   0.000  -0.000   8.594   0.000   0.000 -18.948
 pseudopotential strength for first ion, spin component:           2
 10.272  13.661   0.001   0.000  -0.001  -0.004  -0.000   0.001
 13.661  18.168   0.001   0.000  -0.001  -0.005  -0.000   0.002
  0.001   0.001  -4.393  -0.000  -0.000   8.592   0.000   0.000
  0.000   0.000  -0.000  -4.387   0.000   0.000   8.585  -0.000
 -0.001  -0.001  -0.000   0.000  -4.394   0.000  -0.000   8.594
 -0.004  -0.005   8.592   0.000   0.000 -18.946  -0.000   0.000
 -0.000  -0.000   0.000   8.585  -0.000  -0.000 -18.941   0.000
  0.001   0.002   0.000  -0.000   8.594   0.000   0.000 -18.948
 total augmentation occupancy for first ion, spin component:           1
  7.844  -3.406   0.238   0.000   0.060   0.048   0.000   0.008
 -3.406   1.524  -0.154   0.000  -0.026  -0.029   0.000  -0.004
  0.238  -0.154   1.747   0.000   0.041   0.151   0.000   0.004
  0.000   0.000   0.000   1.150   0.000   0.000   0.065   0.000
  0.060  -0.026   0.041   0.000   1.849   0.004   0.000   0.171
  0.048  -0.029   0.151   0.000   0.004   0.014   0.000   0.000
  0.000   0.000   0.000   0.065   0.000   0.000   0.004   0.000
  0.008  -0.004   0.004   0.000   0.171   0.000   0.000   0.017
 total augmentation occupancy for first ion, spin component:           2
 -0.000   0.000  -0.000   0.000  -0.000  -0.000   0.000   0.000
  0.000  -0.000   0.000   0.000   0.000   0.000   0.000  -0.000
 -0.000   0.000   0.000   0.000  -0.000  -0.000   0.000   0.000
  0.000   0.000   0.000  -0.000   0.000   0.000  -0.000   0.000
 -0.000   0.000  -0.000   0.000  -0.000   0.000   0.000  -0.000
 -0.000   0.000  -0.000   0.000   0.000  -0.000   0.000   0.000
  0.000   0.000   0.000  -0.000   0.000   0.000  -0.000   0.000
  0.000  -0.000   0.000   0.000  -0.000   0.000   0.000  -0.000


------------------------ aborting loop because EDIFF is reached ----------------------------------------


    CHARGE:  cpu time      8.1911: real time      8.2101
    FORLOC:  cpu time      0.4475: real time      0.4491
    FORNL :  cpu time      7.5942: real time      7.6108
    STRESS:  cpu time     21.3148: real time     21.3770
    FORCOR:  cpu time      5.6461: real time      5.6554
    FORHAR:  cpu time      0.9069: real time      0.9081
    MIXING:  cpu time      0.1353: real time      0.1356
    OFIELD:  cpu time      0.0001: real time      0.0000

 ---------------------------------------------------------------------------------------------

         DFTD3 V3.0 Rev 1        
 Edisp (eV)   -0.17096

 E6    (eV) :    -0.0761
 E8    (eV) :    -0.0949
 % E8        : 55.50
    FORVDW:  cpu time      0.0058: real time      0.0058

  FORCE on cell =-STRESS in cart. coord.  units (eV):
  Direction    XX          YY          ZZ          XY          YZ          ZX
  --------------------------------------------------------------------------------------
  Alpha Z     0.16757     0.16757     0.16757
  Ewald    3198.90380  2207.87217  -394.89849     8.87258     0.00000     0.00000
  Hartree  3189.61248  2403.72441   761.57228     4.68880     0.00000    -0.00000
  E(xc)    -175.17494  -175.74385  -180.95812    -0.00152     0.00000     0.00000
  Local   -6834.90795 -5077.58366  -910.78407   -13.62169    -0.00000    -0.00000
  n-local   -64.07929   -67.13024   -56.92575    -0.11190    -0.00000    -0.00000
  augment    -1.82420    -1.25162    -1.39795     0.01607    -0.00000    -0.00000
  Kinetic   687.14948   709.79488   783.05411     0.10604     0.00000     0.00000
  Fock        0.00000     0.00000     0.00000     0.00000     0.00000     0.00000
  vdW        -0.02707     0.04814    -0.00000    -0.00047     0.00000     0.00000
  -------------------------------------------------------------------------------------
  Total      -0.18012    -0.10220    -0.17040    -0.05209     0.00000     0.00000
  in kB      -0.00451    -0.00256    -0.00427    -0.00130     0.00000     0.00000
  external pressure =       -0.00 kB  Pullay stress =        0.00 kB


 VOLUME and BASIS-vectors are now :
 -----------------------------------------------------------------------------
  energy-cutoff  :      500.00
  volume of cell :    64000.00
      direct lattice vectors                 reciprocal lattice vectors
    40.000000000  0.000000000  0.000000000     0.025000000  0.000000000  0.000000000
     0.000000000 40.000000000  0.000000000     0.000000000  0.025000000  0.000000000
     0.000000000  0.000000000 40.000000000     0.000000000  0.000000000  0.025000000

  length of vectors
    40.000000000 40.000000000 40.000000000     0.025000000  0.025000000  0.025000000


 FORCES acting on ions
    electron-ion (+dipol)            ewald-force                    non-local-force                 convergence-correction
 -----------------------------------------------------------------------------------------------
   -.716E+02 0.196E+03 0.117E-06   0.720E+02 -.197E+03 0.539E-17   -.439E+00 0.123E+01 0.000E+00   0.203E-02 -.206E-02 0.122E-11
   -.204E+03 0.871E+02 -.557E-07   0.205E+03 -.877E+02 0.435E-17   -.102E+01 0.568E+00 0.000E+00   0.281E-02 -.340E-02 0.598E-11
   -.202E+03 -.919E+02 0.770E-07   0.203E+03 0.925E+02 -.138E-17   -.907E+00 -.600E+00 0.000E+00   -.409E-03 0.190E-02 0.779E-11
   -.741E+02 -.196E+03 -.661E-07   0.741E+02 0.198E+03 -.343E-17   0.788E-01 -.160E+01 0.000E+00   -.127E-03 -.123E-02 0.399E-11
   -.263E+02 -.706E+02 -.229E-07   0.288E+02 0.694E+02 -.301E-17   -.249E+01 0.114E+01 0.000E+00   -.286E-02 0.199E-02 0.389E-11
   0.229E+03 -.788E+02 -.265E-08   -.232E+03 0.777E+02 -.895E-17   0.346E+01 0.102E+01 0.000E+00   -.305E-03 -.219E-02 -.105E-10
   0.211E+03 0.916E+02 -.410E-07   -.212E+03 -.921E+02 0.273E-17   0.141E+01 0.479E+00 0.000E+00   -.298E-02 0.631E-02 -.122E-10
   0.712E+02 0.203E+03 -.591E-07   -.714E+02 -.204E+03 -.298E-17   0.153E+00 0.134E+01 0.000E+00   0.401E-02 -.596E-03 -.102E-10
   -.567E+01 0.973E+02 0.489E-08   0.613E+01 -.976E+02 0.221E-17   -.459E+00 0.273E+00 0.000E+00   -.341E-02 -.287E-03 -.282E-11
   0.841E+02 -.289E+03 0.203E-07   -.827E+02 0.322E+03 0.508E-17   -.135E+01 -.334E+02 0.000E+00   0.142E-02 -.756E-02 0.260E-11
   0.157E+02 0.879E+02 0.394E-08   -.159E+02 -.937E+02 0.167E-17   0.125E+00 0.580E+01 0.000E+00   0.858E-05 -.144E-03 -.152E-11
   0.798E+02 0.382E+02 -.633E-08   -.850E+02 -.408E+02 -.362E-18   0.521E+01 0.260E+01 0.000E+00   -.880E-03 0.519E-03 -.169E-11
   0.784E+02 -.453E+02 0.389E-08   -.832E+02 0.485E+02 0.108E-17   0.488E+01 -.319E+01 0.000E+00   -.179E-04 -.704E-03 -.169E-11
   -.133E+02 -.892E+02 -.200E-08   0.130E+02 0.950E+02 -.134E-17   0.233E+00 -.581E+01 0.000E+00   0.555E-03 -.161E-03 0.709E-12
   -.771E+02 -.423E+02 0.137E-08   0.821E+02 0.453E+02 0.108E-17   -.500E+01 -.295E+01 0.000E+00   0.243E-03 0.228E-03 0.131E-11
   -.783E+02 0.399E+02 -.152E-07   0.834E+02 -.427E+02 0.170E-17   -.509E+01 0.279E+01 0.000E+00   -.233E-05 -.887E-04 0.756E-12
   -.156E+02 0.877E+02 -.202E-08   0.157E+02 -.935E+02 -.239E-18   -.110E+00 0.576E+01 0.000E+00   0.366E-03 -.273E-03 -.454E-13
 -----------------------------------------------------------------------------------------------
   0.132E+01 0.245E+02 -.449E-07   -.711E-13 -.568E-13 0.359E-17   -.132E+01 -.245E+02 0.000E+00   0.453E-03 -.775E-02 -.125E-10
 
 
 POSITION                                       TOTAL-FORCE (eV/Angst)
 -----------------------------------------------------------------------------------
     21.17095     18.72371     20.00000         0.001893     -0.009805      0.000000
     22.35030     19.44029     20.00000         0.002151      0.000631      0.000000
     22.32570     20.85706     20.00000         0.012458      0.002578      0.000000
     21.12615     21.53963     20.00000         0.000136      0.008080      0.000000
     19.89485     20.83290     20.00000        -0.005708      0.004238      0.000000
     17.59207     20.86393     20.00000        -0.000666      0.002722      0.000000
     17.50813     19.44877     20.00000         0.001889     -0.001966      0.000000
     18.67524     18.71702     20.00000         0.001816     -0.012197      0.000000
     19.92032     19.39595     20.00000         0.002623     -0.005722      0.000000
     18.72639     21.54616     20.00000         0.003768      0.000568      0.000000
     18.65753     17.62522     20.00000         0.007833     -0.004092      0.000000
     16.53168     18.96419     20.00000         0.004589     -0.002391      0.000000
     16.67169     21.45566     20.00000        -0.008156      0.013121      0.000000
     21.09053     22.62935     20.00000        -0.012356      0.009512      0.000000
     23.26623     21.40961     20.00000        -0.001542      0.001619      0.000000
     23.30805     18.91869     20.00000        -0.003549     -0.003343      0.000000
     21.18425     17.63185     20.00000        -0.007178     -0.003553      0.000000
 -----------------------------------------------------------------------------------
    total drift:                               -0.000798     -0.021625     -0.000000


--------------------------------------------------------------------------------------------------------



  FREE ENERGIE OF THE ION-ELECTRON SYSTEM (eV)
  ---------------------------------------------------
  free  energy   TOTEN  =      -114.81606738 eV

  energy  without entropy=     -114.81606738  energy(sigma->0) =     -114.81606738
 
 d Force = 0.2115578E-04[ 0.691E-05, 0.354E-04]  d Energy = 0.2364131E-04-0.249E-05
 d Force =-0.1050381E+00[-0.105E+00,-0.105E+00]  d Ewald  =-0.1050381E+00-0.550E-08


--------------------------------------------------------------------------------------------------------


    --------------------------------------------
      INIT:  cpu time      0.4075: real time      0.4080
  FINALIZE:  cpu time     86.3081: real time     86.4187
    --------------------------------------------
    POTLOK:  cpu time     92.9158: real time     93.0461


--------------------------------------------------------------------------------------------------------


 Conjugate gradient step on ions:
 trial-energy change:   -0.000024  1 .order   -0.000021   -0.000035   -0.000007
  (g-gl).g = 0.122E-03      g.g   = 0.137E-03  gl.gl    = 0.577E-03
 g(Force)  = 0.137E-03   g(Stress)= 0.000E+00 ortho     =-0.271E-04
 gamma     =   0.21245
 trial     =   0.26910
 opt step  =   0.33441  (harmonic =   0.33441) maximal distance =0.00031389
 next E    =  -114.816066   (d E  =  -0.00002)


--------------------------------------------------------------------------------------------------------


  
 reached required accuracy - stopping structural energy minimisation
 writing wavefunctions
     LOOP+:  cpu time    415.7408: real time    417.2254
    4ORBIT:  cpu time      0.0000: real time      0.0000

 total amount of memory used by VASP MPI-rank0   682382. kBytes
=======================================================================

   base      :      30000. kBytes
   nonlr-proj:       1673. kBytes
   fftplans  :     167689. kBytes
   grid      :     451809. kBytes
   one-center:         12. kBytes
   wavefun   :      31199. kBytes
 
  
  
 General timing and accounting informations for this job:
 ========================================================
  
                  Total CPU time used (sec):     7396.842
                            User time (sec):     6876.161
                          System time (sec):      520.680
                         Elapsed time (sec):     7411.729
  
                   Maximum memory used (kb):     2322104.
                   Average memory used (kb):          N/A
  
                          Minor page faults:     84695475
                          Major page faults:            0
                 Voluntary context switches:       203856
