
                                 *****************
                                 * O   R   C   A *
                                 *****************

                                            #,                                       
                                            ###                                      
                                            ####                                     
                                            #####                                    
                                            ######                                   
                                           ########,                                 
                                     ,,################,,,,,                         
                               ,,#################################,,                 
                          ,,##########################################,,             
                       ,#########################################, ''#####,          
                    ,#############################################,,   '####,        
                  ,##################################################,,,,####,       
                ,###########''''           ''''###############################       
              ,#####''   ,,,,##########,,,,          '''####'''          '####       
            ,##' ,,,,###########################,,,                        '##       
           ' ,,###''''                  '''############,,,                           
         ,,##''                                '''############,,,,        ,,,,,,###''
      ,#''                                            '''#######################'''  
     '                                                          ''''####''''         
             ,#######,   #######,   ,#######,      ##                                
            ,#'     '#,  ##    ##  ,#'     '#,    #''#        ,####,   ,####,        
            ##       ##  ##   ,#'  ##            #'  '#       #'       #'  '#        
            ##       ##  #######   ##           ,######,      #####,   #    #        
            '#,     ,#'  ##    ##  '#,     ,#' ,#      #,     #,   #   #,  ,#        
             '#######'   ##     ##  '#######'  #'      '#     '####' # '####'        



                #########################################################
                #                        -***-                          #
                #          Department of theory and spectroscopy        #
                #                                                       #
                #                      Frank Neese                      #
                #                                                       #
                #     Directorship, Architecture, Infrastructure        #
                #                    SHARK, DRIVERS                     #
                #        Core code/Algorithms in most modules           #
                #                                                       #
                #        Max Planck Institute fuer Kohlenforschung      #
                #                Kaiser Wilhelm Platz 1                 #
                #                 D-45470 Muelheim/Ruhr                 #
                #                      Germany                          #
                #                                                       #
                #                  All rights reserved                  #
                #                        -***-                          #
                #########################################################


                         Program Version 6.0.0  -   RELEASE  -


 With contributions from (in alphabetic order):
   Daniel Aravena         : Magnetic Suceptibility
   Michael Atanasov       : Ab Initio Ligand Field Theory (pilot matlab implementation)
   Alexander A. Auer      : GIAO ZORA, VPT2 properties, NMR spectrum
   Ute Becker             : All parallelization in ORCA, NUMFREQ, NUMCALC
   Giovanni Bistoni       : ED, misc. LED, open-shell LED, HFLD
   Martin Brehm           : Molecular dynamics
   Dmytro Bykov           : pre 5.0 version of the SCF Hessian
   Marcos Casanova-Páez   : Triplet and SCS-CIS(D). UHF-(DLPNO)-IP/EA/STEOM-CCSD. UHF-CVS-IP/STEOM-CCSD
   Vijay G. Chilkuri      : MRCI spin determinant printing, contributions to CSF-ICE
   Pauline Colinet        : FMM embedding
   Dipayan Datta          : RHF DLPNO-CCSD density
   Achintya Kumar Dutta   : EOM-CC, STEOM-CC
   Nicolas Foglia         : Exact transition moments, OPA infrastructure, MCD improvements
   Dmitry Ganyushin       : Spin-Orbit,Spin-Spin,Magnetic field MRCI
   Miquel Garcia          : C-PCM and meta-GGA Hessian, CCSD/C-PCM, Gaussian charge scheme
   Tiago L. C. Gouveia    : GS-ROHF, GS-ROCIS
   Yang Guo               : DLPNO-NEVPT2, F12-NEVPT2, CIM, IAO-localization
   Andreas Hansen         : Spin unrestricted coupled pair/coupled cluster methods
   Ingolf Harden          : AUTO-CI MPn and infrastructure 
   Benjamin Helmich-Paris : MC-RPA, TRAH-(SCF,CASSCF), AVAS, COSX integrals, SCF dyn. polar.
   Lee Huntington         : MR-EOM, pCC
   Robert Izsak           : Overlap fitted RIJCOSX, COSX-SCS-MP3, EOM
   Riya Kayal             : Wick's Theorem for AUTO-CI, AUTO-CI UHF-CCSDT
   Emily Kempfer          : AUTO-CI, RHF CISDT and CCSDT
   Christian Kollmar      : KDIIS, OOCD, Brueckner-CCSD(T), CCSD density, CASPT2, CASPT2-K, improved NEVPT2
   Axel Koslowski         : Symmetry handling
   Simone Kossmann        : Meta GGA functionals, TD-DFT gradient, OOMP2, (MP2 Hessian; deprecated post 5.0)
   Lucas Lang             : DCDCAS
   Marvin Lechner         : AUTO-CI (C++ implementation), FIC-MRCC
   Spencer Leger          : CASSCF response
   Dagmar Lenk            : GEPOL surface, SMD, ORCA-2-JSON
   Dimitrios Liakos       : Extrapolation schemes; Compound Job, initial MDCI parallelization
   Dimitrios Manganas     : Further ROCIS development; embedding schemes. LFT, Crystal Embedding
   Dimitrios Pantazis     : SARC Basis sets
   Anastasios Papadopoulos: AUTO-CI, single reference methods and gradients
   Taras Petrenko         : pre 6.0 DFT Hessian and TD-DFT gradient, (ASA, deprecated), ECA, 1-Electron XAS/XES, NRVS
   Peter Pinski           : DLPNO-MP2, DLPNO-MP2 Gradient
   Christoph Reimann      : Effective Core Potentials
   Marius Retegan         : Local ZFS, SOC
   Christoph Riplinger    : Optimizer, TS searches, QM/MM, DLPNO-CCSD(T), (RO)-DLPNO pert. Triples
   Michael Roemelt        : Original ROCIS implementation
   Masaaki Saitow         : Open-shell DLPNO-CCSD energy and density
   Barbara Sandhoefer     : DKH picture change effects
   Kantharuban Sivalingam : CASSCF convergence/infrastructure, NEVPT2 and variants, FIC-MRCI
   Bernardo de Souza      : ESD, SOC TD-DFT
   Georgi Stoychev        : AutoAux, RI-MP2 NMR, DLPNO-MP2 response, X2C
   Van Anh Tran           : RI-MP2 g-tensors
   Willem Van den Heuvel  : Paramagnetic NMR
   Zikuan Wang            : NOTCH, Electric field optimization 
   Frank Wennmohs         : Technical directorship and infrastructure
   Hang Xu                : AUTO-CI-Response properties 


 We gratefully acknowledge several colleagues who have allowed us to
 interface, adapt or use parts of their codes:
   Stefan Grimme, W. Hujo, H. Kruse, P. Pracht,  : VdW corrections, initial TS optimization,
                  C. Bannwarth, S. Ehlert,         DFT functionals, gCP, sTDA/sTD-DF
                  L. Wittmann, M. Mueller
   Ed Valeev, F. Pavosevic, A. Kumar             : LibInt (2-el integral package), F12 methods
   Garnet Chan, S. Sharma, J. Yang, R. Olivares  : DMRG
   Ulf Ekstrom                                   : XCFun DFT Library
   Mihaly Kallay                                 : mrcc  (arbitrary order and MRCC methods)
   Frank Weinhold                                : gennbo (NPA and NBO analysis)
   Simon Mueller                                 : openCOSMO-RS
   Christopher J. Cramer and Donald G. Truhlar   : smd solvation model
   Lars Goerigk                                  : TD-DFT with DH, B97 family of functionals
   V. Asgeirsson, H. Jonsson                     : NEB implementation
   FAccTs GmbH                                   : IRC, NEB, NEB-TS, DLPNO-Multilevel, CI-OPT
                                                   MM, QMMM, 2- and 3-layer-ONIOM, Crystal-QMMM,
                                                   LR-CPCM, SF, NACMEs, symmetry and pop. for TD-DFT,
                                                   nearIR, NL-DFT gradient (VV10), updates on ESD,
                                                   ML-optimized integration grids, MBIS, APM,
                                                   GOAT, DOCKER, SOLVATOR, interface openCOSMO-RS
   S Lehtola, MJT Oliveira, MAL Marques          : LibXC Library
   Liviu Ungur et al                             : ANISO software


 Your calculation uses the libint2 library for the computation of 2-el integrals
 For citations please refer to: http://libint.valeyev.net

 Your ORCA version has been built with support for libXC version: 6.2.2
 For citations please refer to: https://libxc.gitlab.io

 This ORCA versions uses:
   CBLAS   interface :  Fast vector & matrix operations
   LAPACKE interface :  Fast linear algebra routines
   SCALAPACK package :  Parallel linear algebra routines
   Shared memory     :  Shared parallel matrices
   BLAS/LAPACK       :  OpenBLAS 0.3.27  USE64BITINT DYNAMIC_ARCH NO_AFFINITY SkylakeX SINGLE_THREADED
        Core in use  :  SkylakeX
   Copyright (c) 2011-2014, The OpenBLAS Project


NOTE: MaxCore=3000 MB was set to SCF,MP2,MDCI,CIPSI,MRCI and CIS
      => If you want to overwrite this, your respective input block should be placed after the MaxCore statement
Your calculation utilizes the atom-pairwise dispersion correction
with the Becke-Johnson damping scheme (D3BJ)


Your calculation utilizes the SMD solvation module
Please cite in your paper:
A.V. Marenich, C.J. Cramer, D.G. Truhlar J. Phys. Chem. B, 113, (2009), 6378 

Warning: RI is on but no J-basis has been assigned. Assigning Def2/J (nothing to worry about!)
================================================================================

----- Orbital basis set information -----
Your calculation utilizes the basis: aug-cc-pVTZ 
    H, B-Ne : Obtained from the ccRepo (grant-hill.group.shef.ac.uk/ccrepo) Feb. 2017
              R. A. Kendall, T. H. Dunning, Jr., R. J. Harrison, J. Chem. Phys. 96, 6796 (1992)
         He : Obtained from the ccRepo (grant-hill.group.shef.ac.uk/ccrepo) Feb. 2017
              D. E. Woon, T. H. Dunning, Jr., J. Chem. Phys. 100, 2975 (1994)
  Li-Be, Na : Obtained from the ccRepo (grant-hill.group.shef.ac.uk/ccrepo) Feb. 2017
              B. P. Prascher, D. E. Woon, K. A. Peterson, T. H. Dunning, Jr., A. K. Wilson, Theor. Chem. Acc. 128, 69 (2011)
         Mg : Obtained from the Peterson Research Group Website (tyr0.chem.wsu.edu/~kipeters) Feb. 2017
              B. P. Prascher, D. E. Woon, K. A. Peterson, T. H. Dunning, Jr., A. K. Wilson, Theor. Chem. Acc. 128, 69 (2011)
      Al-Ar : Obtained from the ccRepo (grant-hill.group.shef.ac.uk/ccrepo) Feb. 2017
              D. E. Woon, T. H. Dunning, Jr., J. Chem. Phys. 98, 1358 (1993)
      Sc-Zn : Obtained from the ccRepo (grant-hill.group.shef.ac.uk/ccrepo) Feb. 2017
              N. B. Balabanov, K. A. Peterson, J. Chem. Phys. 123, 064107 (2005)
              N. B. Balabanov, K. A. Peterson, J. Chem. Phys. 125, 074110 (2006)
      Ga-Kr : Obtained from the ccRepo (grant-hill.group.shef.ac.uk/ccrepo) Feb. 2017
              A. K. Wilson, D. E. Woon, K. A. Peterson, T. H. Dunning, Jr., J. Chem. Phys. 110, 7667 (1999)
     Ag, Au : Obtained from the Peterson Research Group Website (tyr0.chem.wsu.edu/~kipeters) Feb. 2017
              K. A. Peterson, C. Puzzarini, Theor. Chem. Acc. 114, 283 (2005)

----- AuxJ basis set information -----
Your calculation utilizes the auxiliary basis: def2/J
   F. Weigend, Phys. Chem. Chem. Phys. 8, 1057 (2006).

================================================================================
                                        WARNINGS
                       Please study these warnings very carefully!
================================================================================

Using LibXC functional ID 497 : Re-regularized SCAN exchange by Furness et al
[ 1]  J. W. Furness, A. D. Kaplan, J. Ning, J. P. Perdew, and J. Sun.,  J. Phys. Chem. Lett. 11, 8208-8215 (2020)
[ 2]  J. W. Furness, A. D. Kaplan, J. Ning, J. P. Perdew, and J. Sun.,  J. Phys. Chem. Lett. 11, 9248-9248 (2020)
Using LibXC functional ID 498 : Re-regularized SCAN correlation by Furness et al
[ 1]  J. W. Furness, A. D. Kaplan, J. Ning, J. P. Perdew, and J. Sun.,  J. Phys. Chem. Lett. 11, 8208-8215 (2020)
[ 2]  J. W. Furness, A. D. Kaplan, J. Ning, J. P. Perdew, and J. Sun.,  J. Phys. Chem. Lett. 11, 9248-9248 (2020)
Using LibXC functional ID 497 : Re-regularized SCAN exchange by Furness et al
[ 1]  J. W. Furness, A. D. Kaplan, J. Ning, J. P. Perdew, and J. Sun.,  J. Phys. Chem. Lett. 11, 8208-8215 (2020)
[ 2]  J. W. Furness, A. D. Kaplan, J. Ning, J. P. Perdew, and J. Sun.,  J. Phys. Chem. Lett. 11, 9248-9248 (2020)
Using LibXC functional ID 498 : Re-regularized SCAN correlation by Furness et al
[ 1]  J. W. Furness, A. D. Kaplan, J. Ning, J. P. Perdew, and J. Sun.,  J. Phys. Chem. Lett. 11, 8208-8215 (2020)
[ 2]  J. W. Furness, A. D. Kaplan, J. Ning, J. P. Perdew, and J. Sun.,  J. Phys. Chem. Lett. 11, 9248-9248 (2020)


WARNING: Found flag for RIJCOSX approximation but no HF exchange needed!
  ===> : RIJCOSX  will be disabled and Split-RI-J is turned on

WARNING: your system is open-shell and RHF/RKS was chosen
  ===> : WILL SWITCH to UHF/UKS


================================================================================
                                       INPUT FILE
================================================================================
NAME = cs_rporg_017_ox_solv_03.inp
|  1> !r2SCAN aug-cc-pVTZ d3 TightSCF SlowConv RIJCOSX defgrid2
|  2>  
|  3> %pal
|  4> nprocs 4
|  5> end
|  6>  
|  7> %scf
|  8> MaxIter 1500
|  9> end
| 10>  
| 11> %maxcore 3000
| 12>  
| 13> !CPCM
| 14> %cpcm smd true
| 15> SMDsolvent "MeCN"
| 16> surfacetype gepol_ses
| 17> rsolv 2.19
| 18> end 
| 19>  
| 20> * xyz 1 2
| 21> C          -0.08274669059718     -1.04399274826201      0.00954198550444
| 22> C          -1.44314186979999     -1.21224349192059      0.01464115375041
| 23> C          -2.32257727617337     -0.09487222329371      0.01274887003500
| 24> C          -1.76475290459407      1.20761482302953      0.00780256836072
| 25> C          -0.40273191503338      1.38761253420536      0.00299374201136
| 26> C           0.48723075022230      0.26923379961588      0.00339892002300
| 27> C           1.88361104255076      0.51997141228763     -0.00136731410568
| 28> C           2.88609272782847     -0.43252038403740     -0.00211440107444
| 29> C           4.32371272330116     -0.12403052833475     -0.00716059814151
| 30> H           4.81199450703941     -0.59263895023193      0.87108589562038
| 31> H           4.80704713115468     -0.59771697456439     -0.88539713829447
| 32> H           4.53724499406217      0.95562079688104     -0.01081444259812
| 33> H           2.61316130337916     -1.49525746809077      0.00127055185440
| 34> H           2.19060539304120      1.57295312497944     -0.00515248687208
| 35> H           0.01742107746022      2.39740330737597      0.00010725500974
| 36> H          -2.43168783850088      2.07400339025986      0.00974847718212
| 37> C          -3.79206162044774     -0.30228879497229     -0.00564898818348
| 38> H          -4.34940861071486      0.62196968873633      0.20771494941170
| 39> H          -4.10189712650768     -0.66414858988669     -1.00697947362935
| 40> H          -4.09284114272650     -1.08666315679518      0.71118909458011
| 41> H          -1.86630567510074     -2.22073732773736      0.02172898720586
| 42> H           0.56388072015687     -1.92419663924397      0.01175289234987
| 43> *
| 44> 
| 45>                          ****END OF INPUT****
================================================================================

                       ****************************
                       * Single Point Calculation *
                       ****************************

---------------------------------
CARTESIAN COORDINATES (ANGSTROEM)
---------------------------------
  C     -0.082747   -1.043993    0.009542
  C     -1.443142   -1.212243    0.014641
  C     -2.322577   -0.094872    0.012749
  C     -1.764753    1.207615    0.007803
  C     -0.402732    1.387613    0.002994
  C      0.487231    0.269234    0.003399
  C      1.883611    0.519971   -0.001367
  C      2.886093   -0.432520   -0.002114
  C      4.323713   -0.124031   -0.007161
  H      4.811995   -0.592639    0.871086
  H      4.807047   -0.597717   -0.885397
  H      4.537245    0.955621   -0.010814
  H      2.613161   -1.495257    0.001271
  H      2.190605    1.572953   -0.005152
  H      0.017421    2.397403    0.000107
  H     -2.431688    2.074003    0.009748
  C     -3.792062   -0.302289   -0.005649
  H     -4.349409    0.621970    0.207715
  H     -4.101897   -0.664149   -1.006979
  H     -4.092841   -1.086663    0.711189
  H     -1.866306   -2.220737    0.021729
  H      0.563881   -1.924197    0.011753

----------------------------
CARTESIAN COORDINATES (A.U.)
----------------------------
  NO LB      ZA    FRAG     MASS         X           Y           Z
   0 C     6.0000    0    12.011   -0.156369   -1.972860    0.018032
   1 C     6.0000    0    12.011   -2.727143   -2.290808    0.027668
   2 C     6.0000    0    12.011   -4.389035   -0.179283    0.024092
   3 C     6.0000    0    12.011   -3.334900    2.282061    0.014745
   4 C     6.0000    0    12.011   -0.761053    2.622208    0.005657
   5 C     6.0000    0    12.011    0.920733    0.508778    0.006423
   6 C     6.0000    0    12.011    3.559509    0.982604   -0.002584
   7 C     6.0000    0    12.011    5.453925   -0.817345   -0.003996
   8 C     6.0000    0    12.011    8.170633   -0.234384   -0.013532
   9 H     1.0000    0     1.008    9.093352   -1.119925    1.646114
  10 H     1.0000    0     1.008    9.084003   -1.129521   -1.673158
  11 H     1.0000    0     1.008    8.574150    1.805862   -0.020436
  12 H     1.0000    0     1.008    4.938159   -2.825627    0.002401
  13 H     1.0000    0     1.008    4.139644    2.972451   -0.009737
  14 H     1.0000    0     1.008    0.032921    4.530436    0.000203
  15 H     1.0000    0     1.008   -4.595224    3.919298    0.018422
  16 C     6.0000    0    12.011   -7.165958   -0.571243   -0.010675
  17 H     1.0000    0     1.008   -8.219191    1.175352    0.392524
  18 H     1.0000    0     1.008   -7.751462   -1.255059   -1.902915
  19 H     1.0000    0     1.008   -7.734349   -2.053496    1.343953
  20 H     1.0000    0     1.008   -3.526807   -4.196585    0.041062
  21 H     1.0000    0     1.008    1.065580   -3.636205    0.022210

--------------------------------
INTERNAL COORDINATES (ANGSTROEM)
--------------------------------
 C      0   0   0     0.000000000000     0.00000000     0.00000000
 C      1   0   0     1.370769622459     0.00000000     0.00000000
 C      2   1   0     1.421945416208   121.15376145     0.00000000
 C      3   2   1     1.416920958017   118.61100140   359.89109403
 C      4   3   2     1.373871710475   120.71299488     0.09219855
 C      5   4   3     1.429267191151   120.98285111   359.97414187
 C      6   5   4     1.418721251057   118.33148907   180.01623709
 C      7   6   5     1.382827071446   126.28496036   180.01931650
 C      8   7   6     1.470354619321   124.35358060   179.99904212
 H      9   8   7     1.108751485775   109.82767191   122.61050647
 H      9   8   7     1.108733700947   109.83490001   237.32486608
 H      9   8   7     1.100570926963   113.29902709   359.97448394
 H      8   7   6     1.097229752687   119.13157987     0.00000000
 H      7   6   5     1.096827400291   116.43402648     0.00000000
 H      5   4   3     1.093715810661   120.11976577   180.05503595
 H      4   3   2     1.093359566681   119.22642089   180.20650635
 C      3   2   1     1.484164530455   120.16910363   178.92762535
 H     17   3   2     1.100187975817   112.44350645   167.91127878
 H     17   3   2     1.108874786923   109.47832061   287.86164952
 H     17   3   2     1.104340661846   111.15440140    44.82102476
 H      2   1   3     1.093699072131   119.81400229   180.08787975
 H      1   2   3     1.092195397421   119.25105848   179.96564084

---------------------------
INTERNAL COORDINATES (A.U.)
---------------------------
 C      0   0   0     0.000000000000     0.00000000     0.00000000
 C      1   0   0     2.590379179146     0.00000000     0.00000000
 C      2   1   0     2.687087414017   121.15376145     0.00000000
 C      3   2   1     2.677592564066   118.61100140   359.89109403
 C      4   3   2     2.596241275940   120.71299488     0.09219855
 C      5   4   3     2.700923563474   120.98285111   359.97414187
 C      6   5   4     2.680994624871   118.33148907   180.01623709
 C      7   6   5     2.613164455604   126.28496036   180.01931650
 C      8   7   6     2.778567550263   124.35358060   179.99904212
 H      9   8   7     2.095236658693   109.82767191   122.61050647
 H      9   8   7     2.095203050240   109.83490001   237.32486608
 H      9   8   7     2.079777642916   113.29902709   359.97448394
 H      8   7   6     2.073463738568   119.13157987     0.00000000
 H      7   6   5     2.072703402731   116.43402648     0.00000000
 H      5   4   3     2.066823350488   120.11976577   180.05503595
 H      4   3   2     2.066150146931   119.22642089   180.20650635
 C      3   2   1     2.804664500240   120.16910363   178.92762535
 H     17   3   2     2.079053970128   112.44350645   167.91127878
 H     17   3   2     2.095469664095   109.47832061   287.86164952
 H     17   3   2     2.086901409443   111.15440140    44.82102476
 H      2   1   3     2.066791719251   119.81400229   180.08787975
 H      1   2   3     2.063950185855   119.25105848   179.96564084

---------------------
BASIS SET INFORMATION
---------------------
There are 2 groups of distinct atoms

 Group   1 Type C   : 19s6p3d2f contracted to 5s4p3d2f pattern {88111/3111/111/11}
 Group   2 Type H   : 6s3p2d contracted to 4s3p2d pattern {3111/111/11}

Atom   0C    basis set group =>   1
Atom   1C    basis set group =>   1
Atom   2C    basis set group =>   1
Atom   3C    basis set group =>   1
Atom   4C    basis set group =>   1
Atom   5C    basis set group =>   1
Atom   6C    basis set group =>   1
Atom   7C    basis set group =>   1
Atom   8C    basis set group =>   1
Atom   9H    basis set group =>   2
Atom  10H    basis set group =>   2
Atom  11H    basis set group =>   2
Atom  12H    basis set group =>   2
Atom  13H    basis set group =>   2
Atom  14H    basis set group =>   2
Atom  15H    basis set group =>   2
Atom  16C    basis set group =>   1
Atom  17H    basis set group =>   2
Atom  18H    basis set group =>   2
Atom  19H    basis set group =>   2
Atom  20H    basis set group =>   2
Atom  21H    basis set group =>   2
---------------------------------
AUXILIARY/J BASIS SET INFORMATION
---------------------------------
There are 2 groups of distinct atoms

 Group   1 Type C   : 12s5p4d2f1g contracted to 6s4p3d1f1g pattern {711111/2111/211/2/1}
 Group   2 Type H   : 5s2p1d contracted to 3s1p1d pattern {311/2/1}

Atom   0C    basis set group =>   1
Atom   1C    basis set group =>   1
Atom   2C    basis set group =>   1
Atom   3C    basis set group =>   1
Atom   4C    basis set group =>   1
Atom   5C    basis set group =>   1
Atom   6C    basis set group =>   1
Atom   7C    basis set group =>   1
Atom   8C    basis set group =>   1
Atom   9H    basis set group =>   2
Atom  10H    basis set group =>   2
Atom  11H    basis set group =>   2
Atom  12H    basis set group =>   2
Atom  13H    basis set group =>   2
Atom  14H    basis set group =>   2
Atom  15H    basis set group =>   2
Atom  16C    basis set group =>   1
Atom  17H    basis set group =>   2
Atom  18H    basis set group =>   2
Atom  19H    basis set group =>   2
Atom  20H    basis set group =>   2
Atom  21H    basis set group =>   2


           ************************************************************
           *        Program running with 4 parallel MPI-processes     *
           *              working on a common directory               *
           ************************************************************
------------------------------------------------------------------------------
                             ORCA STARTUP CALCULATIONS
                           -- RI-GTO INTEGRALS CHOSEN --
------------------------------------------------------------------------------
------------------------------------------------------------------------------
                   ___                                                        
                  /   \      - P O W E R E D   B Y -                         
                 /     \                                                     
                 |  |  |   _    _      __       _____    __    __             
                 |  |  |  | |  | |    /  \     |  _  \  |  |  /  |          
                  \  \/   | |  | |   /    \    | | | |  |  | /  /          
                 / \  \   | |__| |  /  /\  \   | |_| |  |  |/  /          
                |  |  |   |  __  | /  /__\  \  |    /   |      \           
                |  |  |   | |  | | |   __   |  |    \   |  |\   \          
                \     /   | |  | | |  |  |  |  | |\  \  |  | \   \       
                 \___/    |_|  |_| |__|  |__|  |_| \__\ |__|  \__/        
                                                                              
                      - O R C A' S   B I G   F R I E N D -                    
                                      &                                       
                       - I N T E G R A L  F E E D E R -                       
                                                                              
 v1 FN, 2020, v2 2021, v3 2022-2024                                           
------------------------------------------------------------------------------


----------------------
SHARK INTEGRAL PACKAGE
----------------------

Number of atoms                             ...     22
Number of basis functions                   ...    796
Number of shells                            ...    308
Maximum angular momentum                    ...      3
Integral batch strategy                     ... SHARK/LIBINT Hybrid
RI-J (if used) integral strategy            ... SPLIT-RIJ (Revised 2003 algorithm where possible)
Printlevel                                  ...      1
Contraction scheme used                     ... PARTIAL GENERAL contraction
Prescreening option                         ... SCHWARTZ
   Thresh                                   ... 2.500e-11
   Tcut                                     ... 2.500e-12
   Tpresel                                  ... 2.500e-12 
Coulomb Range Separation                    ... NOT USED
Exchange Range Separation                   ... NOT USED
Multipole approximations                    ... NOT USED
Finite Nucleus Model                        ... NOT USED
CABS basis                                  ... NOT available
Auxiliary Coulomb fitting basis             ... AVAILABLE
   # of basis functions in Aux-J            ...    622
   # of shells in Aux-J                     ...    210
   Maximum angular momentum in Aux-J        ...      4
Auxiliary J/K fitting basis                 ... NOT available
Auxiliary Correlation fitting basis         ... NOT available
Auxiliary 'external' fitting basis          ... NOT available

Checking pre-screening integrals            ... done (  0.0 sec) Dimension = 308
Save PGC pre-screening integrals            ... done (  0.0 sec) Dimension = 308
Calculate PGC overlap integrals             ... done (  0.2 sec) Dimension = 248
Calculating pre-screening integrals (ORCA)  ... done (  0.3 sec) Dimension = 248
Check shell pair data                       ... done (  0.0 sec)
Shell pair information
Shell pair cut-off parameter TPreSel        ...   2.5e-12
Total number of shell pairs                 ...     47586
Shell pairs after pre-screening             ...     38364
Total number of primitive shell pairs       ...     62194
Primitive shell pairs kept                  ...     46070
          la=0 lb=0:   8742 shell pairs
          la=1 lb=0:   9925 shell pairs
          la=1 lb=1:   2634 shell pairs
          la=2 lb=0:   6894 shell pairs
          la=2 lb=1:   3622 shell pairs
          la=2 lb=2:   1277 shell pairs
          la=3 lb=0:   2694 shell pairs
          la=3 lb=1:   1387 shell pairs
          la=3 lb=2:    988 shell pairs
          la=3 lb=3:    201 shell pairs

Calculating one electron integrals          ... done (  0.1 sec)
Calculating RI/J V-Matrix + Cholesky decomp.... done (  0.1 sec)
Calculating Nuclear repulsion               ... done (  0.0 sec) ENN=    466.333636880678 Eh

Diagonalization of the overlap matrix:
Smallest eigenvalue                        ... 4.110e-07
Time for diagonalization                   ...    0.179 sec
Threshold for overlap eigenvalues          ... 1.000e-07
Number of eigenvalues below threshold      ... 0

IMPORTANT:
Smallest eigenvalue of S below the DiffSThresh (1.000e-06) while
Thresh>1e-12 and/or TCut>1e-13! In order to avoid SCF convergence issues,
Thresh will be set to at least 1e-12 and TCut to at least 1e-13.
This can be turned off by adding %SCF DiffSThresh -1 END to the input.

Time for construction of square roots      ...    0.078 sec
Total time needed                          ...    0.288 sec

-------------------
DFT GRID GENERATION
-------------------

General Integration Accuracy     IntAcc      ... 4.388
Radial Grid Type                 RadialGrid  ... OptM3 with GC (2021)
Angular Grid (max. ang.)         AngularGrid ... 4 (Lebedev-302)
Angular grid pruning method      GridPruning ... 4 (adaptive)
Weight generation scheme         WeightScheme... mBecke (2022)
Basis function cutoff            BFCut       ... 1.0000e-11
Integration weight cutoff        WCut        ... 1.0000e-14
Partially contracted basis set               ... off
Rotationally invariant grid construction     ... off
Angular grids for H and He will be reduced by one unit
Diffuse basis detected: some atoms will have their outermost
                        angular grid increased by 1.

Total number of grid points                  ...   103353
Total number of batches                      ...     1626
Average number of points per batch           ...       63
Average number of grid points per atom       ...     4698

---------------------
SHARK GRID GENERATION
---------------------

General Integration Accuracy     IntAcc      ... 4.388
Radial Grid Type                 RadialGrid  ... OptM3 with GC (2021)
Angular Grid (max. ang.)         AngularGrid ... 4 (Lebedev-302)
Angular grid pruning method      GridPruning ... 4 (adaptive)
Weight generation scheme         WeightScheme... mBecke (2022)
Basis function cutoff            BFCut       ... 1.0000e-11
Integration weight cutoff        WCut        ... 1.0000e-14
Partially contracted basis set               ... off
Rotationally invariant grid construction     ... off
Angular grids for H and He will be reduced by one unit
Diffuse basis detected: some atoms will have their outermost
                        angular grid increased by 1.
Steep s-basis detected: some atoms will have their radial
                        grid points doubled.

Total number of grid points                  ...   166223
Total number of batches                      ...     2607
Average number of points per batch           ...       63
Average number of grid points per atom       ...     7556
Initializing property integral containers    ... done (  0.0 sec)

SHARK setup successfully completed in   9.9 seconds

Maximum memory used throughout the entire STARTUP-calculation: 90.7 MB


           ************************************************************
           *        Program running with 4 parallel MPI-processes     *
           *              working on a common directory               *
           ************************************************************
-------------------------------------------------------------------------------
                                 ORCA GUESS
                   Start orbitals & Density for SCF / CASSCF
-------------------------------------------------------------------------------

------------
SCF SETTINGS
------------
Hamiltonian:
 Density Functional     Method          .... DFT(GTOs)
  Functional kind                       .... Exchange
  Functional name                       .... Re-regularized SCAN exchange by Furness et al
  Functional family                     .... MGGA
  Functional refs                              
    [ 0] J. W. Furness, A. D. Kaplan, J. Ning, J. P. Perdew, and J. Sun.,  J. Phys. Chem. Lett. 11, 8208-8215 (2020), doi: 10.1021/acs.jpclett.0c02405
    [ 1] J. W. Furness, A. D. Kaplan, J. Ning, J. P. Perdew, and J. Sun.,  J. Phys. Chem. Lett. 11, 9248-9248 (2020), doi: 10.1021/acs.jpclett.0c03077
  Functional external parameters        .... 6
    Parameter  0 _c1        =  6.670000e-01 : c1 parameter        
    Parameter  1 _c2        =  8.000000e-01 : c2 parameter        
    Parameter  2 _d         =  1.240000e+00 : d parameter         
    Parameter  3 _k1        =  6.500000e-02 : k1 parameter        
    Parameter  4 _eta       =  1.000000e-03 : eta parameter       
    Parameter  5 _dp2       =  3.610000e-01 : dp2 parameter       
  Functional kind                       .... Correlation
  Functional name                       .... Re-regularized SCAN correlation by Furness et al
  Functional family                     .... MGGA
  Functional refs                              
    [ 0] J. W. Furness, A. D. Kaplan, J. Ning, J. P. Perdew, and J. Sun.,  J. Phys. Chem. Lett. 11, 8208-8215 (2020), doi: 10.1021/acs.jpclett.0c02405
    [ 1] J. W. Furness, A. D. Kaplan, J. Ning, J. P. Perdew, and J. Sun.,  J. Phys. Chem. Lett. 11, 9248-9248 (2020), doi: 10.1021/acs.jpclett.0c03077
  Functional external parameters        .... 1
    Parameter  0 _eta       =  1.000000e-03 : Regularization parameter
 Gradients option       PostSCFGGA      .... off
   NL short-range parameter             .... 12.300000
 RI-approximation to the Coulomb term is turned on
   Number of AuxJ basis functions       .... 622


General Settings:
 Integral files         IntName         .... cs_rporg_017_ox_solv_03
 Hartree-Fock type      HFTyp           .... UHF
 Total Charge           Charge          ....    1
 Multiplicity           Mult            ....    2
 Number of Electrons    NEL             ....   71
 Basis Dimension        Dim             ....  736
 Nuclear Repulsion      ENuc            ....    466.3336368807 Eh

Convergence Acceleration:
 AO-DIIS                CNVDIIS         .... on
   Start iteration      DIISMaxIt       ....     0
   Startup error        DIISStart       ....  0.200000
   # of expansion vecs  DIISMaxEq       ....     5
   Bias factor          DIISBfac        ....   1.050
   Max. coefficient     DIISMaxC        ....  10.000
 MO-DIIS                CNVKDIIS        .... off
 Trust-Rad. Augm. Hess. CNVTRAH         .... auto
   Auto Start mean grad. ratio tolernc. ....  1.125000
   Auto Start start iteration           ....    50
   Auto Start num. interpolation iter.  ....    10
   Max. Number of Micro iterations      ....    24
   Max. Number of Macro iterations      .... Maxiter - #DIIS iter
   Number of Davidson start vectors     ....     2
   Converg. threshold    (grad. norm)   ....   1.000e-05
   Grad. Scal. Fac. for Micro threshold ....   0.100
   Minimum threshold for Micro iter.    ....   1.000e-02
   NR start threshold (gradient norm)   ....   1.000e-04
   Initial trust radius                 ....   0.400
   Minimum AH scaling param. (alpha)    ....   1.000
   Maximum AH scaling param. (alpha)    .... 1000.000
   Quad. conv. algorithm                .... NR
   White noise on init. David. guess    .... on
   Maximum white noise                  ....   0.010
   Pseudo random numbers                .... off
   Inactive MOs                         .... canonical
   Orbital update algorithm             .... Taylor
   Preconditioner                       .... Diag
   Full preconditioner red. dimension   ....   250
 SOSCF                  CNVSOSCF        .... on
   Start iteration      SOSCFMaxIt      ....   150
   Startup grad/error   SOSCFStart      ....  0.001000
   Hessian update       SOSCFHessUp     .... L-BFGS
 Level Shifting         CNVShift        .... on
   Level shift para.    LevelShift      ....    0.2500
   Turn off err/grad.   ShiftErr        ....    0.0000
 Zerner damping         CNVZerner       .... off
 Static damping         CNVDamp         .... on
   Fraction old density DampFac         ....    0.8500
   Max. Damping (<1)    DampMax         ....    0.9800
   Min. Damping (>=0)   DampMin         ....    0.0000
   Turn off err/grad.   DampErr         ....    0.0300

SCF Procedure:
 Maximum # iterations   MaxIter         ....  1500
 SCF integral mode      SCFMode         .... Direct
   Integral package                     .... SHARK and LIBINT hybrid scheme
 Reset frequency        DirectResetFreq ....    20
 Integral Threshold     Thresh          ....  1.000e-12 Eh
 Primitive CutOff       TCut            ....  1.000e-13 Eh

Convergence Tolerance:
 Convergence Check Mode ConvCheckMode   .... Total+1el-Energy
 Convergence forced     ConvForced      .... 0
 Energy Change          TolE            ....  1.000e-08 Eh
 1-El. energy change                    ....  1.000e-05 Eh
 Orbital Gradient       TolG            ....  1.000e-05
 Orbital Rotation angle TolX            ....  1.000e-05
 DIIS Error             TolErr          ....  5.000e-07

------------------------------
INITIAL GUESS: MODEL POTENTIAL
------------------------------
Loading Hartree-Fock densities                     ... done
Calculating cut-offs                               ... done
Initializing the effective Hamiltonian             ... done
Setting up the integral package (SHARK)            ... done
Starting the Coulomb interaction                   ... done (   0.9 sec)
Making the grid                                    ... done (   0.8 sec)
Mapping shells                                     ... done
Starting the XC term evaluation                    ... done (   1.7 sec)
  promolecular density results
     # of electrons  =     71.985626432
     EX              =    -54.632703841
     EC              =     -2.350558261
     EX+EC           =    -56.983262103
Transforming the Hamiltonian                       ... done (   0.1 sec)
Diagonalizing the Hamiltonian                      ... done (   0.2 sec)
Back transforming the eigenvectors                 ... done (   0.1 sec)
Now organizing SCF variables                       ... done
                      ------------------
                      INITIAL GUESS DONE (   4.0 sec)
                      ------------------
             **** ENERGY FILE WAS UPDATED (cs_rporg_017_ox_solv_03.en.tmp) ****
Finished Guess after   5.3 sec
Maximum memory used throughout the entire GUESS-calculation: 68.1 MB


           ************************************************************
           *        Program running with 4 parallel MPI-processes     *
           *              working on a common directory               *
           ************************************************************

-------------------------------------------------------------------------------------------
                                      ORCA LEAN-SCF
                              memory conserving SCF solver
-------------------------------------------------------------------------------------------

--------------------
CPCM SOLVATION MODEL
--------------------
CPCM parameters:
  Epsilon                                         ...      35.6880
  Refrac                                          ...       1.3442
  Rsolv                                           ...       2.1900
  Surface type                                    ...    GEPOL SES
  Discretization scheme                           ... Constant num. charges
  Epsilon function type                           ...         CPCM
Solvent:                                          ... ACETONITRILE
SMD-CDS solvent descriptors:
  Soln                                            ...       1.3442
  Soln25                                          ...       1.3416
  Sola                                            ...       0.0700
  Solb                                            ...       0.3200
  Solg                                            ...      41.2500
  Solc                                            ...       0.0000
  Solh                                            ...       0.0000
Radii:
  Scheme                                          ... Element-dependent radii
  Radius for C  used is    3.4960 Bohr (=   1.8500 Ang.)
  Radius for H  used is    2.2677 Bohr (=   1.2000 Ang.)
Calculating surface                               ...        done! (  0.0s)
Cavity surface points                             ...          808
Cavity Volume                                     ...    1109.3325
Cavity Surface-area                               ...     652.1395
Calculating surface distance matrix               ...        done! (  0.0s)
Performing Cholesky decomposition & store         ...        done! (  0.0s)
Overall time for CPCM initialization              ...                 0.1s

----------------------------------------D-I-I-S--------------------------------------------
Iteration    Energy (Eh)           Delta-E    RMSDP     MaxDP     DIISErr   Damp  Time(sec)
-------------------------------------------------------------------------------------------
               ***  Starting incremental Fock matrix formation  ***
    1    -387.8195366268752196     0.00e+00  5.23e-04  5.09e-02  8.83e-02  0.850  33.3
Warning: op=1 Small HOMO/LUMO gap (   0.045) - skipping pre-diagonalization
         Will do a full diagonalization
    2    -387.8608006934256309    -4.13e-02  4.92e-04  4.86e-02  6.71e-02  0.850  29.3
                               ***Turning on AO-DIIS***
    3    -387.8892833778880913    -2.85e-02  3.81e-04  3.60e-02  4.64e-02  0.850  28.1
    4    -387.9082968490206440    -1.90e-02  3.14e-04  2.79e-02  3.65e-02  0.850  27.5
    5    -387.9221970120443075    -1.39e-02  2.63e-04  2.25e-02  3.03e-02  0.850  26.8
    6    -387.9331186970815679    -1.09e-02  2.22e-04  1.86e-02  2.56e-02  0.850  26.4
    7    -387.9420302074402116    -8.91e-03  1.25e-03  1.03e-01  2.16e-02  0.000  26.1
    8    -387.9869672405263827    -4.49e-02  5.41e-05  5.59e-03  1.94e-03  0.000  29.0
    9    -387.9870530894676222    -8.58e-05  2.29e-05  1.83e-03  1.16e-03  0.000  24.8
                              *** Initializing SOSCF ***
---------------------------------------S-O-S-C-F--------------------------------------
Iteration    Energy (Eh)           Delta-E    RMSDP     MaxDP     MaxGrad    Time(sec)
--------------------------------------------------------------------------------------
   10    -387.9870853101236889    -3.22e-05  2.00e-05  2.09e-03  8.54e-04    24.5
               *** Restarting incremental Fock matrix formation ***
   11    -387.9871056225666734    -2.03e-05  8.81e-06  6.95e-04  7.71e-04    33.1
   12    -387.9871170719216025    -1.14e-05  1.74e-05  1.34e-03  4.33e-04    23.1
   13    -387.9871216119801147    -4.54e-06  7.67e-06  8.05e-04  4.26e-04    23.7
   14    -387.9871245434227376    -2.93e-06  3.05e-06  2.52e-04  1.48e-04    22.3
   15    -387.9871247313238882    -1.88e-07  1.89e-06  2.09e-04  9.64e-05    21.8
   16    -387.9871251212670131    -3.90e-07  1.09e-06  5.97e-05  3.05e-05    21.1
   17    -387.9871251227363018    -1.47e-09  7.92e-07  5.41e-05  2.86e-05    20.0
                 **** Energy Check signals convergence ****

               *****************************************************
               *                     SUCCESS                       *
               *           SCF CONVERGED AFTER  17 CYCLES          *
               *****************************************************


SMD CDS free energy correction energy :                -2.43366     Kcal/mol
Total Energy after SMD CDS correction =              -387.991003400 Eh
             **** ENERGY FILE WAS UPDATED (cs_rporg_017_ox_solv_03.en.tmp) ****

----------------
TOTAL SCF ENERGY
----------------

Total Energy       :       -387.99100339987143 Eh          -10557.77195 eV

Components:
Nuclear Repulsion  :        466.33363688067823 Eh           12689.58339 eV
Electronic Energy  :       -854.24140405674916 Eh          -23245.09036 eV
One Electron Energy:      -1433.47615451270713 Eh          -39006.86924 eV
Two Electron Energy:        579.23475045595796 Eh           15761.77887 eV
CPCM Dielectric    :         -0.07935794666537 Eh              -2.15944 eV
SMD CDS (Gcds)     :         -0.00387827713512 Eh              -0.10553 eV

Virial components:
Potential Energy   :       -773.52004307815810 Eh          -21048.55046 eV
Kinetic Energy     :        385.52903967828667 Eh           10490.77851 eV
Virial Ratio       :          2.00638593586527

DFT components:
N(Alpha)           :       35.999968121591 electrons
N(Beta)            :       34.999962067080 electrons
N(Total)           :       70.999930188672 electrons
E(X)               :      -55.966234152453 Eh       
E(C)               :       -2.235457391731 Eh       
E(XC)              :      -58.201691544183 Eh       

CPCM Solvation Model Properties:
Surface-charge          :         -1.04347245266808
Corrected charge        :         -1.00000000000000
Outlying charge corr.   :          0.00012887151371 Eh               0.00351 eV
Free-energy (cav+disp)  :         -0.00387827713512 Eh              -0.10553 eV

---------------
SCF CONVERGENCE
---------------

  Last Energy change         ...    1.4693e-09  Tolerance :   1.0000e-08
  Last MAX-Density change    ...    5.4110e-05  Tolerance :   1.0000e-07
  Last RMS-Density change    ...    7.9169e-07  Tolerance :   5.0000e-09
  Last DIIS Error            ...    8.5424e-04  Tolerance :   5.0000e-07
  Last Orbital Gradient      ...    2.8592e-05  Tolerance :   1.0000e-05
  Last Orbital Rotation      ...    9.8505e-05  Tolerance :   1.0000e-05


----------------------
UHF SPIN CONTAMINATION
----------------------

Warning: in a DFT calculation there is little theoretical justification to 
         calculate <S**2> as in Hartree-Fock theory. We will do it anyways
         but you should keep in mind that the values have only limited relevance

Expectation value of <S**2>     :     0.768424
Ideal value S*(S+1) for S=0.5   :     0.750000
Deviation                       :     0.018424

----------------
ORBITAL ENERGIES
----------------
                 SPIN UP ORBITALS
  NO   OCC          E(Eh)            E(eV) 
   0   1.0000     -10.107790      -275.0469 
   1   1.0000     -10.104388      -274.9544 
   2   1.0000     -10.102649      -274.9071 
   3   1.0000     -10.090615      -274.5796 
   4   1.0000     -10.080510      -274.3046 
   5   1.0000     -10.080100      -274.2935 
   6   1.0000     -10.069444      -274.0035 
   7   1.0000     -10.069246      -273.9981 
   8   1.0000     -10.050260      -273.4815 
   9   1.0000     -10.045555      -273.3534 
  10   1.0000      -0.868339       -23.6287 
  11   1.0000      -0.817214       -22.2375 
  12   1.0000      -0.770732       -20.9727 
  13   1.0000      -0.749300       -20.3895 
  14   1.0000      -0.706453       -19.2236 
  15   1.0000      -0.652517       -17.7559 
  16   1.0000      -0.611123       -16.6295 
  17   1.0000      -0.587486       -15.9863 
  18   1.0000      -0.550226       -14.9724 
  19   1.0000      -0.504220       -13.7205 
  20   1.0000      -0.471365       -12.8265 
  21   1.0000      -0.452493       -12.3129 
  22   1.0000      -0.426779       -11.6132 
  23   1.0000      -0.416882       -11.3439 
  24   1.0000      -0.415965       -11.3190 
  25   1.0000      -0.411189       -11.1890 
  26   1.0000      -0.407069       -11.0769 
  27   1.0000      -0.375522       -10.2185 
  28   1.0000      -0.374524       -10.1913 
  29   1.0000      -0.366158        -9.9637 
  30   1.0000      -0.351323        -9.5600 
  31   1.0000      -0.345508        -9.4018 
  32   1.0000      -0.326616        -8.8877 
  33   1.0000      -0.307580        -8.3697 
  34   1.0000      -0.274492        -7.4693 
  35   1.0000      -0.242699        -6.6042 
  36   0.0000      -0.115827        -3.1518 
  37   0.0000      -0.066243        -1.8026 
  38   0.0000      -0.023271        -0.6332 
  39   0.0000       0.005576         0.1517 
  40   0.0000       0.016579         0.4511 
  41   0.0000       0.018688         0.5085 
  42   0.0000       0.030271         0.8237 
  43   0.0000       0.034767         0.9461 
  44   0.0000       0.037165         1.0113 
  45   0.0000       0.042433         1.1546 
  46   0.0000       0.044330         1.2063 

                 SPIN DOWN ORBITALS
  NO   OCC          E(Eh)            E(eV) 
   0   1.0000     -10.100756      -274.8556 
   1   1.0000     -10.100190      -274.8402 
   2   1.0000     -10.099688      -274.8265 
   3   1.0000     -10.089848      -274.5587 
   4   1.0000     -10.078881      -274.2603 
   5   1.0000     -10.078490      -274.2496 
   6   1.0000     -10.070146      -274.0226 
   7   1.0000     -10.069815      -274.0136 
   8   1.0000     -10.050414      -273.4857 
   9   1.0000     -10.045612      -273.3550 
  10   1.0000      -0.861523       -23.4432 
  11   1.0000      -0.806497       -21.9459 
  12   1.0000      -0.760103       -20.6835 
  13   1.0000      -0.747515       -20.3409 
  14   1.0000      -0.705396       -19.1948 
  15   1.0000      -0.647054       -17.6072 
  16   1.0000      -0.607945       -16.5430 
  17   1.0000      -0.581154       -15.8140 
  18   1.0000      -0.544767       -14.8239 
  19   1.0000      -0.502775       -13.6812 
  20   1.0000      -0.469586       -12.7781 
  21   1.0000      -0.449703       -12.2370 
  22   1.0000      -0.424498       -11.5512 
  23   1.0000      -0.415607       -11.3092 
  24   1.0000      -0.409566       -11.1449 
  25   1.0000      -0.404087       -10.9958 
  26   1.0000      -0.394106       -10.7242 
  27   1.0000      -0.373330       -10.1588 
  28   1.0000      -0.365315        -9.9407 
  29   1.0000      -0.363235        -9.8841 
  30   1.0000      -0.350296        -9.5320 
  31   1.0000      -0.344236        -9.3671 
  32   1.0000      -0.324872        -8.8402 
  33   1.0000      -0.290567        -7.9067 
  34   1.0000      -0.269626        -7.3369 
  35   0.0000      -0.204919        -5.5761 
  36   0.0000      -0.083499        -2.2721 
  37   0.0000      -0.057402        -1.5620 
  38   0.0000       0.000153         0.0042 
  39   0.0000       0.006459         0.1758 
  40   0.0000       0.017587         0.4786 
  41   0.0000       0.018937         0.5153 
  42   0.0000       0.031017         0.8440 
  43   0.0000       0.036073         0.9816 
  44   0.0000       0.037417         1.0182 
  45   0.0000       0.043520         1.1842 
*Only the first 10 virtual orbitals were printed.

                    ********************************
                    * MULLIKEN POPULATION ANALYSIS *
                    ********************************

--------------------------------------------
MULLIKEN ATOMIC CHARGES AND SPIN POPULATIONS
--------------------------------------------
   0 C :   -0.626314    0.072642
   1 C :   -1.097150   -0.057857
   2 C :    1.557749    0.319003
   3 C :   -0.834644   -0.057090
   4 C :   -0.888076    0.062566
   5 C :    2.364964    0.179312
   6 C :    0.009234    0.033968
   7 C :   -0.087779    0.348239
   8 C :   -0.769856   -0.040117
   9 H :    0.182806    0.040107
  10 H :    0.181030    0.039960
  11 H :    0.249438   -0.009227
  12 H :    0.256987    0.035114
  13 H :    0.025147    0.010596
  14 H :    0.098161    0.018185
  15 H :    0.194520   -0.003359
  16 C :   -0.639140   -0.044952
  17 H :    0.178864   -0.002546
  18 H :    0.253381    0.032722
  19 H :    0.202675    0.014799
  20 H :    0.251176    0.002094
  21 H :   -0.063176    0.005839
Sum of atomic charges         :    1.0000000
Sum of atomic spin populations:    1.0000000

-----------------------------------------------------
MULLIKEN REDUCED ORBITAL CHARGES AND SPIN POPULATIONS
-----------------------------------------------------
CHARGE
  0 C s       :     3.997031  s :     3.997031
      pz      :     0.905908  p :     2.642360
      px      :     0.768218
      py      :     0.968234
      dz2     :    -0.014229  d :     0.007816
      dxz     :     0.015411
      dyz     :    -0.009411
      dx2y2   :    -0.178869
      dxy     :     0.194914
      f0      :     0.000944  f :    -0.020894
      f+1     :     0.000624
      f-1     :    -0.000532
      f+2     :     0.000259
      f-2     :     0.000065
      f+3     :    -0.002648
      f-3     :    -0.019607

  1 C s       :     4.076534  s :     4.076534
      pz      :     0.951962  p :     2.956388
      px      :     1.175944
      py      :     0.828482
      dz2     :     0.008871  d :     0.081414
      dxz     :     0.003284
      dyz     :     0.029836
      dx2y2   :    -0.058840
      dxy     :     0.098264
      f0      :     0.001023  f :    -0.017187
      f+1     :    -0.000293
      f-1     :    -0.000001
      f+2     :     0.000952
      f-2     :    -0.001224
      f+3     :     0.002247
      f-3     :    -0.019890

  2 C s       :     3.075601  s :     3.075601
      pz      :     0.778460  p :     1.558660
      px      :     0.482096
      py      :     0.298104
      dz2     :    -0.036658  d :    -0.121041
      dxz     :    -0.030521
      dyz     :     0.000605
      dx2y2   :    -0.129872
      dxy     :     0.075406
      f0      :    -0.001097  f :    -0.070970
      f+1     :    -0.002837
      f-1     :    -0.000780
      f+2     :    -0.000397
      f-2     :    -0.000413
      f+3     :    -0.017951
      f-3     :    -0.047495

  3 C s       :     3.917868  s :     3.917868
      pz      :     0.963820  p :     2.833102
      px      :     0.947554
      py      :     0.921728
      dz2     :     0.003392  d :     0.098107
      dxz     :     0.014677
      dyz     :     0.023587
      dx2y2   :    -0.041719
      dxy     :     0.098170
      f0      :     0.000801  f :    -0.014433
      f+1     :     0.000759
      f-1     :     0.000517
      f+2     :     0.000448
      f-2     :    -0.000735
      f+3     :    -0.001201
      f-3     :    -0.015022

  4 C s       :     4.172256  s :     4.172256
      pz      :     0.873762  p :     2.623229
      px      :     0.877908
      py      :     0.871559
      dz2     :    -0.005839  d :     0.108709
      dxz     :     0.013757
      dyz     :     0.003052
      dx2y2   :    -0.053268
      dxy     :     0.151007
      f0      :     0.000930  f :    -0.016119
      f+1     :    -0.001505
      f-1     :     0.000181
      f+2     :     0.000910
      f-2     :     0.000441
      f+3     :     0.006225
      f-3     :    -0.023300

  5 C s       :     2.796895  s :     2.796895
      pz      :     0.896368  p :     1.334736
      px      :     0.106469
      py      :     0.331899
      dz2     :    -0.024352  d :    -0.400426
      dxz     :    -0.045067
      dyz     :    -0.017963
      dx2y2   :    -0.215196
      dxy     :    -0.097848
      f0      :     0.001764  f :    -0.096170
      f+1     :    -0.004239
      f-1     :    -0.001447
      f+2     :     0.000346
      f-2     :    -0.000632
      f+3     :    -0.031900
      f-3     :    -0.060062

  6 C s       :     3.747335  s :     3.747335
      pz      :     0.901019  p :     2.382165
      px      :     0.602634
      py      :     0.878511
      dz2     :     0.020250  d :    -0.103748
      dxz     :    -0.010313
      dyz     :     0.014686
      dx2y2   :    -0.076386
      dxy     :    -0.051987
      f0      :     0.000551  f :    -0.034985
      f+1     :    -0.000979
      f-1     :    -0.000827
      f+2     :     0.000876
      f-2     :     0.000096
      f+3     :    -0.007675
      f-3     :    -0.027028

  7 C s       :     3.694911  s :     3.694911
      pz      :     0.724412  p :     2.373302
      px      :     0.719768
      py      :     0.929121
      dz2     :    -0.004582  d :     0.031893
      dxz     :     0.009153
      dyz     :     0.011444
      dx2y2   :    -0.068467
      dxy     :     0.084345
      f0      :    -0.000265  f :    -0.012326
      f+1     :     0.000702
      f-1     :     0.000055
      f+2     :    -0.000873
      f-2     :     0.001628
      f+3     :    -0.003729
      f-3     :    -0.009844

  8 C s       :     3.601788  s :     3.601788
      pz      :     1.087983  p :     3.107871
      px      :     0.903800
      py      :     1.116087
      dz2     :     0.010436  d :     0.050907
      dxz     :     0.008525
      dyz     :     0.012938
      dx2y2   :     0.019268
      dxy     :    -0.000260
      f0      :     0.001665  f :     0.009291
      f+1     :     0.000314
      f-1     :     0.002319
      f+2     :     0.000826
      f-2     :     0.000629
      f+3     :     0.000810
      f-3     :     0.002730

  9 H s       :     0.752812  s :     0.752812
      pz      :     0.016887  p :     0.056054
      px      :     0.023297
      py      :     0.015871
      dz2     :     0.003056  d :     0.008327
      dxz     :     0.000795
      dyz     :     0.000859
      dx2y2   :     0.003243
      dxy     :     0.000374

 10 H s       :     0.754155  s :     0.754155
      pz      :     0.016929  p :     0.056452
      px      :     0.023654
      py      :     0.015869
      dz2     :     0.003060  d :     0.008363
      dxz     :     0.000850
      dyz     :     0.000811
      dx2y2   :     0.003273
      dxy     :     0.000369

 11 H s       :     0.696704  s :     0.696704
      pz      :     0.016345  p :     0.045122
      px      :     0.016776
      py      :     0.012001
      dz2     :     0.000105  d :     0.008735
      dxz     :     0.000407
      dyz     :     0.003856
      dx2y2   :     0.000518
      dxy     :     0.003847

 12 H s       :     0.736546  s :     0.736546
      pz      :     0.021702  p :     0.000130
      px      :    -0.020548
      py      :    -0.001023
      dz2     :     0.000175  d :     0.006336
      dxz     :     0.000317
      dyz     :     0.003974
      dx2y2   :    -0.000409
      dxy     :     0.002279

 13 H s       :     0.980958  s :     0.980958
      pz      :     0.021547  p :    -0.013980
      px      :    -0.023465
      py      :    -0.012062
      dz2     :     0.000071  d :     0.007875
      dxz     :     0.000951
      dyz     :     0.004089
      dx2y2   :    -0.000120
      dxy     :     0.002884

 14 H s       :     0.864754  s :     0.864754
      pz      :     0.019055  p :     0.027245
      px      :    -0.018910
      py      :     0.027100
      dz2     :    -0.000574  d :     0.009839
      dxz     :     0.000637
      dyz     :     0.005044
      dx2y2   :     0.003917
      dxy     :     0.000815

 15 H s       :     0.750412  s :     0.750412
      pz      :     0.028472  p :     0.047267
      px      :    -0.002236
      py      :     0.021031
      dz2     :    -0.000450  d :     0.007800
      dxz     :     0.002055
      dyz     :     0.003395
      dx2y2   :     0.002145
      dxy     :     0.000656

 16 C s       :     3.577245  s :     3.577245
      pz      :     1.091922  p :     3.043308
      px      :     0.818468
      py      :     1.132917
      dz2     :     0.013481  d :     0.009567
      dxz     :    -0.012534
      dyz     :     0.017143
      dx2y2   :    -0.000045
      dxy     :    -0.008478
      f0      :     0.002934  f :     0.009020
      f+1     :    -0.000824
      f-1     :     0.001103
      f+2     :     0.002396
      f-2     :     0.000449
      f+3     :     0.002253
      f-3     :     0.000710

 17 H s       :     0.764151  s :     0.764151
      pz      :     0.016034  p :     0.047020
      px      :     0.020771
      py      :     0.010215
      dz2     :     0.001040  d :     0.009964
      dxz     :     0.000738
      dyz     :     0.002610
      dx2y2   :     0.004327
      dxy     :     0.001248

 18 H s       :     0.690964  s :     0.690964
      pz      :     0.011746  p :     0.047784
      px      :     0.017651
      py      :     0.018387
      dz2     :     0.001286  d :     0.007871
      dxz     :     0.002362
      dyz     :     0.002465
      dx2y2   :     0.001298
      dxy     :     0.000460

 19 H s       :     0.739804  s :     0.739804
      pz      :     0.010807  p :     0.048270
      px      :     0.022493
      py      :     0.014970
      dz2     :     0.003946  d :     0.009251
      dxz     :     0.000887
      dyz     :    -0.000550
      dx2y2   :     0.002049
      dxy     :     0.002919

 20 H s       :     0.683340  s :     0.683340
      pz      :     0.027774  p :     0.056901
      px      :     0.016363
      py      :     0.012764
      dz2     :     0.000106  d :     0.008584
      dxz     :     0.000775
      dyz     :     0.004800
      dx2y2   :     0.001149
      dxy     :     0.001753

 21 H s       :     1.077550  s :     1.077550
      pz      :     0.020256  p :    -0.021682
      px      :    -0.051700
      py      :     0.009762
      dz2     :    -0.000313  d :     0.007308
      dxz     :     0.002022
      dyz     :     0.003806
      dx2y2   :     0.001226
      dxy     :     0.000567


SPIN
  0 C s       :     0.016090  s :     0.016090
      pz      :     0.092107  p :     0.067787
      px      :    -0.026148
      py      :     0.001827
      dz2     :     0.000183  d :    -0.009403
      dxz     :    -0.001589
      dyz     :     0.002991
      dx2y2   :    -0.002258
      dxy     :    -0.008730
      f0      :    -0.000333  f :    -0.001832
      f+1     :    -0.000071
      f-1     :    -0.000083
      f+2     :    -0.000285
      f-2     :    -0.000509
      f+3     :    -0.000110
      f-3     :    -0.000440

  1 C s       :    -0.002701  s :    -0.002701
      pz      :    -0.040985  p :    -0.062357
      px      :    -0.021180
      py      :    -0.000191
      dz2     :    -0.000033  d :     0.008500
      dxz     :     0.003623
      dyz     :     0.000130
      dx2y2   :     0.005649
      dxy     :    -0.000870
      f0      :    -0.000047  f :    -0.001299
      f+1     :     0.000055
      f-1     :     0.000157
      f+2     :     0.000078
      f-2     :    -0.000337
      f+3     :    -0.000750
      f-3     :    -0.000455

  2 C s       :     0.017009  s :     0.017009
      pz      :     0.239751  p :     0.291137
      px      :     0.028127
      py      :     0.023258
      dz2     :    -0.000659  d :     0.012923
      dxz     :     0.004474
      dyz     :     0.003453
      dx2y2   :     0.003231
      dxy     :     0.002425
      f0      :    -0.000353  f :    -0.002066
      f+1     :    -0.000237
      f-1     :    -0.000322
      f+2     :     0.000182
      f-2     :    -0.000280
      f+3     :     0.000070
      f-3     :    -0.001126

  3 C s       :    -0.007544  s :    -0.007544
      pz      :    -0.034331  p :    -0.049882
      px      :    -0.014242
      py      :    -0.001309
      dz2     :     0.000109  d :     0.001658
      dxz     :     0.001221
      dyz     :     0.002709
      dx2y2   :    -0.000261
      dxy     :    -0.002121
      f0      :    -0.000069  f :    -0.001322
      f+1     :     0.000025
      f-1     :     0.000155
      f+2     :     0.000062
      f-2     :    -0.000276
      f+3     :    -0.000473
      f-3     :    -0.000746

  4 C s       :    -0.003600  s :    -0.003600
      pz      :     0.089722  p :     0.069961
      px      :    -0.020501
      py      :     0.000739
      dz2     :    -0.000999  d :    -0.001973
      dxz     :     0.001734
      dyz     :     0.001827
      dx2y2   :    -0.001279
      dxy     :    -0.003255
      f0      :    -0.000413  f :    -0.001821
      f+1     :    -0.000232
      f-1     :    -0.000005
      f+2     :    -0.000036
      f-2     :    -0.000417
      f+3     :    -0.000527
      f-3     :    -0.000191

  5 C s       :     0.037831  s :     0.037831
      pz      :     0.123240  p :     0.147432
      px      :     0.004557
      py      :     0.019635
      dz2     :    -0.000232  d :    -0.002819
      dxz     :    -0.004567
      dyz     :     0.002622
      dx2y2   :    -0.003005
      dxy     :     0.002364
      f0      :    -0.000367  f :    -0.003133
      f+1     :    -0.000147
      f-1     :    -0.000112
      f+2     :    -0.000152
      f-2     :    -0.000160
      f+3     :     0.000136
      f-3     :    -0.002331

  6 C s       :    -0.018421  s :    -0.018421
      pz      :     0.047947  p :     0.049873
      px      :    -0.004394
      py      :     0.006319
      dz2     :     0.000241  d :     0.004311
      dxz     :     0.003322
      dyz     :     0.001888
      dx2y2   :     0.002205
      dxy     :    -0.003344
      f0      :    -0.000117  f :    -0.001796
      f+1     :    -0.000102
      f-1     :    -0.000007
      f+2     :    -0.000052
      f-2     :     0.000416
      f+3     :    -0.000217
      f-3     :    -0.001716

  7 C s       :    -0.040207  s :    -0.040207
      pz      :     0.357695  p :     0.384376
      px      :     0.038041
      py      :    -0.011360
      dz2     :    -0.003898  d :     0.007352
      dxz     :     0.004974
      dyz     :     0.004553
      dx2y2   :    -0.001691
      dxy     :     0.003415
      f0      :    -0.000704  f :    -0.003283
      f+1     :    -0.000440
      f-1     :    -0.000629
      f+2     :    -0.000269
      f-2     :    -0.000069
      f+3     :    -0.000442
      f-3     :    -0.000730

  8 C s       :    -0.037566  s :    -0.037566
      pz      :    -0.004194  p :    -0.012288
      px      :    -0.002825
      py      :    -0.005269
      dz2     :     0.000693  d :     0.008958
      dxz     :     0.008199
      dyz     :     0.000102
      dx2y2   :     0.001591
      dxy     :    -0.001626
      f0      :     0.000537  f :     0.000779
      f+1     :     0.000205
      f-1     :     0.000028
      f+2     :    -0.000219
      f-2     :     0.000642
      f+3     :    -0.000244
      f-3     :    -0.000170

  9 H s       :     0.035382  s :     0.035382
      pz      :     0.001280  p :     0.004145
      px      :     0.002530
      py      :     0.000335
      dz2     :     0.000185  d :     0.000581
      dxz     :     0.000066
      dyz     :     0.000038
      dx2y2   :     0.000256
      dxy     :     0.000036

 10 H s       :     0.035210  s :     0.035210
      pz      :     0.001308  p :     0.004177
      px      :     0.002538
      py      :     0.000331
      dz2     :     0.000183  d :     0.000573
      dxz     :     0.000066
      dyz     :     0.000037
      dx2y2   :     0.000252
      dxy     :     0.000036

 11 H s       :    -0.008593  s :    -0.008593
      pz      :    -0.001155  p :    -0.000986
      px      :     0.000249
      py      :    -0.000080
      dz2     :     0.000121  d :     0.000352
      dxz     :     0.000095
      dyz     :     0.000058
      dx2y2   :     0.000043
      dxy     :     0.000034

 12 H s       :     0.023793  s :     0.023793
      pz      :     0.008404  p :     0.010605
      px      :     0.002256
      py      :    -0.000055
      dz2     :     0.000092  d :     0.000716
      dxz     :     0.000047
      dyz     :     0.001101
      dx2y2   :    -0.000298
      dxy     :    -0.000227

 13 H s       :     0.010799  s :     0.010799
      pz      :    -0.001450  p :    -0.000183
      px      :    -0.003221
      py      :     0.004488
      dz2     :     0.000085  d :    -0.000020
      dxz     :    -0.000203
      dyz     :     0.000109
      dx2y2   :    -0.000044
      dxy     :     0.000033

 14 H s       :     0.015958  s :     0.015958
      pz      :     0.001768  p :     0.001909
      px      :    -0.000618
      py      :     0.000758
      dz2     :     0.000035  d :     0.000318
      dxz     :    -0.000073
      dyz     :     0.000327
      dx2y2   :    -0.000015
      dxy     :     0.000045

 15 H s       :    -0.001594  s :    -0.001594
      pz      :    -0.002618  p :    -0.001724
      px      :    -0.000508
      py      :     0.001402
      dz2     :     0.000031  d :    -0.000041
      dxz     :    -0.000156
      dyz     :    -0.000117
      dx2y2   :     0.000025
      dxy     :     0.000176

 16 C s       :    -0.044879  s :    -0.044879
      pz      :     0.000267  p :    -0.008406
      px      :    -0.006413
      py      :    -0.002260
      dz2     :     0.000891  d :     0.007457
      dxz     :     0.006002
      dyz     :     0.000953
      dx2y2   :     0.000601
      dxy     :    -0.000991
      f0      :     0.000454  f :     0.000876
      f+1     :     0.000251
      f-1     :     0.000032
      f+2     :     0.000388
      f-2     :    -0.000004
      f+3     :    -0.000125
      f-3     :    -0.000119

 17 H s       :    -0.001834  s :    -0.001834
      pz      :    -0.000860  p :    -0.000796
      px      :     0.000407
      py      :    -0.000343
      dz2     :     0.000069  d :     0.000085
      dxz     :    -0.000098
      dyz     :     0.000083
      dx2y2   :     0.000064
      dxy     :    -0.000033

 18 H s       :     0.031078  s :     0.031078
      pz      :     0.000005  p :     0.001190
      px      :     0.000748
      py      :     0.000438
      dz2     :     0.000113  d :     0.000453
      dxz     :     0.000185
      dyz     :     0.000079
      dx2y2   :     0.000028
      dxy     :     0.000049

 19 H s       :     0.013506  s :     0.013506
      pz      :    -0.000391  p :     0.000883
      px      :     0.001206
      py      :     0.000068
      dz2     :     0.000126  d :     0.000411
      dxz     :    -0.000048
      dyz     :     0.000043
      dx2y2   :     0.000062
      dxy     :     0.000227

 20 H s       :     0.003808  s :     0.003808
      pz      :    -0.002788  p :    -0.001698
      px      :    -0.001349
      py      :     0.002439
      dz2     :     0.000013  d :    -0.000016
      dxz     :    -0.000125
      dyz     :    -0.000154
      dx2y2   :     0.000035
      dxy     :     0.000214

 21 H s       :     0.000553  s :     0.000553
      pz      :     0.001326  p :     0.004703
      px      :     0.003523
      py      :    -0.000146
      dz2     :     0.000089  d :     0.000583
      dxz     :     0.000142
      dyz     :     0.000199
      dx2y2   :     0.000018
      dxy     :     0.000135



                     *******************************
                     * LOEWDIN POPULATION ANALYSIS *
                     *******************************

-------------------------------------------
LOEWDIN ATOMIC CHARGES AND SPIN POPULATIONS
-------------------------------------------
   0 C :    0.269417    0.062731
   1 C :    0.271840    0.029581
   2 C :   -0.075965    0.131775
   3 C :    0.274503    0.035908
   4 C :    0.267214    0.065665
   5 C :   -0.082221    0.110453
   6 C :    0.289887    0.111352
   7 C :    0.303823    0.218715
   8 C :    0.616461    0.071327
   9 H :   -0.137880    0.016399
  10 H :   -0.137879    0.016404
  11 H :   -0.154223    0.001389
  12 H :   -0.149731    0.037102
  13 H :   -0.151105    0.007187
  14 H :   -0.143496    0.009373
  15 H :   -0.147432   -0.002228
  16 C :    0.617093    0.047468
  17 H :   -0.153856    0.002023
  18 H :   -0.130135    0.014312
  19 H :   -0.142093    0.008268
  20 H :   -0.142744   -0.003408
  21 H :   -0.161477    0.008203

----------------------------------------------------
LOEWDIN REDUCED ORBITAL CHARGES AND SPIN POPULATIONS
----------------------------------------------------
CHARGE
  0 C s       :     2.481036  s :     2.481036
      pz      :     0.563526  p :     2.237803
      px      :     0.852413
      py      :     0.821863
      dz2     :     0.069488  d :     0.680860
      dxz     :     0.092609
      dyz     :     0.061926
      dx2y2   :     0.190303
      dxy     :     0.266533
      f0      :     0.021207  f :     0.330884
      f+1     :     0.028041
      f-1     :     0.023240
      f+2     :     0.044850
      f-2     :     0.019172
      f+3     :     0.070097
      f-3     :     0.124278

  1 C s       :     2.483776  s :     2.483776
      pz      :     0.585697  p :     2.258326
      px      :     0.849131
      py      :     0.823497
      dz2     :     0.066849  d :     0.660159
      dxz     :     0.089905
      dyz     :     0.045446
      dx2y2   :     0.228425
      dxy     :     0.229533
      f0      :     0.020902  f :     0.325899
      f+1     :     0.029994
      f-1     :     0.021208
      f+2     :     0.032215
      f-2     :     0.026785
      f+3     :     0.071570
      f-3     :     0.123226

  2 C s       :     2.472205  s :     2.472205
      pz      :     0.515635  p :     2.180455
      px      :     0.813260
      py      :     0.851560
      dz2     :     0.083309  d :     0.930640
      dxz     :     0.151488
      dyz     :     0.116334
      dx2y2   :     0.302838
      dxy     :     0.276671
      f0      :     0.034001  f :     0.492665
      f+1     :     0.029767
      f-1     :     0.032350
      f+2     :     0.047936
      f-2     :     0.066981
      f+3     :     0.087538
      f-3     :     0.194091

  3 C s       :     2.484741  s :     2.484741
      pz      :     0.586014  p :     2.260837
      px      :     0.849209
      py      :     0.825613
      dz2     :     0.068015  d :     0.655286
      dxz     :     0.071976
      dyz     :     0.056960
      dx2y2   :     0.190271
      dxy     :     0.268064
      f0      :     0.020559  f :     0.324633
      f+1     :     0.027953
      f-1     :     0.023856
      f+2     :     0.043164
      f-2     :     0.014806
      f+3     :     0.070437
      f-3     :     0.123858

  4 C s       :     2.484928  s :     2.484928
      pz      :     0.557880  p :     2.233114
      px      :     0.854548
      py      :     0.820686
      dz2     :     0.069192  d :     0.681141
      dxz     :     0.108557
      dyz     :     0.045249
      dx2y2   :     0.230532
      dxy     :     0.227612
      f0      :     0.021239  f :     0.333603
      f+1     :     0.030966
      f-1     :     0.020936
      f+2     :     0.029667
      f-2     :     0.034160
      f+3     :     0.073519
      f-3     :     0.123116

  5 C s       :     2.468507  s :     2.468507
      pz      :     0.566384  p :     2.233280
      px      :     0.834563
      py      :     0.832332
      dz2     :     0.088700  d :     0.900592
      dxz     :     0.122556
      dyz     :     0.112856
      dx2y2   :     0.294937
      dxy     :     0.281543
      f0      :     0.030122  f :     0.479843
      f+1     :     0.035212
      f-1     :     0.033295
      f+2     :     0.033380
      f-2     :     0.057958
      f+3     :     0.101661
      f-3     :     0.188215

  6 C s       :     2.491644  s :     2.491644
      pz      :     0.556521  p :     2.235135
      px      :     0.849673
      py      :     0.828940
      dz2     :     0.070881  d :     0.666943
      dxz     :     0.100741
      dyz     :     0.026290
      dx2y2   :     0.247068
      dxy     :     0.221963
      f0      :     0.020864  f :     0.316391
      f+1     :     0.032051
      f-1     :     0.019463
      f+2     :     0.023386
      f-2     :     0.024267
      f+3     :     0.093209
      f-3     :     0.103151

  7 C s       :     2.499662  s :     2.499662
      pz      :     0.480663  p :     2.162857
      px      :     0.835464
      py      :     0.846730
      dz2     :     0.064576  d :     0.715042
      dxz     :     0.156134
      dyz     :     0.022741
      dx2y2   :     0.256807
      dxy     :     0.214785
      f0      :     0.025978  f :     0.318616
      f+1     :     0.023914
      f-1     :     0.018840
      f+2     :     0.038667
      f-2     :     0.025281
      f+3     :     0.093239
      f-3     :     0.092698

  8 C s       :     2.462118  s :     2.462118
      pz      :     0.759863  p :     2.281802
      px      :     0.744715
      py      :     0.777224
      dz2     :     0.077220  d :     0.464801
      dxz     :     0.096533
      dyz     :     0.039525
      dx2y2   :     0.125226
      dxy     :     0.126297
      f0      :     0.011233  f :     0.174818
      f+1     :     0.026781
      f-1     :     0.015959
      f+2     :     0.019280
      f-2     :     0.011621
      f+3     :     0.036565
      f-3     :     0.053379

  9 H s       :     0.609044  s :     0.609044
      pz      :     0.127067  p :     0.306242
      px      :     0.085760
      py      :     0.093414
      dz2     :     0.077031  d :     0.222595
      dxz     :     0.041390
      dyz     :     0.043349
      dx2y2   :     0.043892
      dxy     :     0.016933

 10 H s       :     0.609053  s :     0.609053
      pz      :     0.127037  p :     0.306236
      px      :     0.085556
      py      :     0.093643
      dz2     :     0.077029  d :     0.222590
      dxz     :     0.041589
      dyz     :     0.043153
      dx2y2   :     0.043914
      dxy     :     0.016905

 11 H s       :     0.622757  s :     0.622757
      pz      :     0.083226  p :     0.309140
      px      :     0.079158
      py      :     0.146756
      dz2     :     0.016416  d :     0.222327
      dxz     :     0.003068
      dyz     :     0.080063
      dx2y2   :     0.055460
      dxy     :     0.067320

 12 H s       :     0.632145  s :     0.632145
      pz      :     0.058004  p :     0.299195
      px      :     0.097204
      py      :     0.143988
      dz2     :     0.026541  d :     0.218391
      dxz     :     0.006353
      dyz     :     0.046827
      dx2y2   :     0.064150
      dxy     :     0.074520

 13 H s       :     0.624356  s :     0.624356
      pz      :     0.067151  p :     0.302078
      px      :     0.091939
      py      :     0.142988
      dz2     :     0.026234  d :     0.224671
      dxz     :     0.007399
      dyz     :     0.052217
      dx2y2   :     0.064303
      dxy     :     0.074518

 14 H s       :     0.636726  s :     0.636726
      pz      :     0.070004  p :     0.292995
      px      :     0.092136
      py      :     0.130855
      dz2     :     0.024105  d :     0.213775
      dxz     :     0.012718
      dyz     :     0.046354
      dx2y2   :     0.065270
      dxy     :     0.065327

 15 H s       :     0.641297  s :     0.641297
      pz      :     0.072751  p :     0.292399
      px      :     0.104376
      py      :     0.115272
      dz2     :     0.023669  d :     0.213736
      dxz     :     0.025462
      dyz     :     0.035319
      dx2y2   :     0.078726
      dxy     :     0.050560

 16 C s       :     2.451855  s :     2.451855
      pz      :     0.761745  p :     2.278184
      px      :     0.740027
      py      :     0.776413
      dz2     :     0.080726  d :     0.473285
      dxz     :     0.081373
      dyz     :     0.061053
      dx2y2   :     0.100558
      dxy     :     0.149575
      f0      :     0.016516  f :     0.179583
      f+1     :     0.024171
      f-1     :     0.012791
[...]
      dxy     :     0.001831
      f0      :     0.001982  f :     0.023013
      f+1     :    -0.000276
      f-1     :    -0.000223
      f+2     :     0.005759
      f-2     :     0.014570
      f+3     :     0.000793
      f-3     :     0.000407

  7 C s       :     0.008121  s :     0.008121
      pz      :     0.198889  p :     0.204755
      px      :     0.002891
      py      :     0.002976
      dz2     :    -0.002192  d :     0.005654
      dxz     :     0.008016
      dyz     :     0.001222
      dx2y2   :    -0.001222
      dxy     :    -0.000171
      f0      :    -0.002449  f :     0.000185
      f+1     :    -0.000275
      f-1     :    -0.000586
      f+2     :     0.003016
      f-2     :     0.001041
      f+3     :    -0.000138
      f-3     :    -0.000424

  8 C s       :    -0.000892  s :    -0.000892
      pz      :     0.005824  p :    -0.001041
      px      :    -0.005712
      py      :    -0.001153
      dz2     :     0.000745  d :     0.052036
      dxz     :     0.047519
      dyz     :     0.001767
      dx2y2   :     0.001514
      dxy     :     0.000491
      f0      :     0.006814  f :     0.021225
      f+1     :     0.000201
      f-1     :     0.000112
      f+2     :     0.009722
      f-2     :     0.003466
      f+3     :     0.000484
      f-3     :     0.000426

  9 H s       :     0.014951  s :     0.014951
      pz      :     0.000152  p :     0.000980
      px      :     0.000609
      py      :     0.000218
      dz2     :    -0.000012  d :     0.000469
      dxz     :    -0.000247
      dyz     :    -0.000019
      dx2y2   :     0.000802
      dxy     :    -0.000056

 10 H s       :     0.014955  s :     0.014955
      pz      :     0.000165  p :     0.000978
      px      :     0.000594
      py      :     0.000219
      dz2     :    -0.000012  d :     0.000471
      dxz     :    -0.000248
      dyz     :    -0.000021
      dx2y2   :     0.000808
      dxy     :    -0.000056

 11 H s       :     0.000132  s :     0.000132
      pz      :    -0.000143  p :    -0.000759
      px      :    -0.000577
      py      :    -0.000038
      dz2     :    -0.000001  d :     0.002016
      dxz     :     0.001493
      dyz     :     0.001070
      dx2y2   :    -0.000009
      dxy     :    -0.000537

 12 H s       :    -0.005577  s :    -0.005577
      pz      :     0.019575  p :     0.022049
      px      :    -0.000054
      py      :     0.002528
      dz2     :    -0.000127  d :     0.020631
      dxz     :     0.000196
      dyz     :     0.019365
      dx2y2   :     0.000846
      dxy     :     0.000350

 13 H s       :    -0.000539  s :    -0.000539
      pz      :     0.002274  p :     0.002225
      px      :    -0.000338
      py      :     0.000289
      dz2     :    -0.000018  d :     0.005501
      dxz     :    -0.000138
      dyz     :     0.005910
      dx2y2   :    -0.000006
      dxy     :    -0.000247

 14 H s       :    -0.001592  s :    -0.001592
      pz      :     0.005241  p :     0.005665
      px      :    -0.000118
      py      :     0.000541
      dz2     :    -0.000029  d :     0.005300
      dxz     :    -0.000420
      dyz     :     0.005617
      dx2y2   :     0.000055
      dxy     :     0.000077

 15 H s       :     0.000384  s :     0.000384
      pz      :    -0.001783  p :    -0.002256
      px      :    -0.000298
      py      :    -0.000175
      dz2     :     0.000004  d :    -0.000356
      dxz     :    -0.001341
      dyz     :     0.001356
      dx2y2   :    -0.000279
      dxy     :    -0.000098

 16 C s       :    -0.000570  s :    -0.000570
      pz      :     0.005226  p :     0.000779
      px      :    -0.003502
      py      :    -0.000945
      dz2     :     0.001843  d :     0.033011
      dxz     :     0.025282
      dyz     :     0.004213
      dx2y2   :     0.001243
      dxy     :     0.000430
      f0      :     0.004924  f :     0.014247
      f+1     :     0.000149
      f-1     :     0.000138
      f+2     :     0.008136
      f-2     :     0.000116
      f+3     :     0.000529
      f-3     :     0.000255

 17 H s       :     0.000741  s :     0.000741
      pz      :     0.000210  p :    -0.000097
      px      :    -0.000290
      py      :    -0.000017
      dz2     :     0.000127  d :     0.001379
      dxz     :     0.000141
      dyz     :     0.001326
      dx2y2   :    -0.000058
      dxy     :    -0.000157

 18 H s       :     0.013130  s :     0.013130
      pz      :     0.000250  p :     0.001028
      px      :     0.000769
      py      :     0.000009
      dz2     :    -0.000082  d :     0.000153
      dxz     :    -0.000249
      dyz     :     0.000002
      dx2y2   :     0.000335
      dxy     :     0.000148

 19 H s       :     0.007101  s :     0.007101
      pz      :     0.000095  p :     0.000505
      px      :     0.000249
      py      :     0.000161
      dz2     :     0.000220  d :     0.000662
      dxz     :    -0.000050
      dyz     :    -0.000019
      dx2y2   :     0.000342
      dxy     :     0.000168

 20 H s       :     0.000509  s :     0.000509
      pz      :    -0.002426  p :    -0.002955
      px      :    -0.000292
      py      :    -0.000237
      dz2     :     0.000006  d :    -0.000962
      dxz     :    -0.000522
      dyz     :    -0.000043
      dx2y2   :    -0.000232
      dxy     :    -0.000172

 21 H s       :    -0.001531  s :    -0.001531
      pz      :     0.004305  p :     0.004519
      px      :    -0.000164
      py      :     0.000378
      dz2     :    -0.000073  d :     0.005214
      dxz     :     0.000922
      dyz     :     0.004362
      dx2y2   :    -0.000183
      dxy     :     0.000187



                      *****************************
                      * MAYER POPULATION ANALYSIS *
                      *****************************

  NA   - Mulliken gross atomic population
  ZA   - Total nuclear charge
  QA   - Mulliken gross atomic charge
  VA   - Mayer's total valence
  BVA  - Mayer's bonded valence
  FA   - Mayer's free valence

  ATOM       NA         ZA         QA         VA         BVA        FA
  0 C      6.6263     6.0000    -0.6263     2.1984     2.1870     0.0113
  1 C      7.0971     6.0000    -1.0971     2.2251     2.2230     0.0021
  2 C      4.4423     6.0000     1.5577     1.2625     1.2036     0.0589
  3 C      6.8346     6.0000    -0.8346     2.2944     2.2920     0.0024
  4 C      6.8881     6.0000    -0.8881     1.9457     1.9352     0.0105
  5 C      3.6350     6.0000     2.3650    -0.7921    -0.8146     0.0225
  6 C      5.9908     6.0000     0.0092     2.3355     2.3265     0.0090
  7 C      6.0878     6.0000    -0.0878     2.4684     2.3303     0.1381
  8 C      6.7699     6.0000    -0.7699     3.5470     3.5429     0.0041
  9 H      0.8172     1.0000     0.1828     1.0494     1.0483     0.0011
 10 H      0.8190     1.0000     0.1810     1.0526     1.0515     0.0011
 11 H      0.7506     1.0000     0.2494     0.9654     0.9653     0.0000
 12 H      0.7430     1.0000     0.2570     0.7373     0.7364     0.0009
 13 H      0.9749     1.0000     0.0251     0.9959     0.9957     0.0002
 14 H      0.9018     1.0000     0.0982     1.1240     1.1237     0.0003
 15 H      0.8055     1.0000     0.1945     1.0678     1.0678     0.0000
 16 C      6.6391     6.0000    -0.6391     3.3424     3.3395     0.0029
 17 H      0.8211     1.0000     0.1789     1.0200     1.0200     0.0000
 18 H      0.7466     1.0000     0.2534     0.9415     0.9406     0.0009
 19 H      0.7973     1.0000     0.2027     0.9893     0.9891     0.0002
 20 H      0.7488     1.0000     0.2512     0.9930     0.9930     0.0000
 21 H      1.0632     1.0000    -0.0632     0.9001     0.9001     0.0001

  Mayer bond orders larger than 0.100000
B(  0-C ,  1-C ) :   1.0861 B(  0-C ,  2-C ) :   0.1576 B(  0-C ,  3-C ) :  -0.1707 
B(  0-C ,  4-C ) :  -0.5838 B(  0-C ,  6-C ) :   0.1377 B(  0-C , 21-H ) :   1.5531 
B(  1-C ,  2-C ) :   0.4992 B(  1-C ,  4-C ) :  -0.1328 B(  1-C ,  7-C ) :  -0.1170 
B(  1-C , 14-H ) :  -0.1050 B(  1-C , 16-C ) :   0.1113 B(  1-C , 20-H ) :   0.9152 
B(  1-C , 21-H ) :  -0.1519 B(  2-C ,  3-C ) :   0.4091 B(  2-C ,  6-C ) :   0.1367 
B(  2-C , 14-H ) :  -0.1350 B(  2-C , 16-C ) :   0.2698 B(  2-C , 21-H ) :  -0.1331 
B(  3-C ,  4-C ) :   1.5168 B(  3-C ,  5-C ) :  -0.1302 B(  3-C , 15-H ) :   1.0239 
B(  3-C , 16-C ) :  -0.1560 B(  3-C , 21-H ) :  -0.1168 B(  4-C ,  5-C ) :  -0.4213 
B(  4-C ,  7-C ) :   0.1727 B(  4-C , 14-H ) :   1.3766 B(  5-C ,  6-C ) :   0.2824 
B(  5-C ,  7-C ) :  -0.1153 B(  5-C , 12-H ) :  -0.1463 B(  5-C , 14-H ) :  -0.1381 
B(  5-C , 21-H ) :  -0.2279 B(  6-C ,  7-C ) :   0.6710 B(  6-C , 13-H ) :   1.2198 
B(  6-C , 14-H ) :  -0.1006 B(  7-C ,  8-C ) :   0.6344 B(  7-C , 12-H ) :   1.1861 
B(  7-C , 13-H ) :  -0.1671 B(  8-C ,  9-H ) :   1.0292 B(  8-C , 10-H ) :   1.0284 
B(  8-C , 11-H ) :   0.9407 B(  8-C , 12-H ) :  -0.1933 B( 14-H , 21-H ) :   0.1257 
B( 16-C , 17-H ) :   1.0246 B( 16-C , 18-H ) :   0.9486 B( 16-C , 19-H ) :   0.9992 


-------
TIMINGS
-------

Total SCF time: 0 days 0 hours 7 min 24 sec 

Total time                  ....     444.341 sec
Sum of individual times     ....     444.027 sec  ( 99.9%)

SCF preparation             ....       1.326 sec  (  0.3%)
Fock matrix formation       ....     417.104 sec  ( 93.9%)
  Startup                   ....       1.829 sec  (  0.4% of F)
  Split-RI-J                ....      26.063 sec  (  6.2% of F)
  XC integration            ....     370.716 sec  ( 88.9% of F)
    XC Preparation          ....       0.000 sec  (  0.0% of XC)
    Basis function eval.    ....      22.636 sec  (  6.1% of XC)
    Density eval.           ....     106.460 sec  ( 28.7% of XC)
    XC-Functional eval.     ....       2.045 sec  (  0.6% of XC)
    XC-Potential eval.      ....     228.099 sec  ( 61.5% of XC)
  CPCM terms                ....      13.137 sec  (  3.1% of F)
Diagonalization             ....       0.000 sec  (  0.0%)
Density matrix formation    ....       4.313 sec  (  1.0%)
Total Energy calculation    ....       1.728 sec  (  0.4%)
Population analysis         ....       0.679 sec  (  0.2%)
Orbital Transformation      ....       2.282 sec  (  0.5%)
Orbital Orthonormalization  ....       0.000 sec  (  0.0%)
DIIS solution               ....      11.488 sec  (  2.6%)
SOSCF solution              ....       5.106 sec  (  1.1%)
Finished LeanSCF after 444.8 sec

Maximum memory used throughout the entire LEANSCF-calculation: 95.2 MB


-------------------------------------------------------------------------------
                          DFT DISPERSION CORRECTION                            
                                                                               
                              DFTD3 V3.1  Rev 1                                
                          USING Becke-Johnson damping                          
-------------------------------------------------------------------------------
The R2SCAN functional is recognized
Active option DFTDOPT                   ...         4   

molecular C6(AA) [au] = 4877.073550 


            DFT-D V3
 parameters
 s6 scaling factor         :     1.0000 
 a1 scaling factor         :     0.4948 
 s8 scaling factor         :     0.7898 
 a2 scaling factor         :     5.7308 
 ad hoc parameters k1-k3   :    16.0000     1.3333    -4.0000 

 Edisp/kcal,au: -4.186353035381  -0.006671377504 
 E6   /kcal   :  -3.292207552 
 E8   /kcal   :  -0.894145484 
 % E8         :  21.358578129 

-------------------------   ----------------
Dispersion correction           -0.006671378
-------------------------   ----------------


-------------------------   --------------------
FINAL SINGLE POINT ENERGY      -387.997674777375
-------------------------   --------------------



           ************************************************************
           *        Program running with 4 parallel MPI-processes     *
           *              working on a common directory               *
           ************************************************************

------------------------------------------------------------------------------
                              ORCA PROPERTY CALCULATIONS
------------------------------------------------------------------------------

GBWName                                 ... cs_rporg_017_ox_solv_03.gbw
Number of atoms                         ...     22
Number of basis functions               ...    796
Max core memory                         ...   3000 MB

Electric properties:
Dipole moment                           ... YES
Quadrupole moment                       ...  NO
Static polarizability (Dipole/Dipole)   ...  NO
Static polarizability (Dipole/Quad.)    ...  NO
Static polarizability (Quad./Quad.)     ...  NO
Static polarizability (Velocity)        ...  NO

Atomic electric properties:
Dipole moment                           ...  NO
Quadrupole moment                       ...  NO
Static polarizability                   ...  NO

Choice of electric origin               ... Center of mass
Position of electric origin             ...    -0.000144     0.016133     0.004918

General magnetic properties:
Magnetizability                         ...  NO

EPR properties:
g-Tensor (aka g-matrix)                 ...  NO
Zero-Field splitting spin-orbit         ...  NO
Zero-field splitting spin-spin          ...  NO
Hyperfine couplings                     ...  NO (   0 nuclei)
Quadrupole couplings                    ...  NO (   0 nuclei)
Contact density                         ...  NO (   0 nuclei)

NMR properties:
Chemical shifts                         ...  NO (   0 nuclei)
Spin-rotation constants                 ...  NO (   0 nuclei)
Spin-spin couplings                     ...  NO (   0 nuclei,    0 pairs)

Choice of magnetic origin               ... GIAO
Position of magnetic origin             ...     0.000000     0.000000     0.000000

Properties with geometric perturbations:
SCF Hessian                             ...  NO
IR spectrum                             ...  NO
VCD spectrum                            ...  NO
X-ray spectroscopy properties:
SCF XES/XAS/RIXS spectra                ...  NO


-------------
DIPOLE MOMENT
-------------

Method             : SCF
Type of density    : Electron Density
Multiplicity       :   2
Irrep              :   0
Energy             :  -387.9910033998714312 Eh
Relativity type    : 
Basis              : AO
                                X                 Y                 Z
Electronic contribution:     -1.615026408       0.797885181       0.054659462
Nuclear contribution   :      2.533197376      -0.996205714      -0.098486582
                        -----------------------------------------
Total Dipole Moment    :      0.918170969      -0.198320533      -0.043827120
                        -----------------------------------------
Magnitude (a.u.)       :      0.940366832
Magnitude (Debye)      :      2.390222532



--------------------
Rotational spectrum 
--------------------
 
Rotational constants in cm-1:             0.153944             0.020635             0.018320 
Rotational constants in MHz :          4615.121792           618.608795           549.210532 

Dipole components along the rotational axes: 
x,y,z [a.u.] :     0.918569     0.196611    -0.043191 
x,y,z [Debye]:     2.334816     0.499746    -0.109783 

 

Dipole moment calculation done in   0.1 sec 

Maximum memory used throughout the entire PROP-calculation: 74.1 MB

--------------------------------
SUGGESTED CITATIONS FOR THIS RUN
--------------------------------

Below you find a list of papers that are relevant to this ORCA run
We neither can nor want to force you to cite these papers, but we appreciate if you do
You receive ORCA, which is the product of decades of hard work by many enthusiastic individuals, for free
The only thing we kindly ask in return is that you cite our papers,
We deeply appreciate it, if you show your appreciation for ORCA by not just citing the generic ORCA reference.

Please note that relegating all ORCA citations to the supporting information does *not* help us.
SI sections are not indexed - citations you put there will not count into any citation statistics
But we need these citations in order to attract the funding resources that allow us to do what we are doing

Therefore, if you are a happy ORCA user, please consider citing a few of the papers listed below in the main body of your paper

In addition to the list printed below, the program has created the file cs_rporg_017_ox_solv_03.bibtex that contains the list in bibtex format
You can import this file easily into all common literature databanks and citation aid programs


List of essential papers. We consider these as the minimum necessary citations

  1. Neese,F.
     Software update: the ORCA program system, version 5.0
     WIRES Comput. Molec. Sci., 2022 12(1)e1606
     doi.org/10.1002/wcms.1606

List of papers to cite with high priority. The work reported in these papers was absolutely
necessary for this run to complete.
Our perspective: the developers of density functionals and basis sets usually get cited in chemistry papers
Good! But without the algorithms to do something with them, the functionals or basis sets would not do anything.
Hence, in our opinion, the algorithm design and method developments papers are equally worthy of getting cited

  1. Neese,F.
     An improvement of the resolution of the identity approximation for the formation of the Coulomb matrix
     J. Comp. Chem., 2003 24(14)1740-1747
     doi.org/10.1002/jcc.10318
  2. Garcia-Rates,M.; Neese,F.
     Effect of the Solute Cavity on the Solvation Energy and its Derivatives within the Framework of the Gaussian Charge Scheme
     J. Comput. Chem., 2020 41 922-939
     doi.org/10.1002/jcc.26139
  3. Neese,F.
     The SHARK Integral Generation and Digestion System
     J. Comp. Chem., 2022  1-16
     doi.org/10.1002/jcc.26942
  4. Lehtola,S.; Steigemann,C.; Oliveira,M.; Marques,M.
     Recent developments in Libxc - A comprehensive library of functionals for density functional theory
     Software X, 2018 7 
     doi.org/10.1016/j.softx.2017.11.002
  5. Grimme,S.; Antony,J.; Ehrlich,S.; Krieg,H.
     A consistent and accurate ab initio parametrization of density functional dispersion correction (DFT-D) for the 94 elements H-Pu
     J. Chem. Phys., 2010 132 154104-XXXX
     doi.org/10.1063/1.3382344
  6. Grimme,S.; Ehrlich,S.; Goerigk,L.
     Effect of the damping function in dispersion corrected density functional theory
     J. Comput. Chem., 2011 32(7)1456-1465
     doi.org/10.1002/jcc.21759

List of suggested additional citations. These are papers that are important in the 'surrounding' of 
of this run, or papers that preceded the highly important papers. If you like your results we are grateful for a citation.

  1. Neese,F.
     The ORCA program system
     WIRES Comput. Molec. Sci., 2012 2(1)73-78
     doi.org/10.1002/wcms.81
  2. Neese,F.
     Software update: the ORCA program system, version 4.0
     WIRES Comput. Molec. Sci., 2018 8(1)1-6
     doi.org/10.1002/wcms.1327
  3. Neese,F.; Wennmohs,F.; Becker,U.; Riplinger,C.
     The ORCA quantum chemistry program package
     J. Chem. Phys., 2020 152 Art. No. L224108
     doi.org/10.1063/5.0004608

List of optional additional citations

  1. Neese,F.
     Approximate second-order SCF convergence for spin unrestricted wavefunctions
     Chem. Phys. Lett., 2000 325(1-3)93-98
     doi.org/10.1016/s0009-2614(00)00662-x

Timings for individual modules:

Sum of individual times          ...      468.142 sec (=   7.802 min)
Startup calculation              ...       13.059 sec (=   0.218 min)   2.8 %
SCF iterations                   ...      452.811 sec (=   7.547 min)  96.7 %
Property calculations            ...        2.271 sec (=   0.038 min)   0.5 %
                             ****ORCA TERMINATED NORMALLY****
TOTAL RUN TIME: 0 days 0 hours 7 minutes 51 seconds 479 msec
