 vasp.6.3.2 27Jun22 (build Oct 25 2024 11:36:28) complex                        
  
 executed on             LinuxIFC date 2024.12.29  19:54:24
 running on   80 total cores
 distrk:  each k-point on   80 cores,    1 groups
 distr:  one band on NCORE=  10 cores,    8 groups


--------------------------------------------------------------------------------------------------------


 INCAR:
   SYSTEM = 103_red
   ISTART = 1
   ICHARG = 2
   INIWAV = 1
   METAGGA = R2SCAN
   LASPH = .TRUE.
   NELM = 100
   ALGO = fast   	
   ISPIN = 2
   EDIFF = 1E-05
   ISMEAR = 0
   SIGMA = 0.05
   PREC = accurate
   ENCUT = 500
   LREAL = auto  	
   LWAVE = .TRUE.
   LCHARG = .FALSE.
   LAECHG = .FALSE.
   LVHAR = .FALSE.
   LVTOT = .FALSE.
   EDIFFG = -0.02
   IBRION = 2
   NSW = 500
   ISIF = 2
   POTIM = 0.5
   IVDW = 12
   VDW_A1 = 0.49484001
   VDW_S8 = 0.78981345
   VDW_A2 = 5.73083694
   LPLANE = .TRUE.
   NCORE = 10
   LSCALU = .FALSE.
   NSIM = 4
   LSOL = .TRUE.
   ISOL = 2
   EPSILON_INF = 1.8069
   N_MOL = 0.0115
   P_MOL = 0.82
   R_SOLV = 2.1900
   EB_K = 35.6880
   NELECT = 47

 POTCAR:    PAW_PBE C 08Apr2002                   
 POTCAR:    PAW_PBE H 15Jun2001                   
 -----------------------------------------------------------------------------
|                                                                             |
|           W    W    AA    RRRRR   N    N  II  N    N   GGGG   !!!           |
|           W    W   A  A   R    R  NN   N  II  NN   N  G    G  !!!           |
|           W    W  A    A  R    R  N N  N  II  N N  N  G       !!!           |
|           W WW W  AAAAAA  RRRRR   N  N N  II  N  N N  G  GGG   !            |
|           WW  WW  A    A  R   R   N   NN  II  N   NN  G    G                |
|           W    W  A    A  R    R  N    N  II  N    N   GGGG   !!!           |
|                                                                             |
|     You use a magnetic or noncollinear calculation, but did not specify     |
|     the initial magnetic moment with the MAGMOM tag. Note that a            |
|     default of 1 will be used for all atoms. This ferromagnetic setup       |
|     may break the symmetry of the crystal, in particular it may rule        |
|     out finding an antiferromagnetic solution. Thence, we recommend         |
|     setting the initial magnetic moment manually or verifying carefully     |
|     that this magnetic setup is desired.                                    |
|                                                                             |
 -----------------------------------------------------------------------------

 POTCAR:    PAW_PBE C 08Apr2002                   
   SHA256 =  253f7b50bb8d59471dbedb8285d89021f4a42ed1a2c5d38a03a736e69125dd95 C/POTCAR              
   COPYR  = (c) Copyright 08Apr2002 Georg Kresse                                                    
   COPYR  = This file is part of the software VASP. Any use, copying, and all other rights are regul
   COPYR  = If you do not have a valid VASP license, you may not use, copy or distribute this file. 
   VRHFIN =C: s2p2                                                                                  
   LEXCH  = PE                                                                                      
   EATOM  =   147.1560 eV,   10.8157 Ry                                                             
                                                                                                    
   TITEL  = PAW_PBE C 08Apr2002                                                                     
   LULTRA =        F    use ultrasoft PP ?                                                          
   IUNSCR =        1    unscreen: 0-lin 1-nonlin 2-no                                               
   RPACOR =    1.200    partial core radius                                                         
   POMASS =   12.011; ZVAL   =    4.000    mass and valenz                                          
   RCORE  =    1.500    outmost cutoff radius                                                       
   RWIGS  =    1.630; RWIGS  =    0.863    wigner-seitz radius (au A)                               
   ENMAX  =  400.000; ENMIN  =  300.000 eV                                                          
   ICORE  =        2    local potential                                                             
   LCOR   =        T    correct aug charges                                                         
   LPAW   =        T    paw PP                                                                      
   EAUG   =  644.873                                                                                
   DEXC   =    0.000                                                                                
   RMAX   =    1.529    core radius for proj-oper                                                   
   RAUG   =    1.300    factor for augmentation sphere                                              
   RDEP   =    1.501    radius for radial grids                                                     
   RDEPT  =    1.300    core radius for aug-charge                                                  
                                                                                                    
   Atomic configuration                                                                             
    4 entries                                                                                       
     n  l   j            E        occ.                                                              
     1  0  0.50      -273.3789   2.0000                                                             
     2  0  0.50       -13.7508   2.0000                                                             
     2  1  0.50        -5.2854   2.0000                                                             
     3  2  1.50        -5.4423   0.0000                                                             
   Description                                                                                      
     l       E           TYP  RCUT    TYP  RCUT                                                     
     0    -13.7508458     23  1.200                                                                 
     0     -8.2022199     23  1.200                                                                 
     1     -5.2854383     23  1.500                                                                 
     1     34.0145650     23  1.500                                                                 
     2     -5.4423304      7  1.500                                                                 
  local pseudopotential read in
  partial core-charges read in
  partial kinetic energy density read in
  atomic valenz-charges read in
  non local Contribution for L=           0  read in
    real space projection operators read in
  non local Contribution for L=           0  read in
    real space projection operators read in
  non local Contribution for L=           1  read in
    real space projection operators read in
  non local Contribution for L=           1  read in
    real space projection operators read in
    PAW grid and wavefunctions read in
 
   number of l-projection  operators is LMAX  =           4
   number of lm-projection operators is LMMAX =           8
 
 POTCAR:    PAW_PBE H 15Jun2001                   
   SHA256 =  030f79b5d3ab3cf0e668861823c8fb652ff669f3e15e46930bd03bfd63a607b6 H/POTCAR              
   COPYR  = (c) Copyright 15Jun2001 Georg Kresse                                                    
   COPYR  = This file is part of the software VASP. Any use, copying, and all other rights are regul
   COPYR  = If you do not have a valid VASP license, you may not use, copy or distribute this file. 
   VRHFIN =H: ultrasoft test                                                                        
   LEXCH  = PE                                                                                      
   EATOM  =    12.4884 eV,    0.9179 Ry                                                             
                                                                                                    
   TITEL  = PAW_PBE H 15Jun2001                                                                     
   LULTRA =        F    use ultrasoft PP ?                                                          
   IUNSCR =        0    unscreen: 0-lin 1-nonlin 2-no                                               
   RPACOR =    0.000    partial core radius                                                         
   POMASS =    1.000; ZVAL   =    1.000    mass and valenz                                          
   RCORE  =    1.100    outmost cutoff radius                                                       
   RWIGS  =    0.700; RWIGS  =    0.370    wigner-seitz radius (au A)                               
   ENMAX  =  250.000; ENMIN  =  200.000 eV                                                          
   RCLOC  =    0.701    cutoff for local pot                                                        
   LCOR   =        T    correct aug charges                                                         
   LPAW   =        T    paw PP                                                                      
   EAUG   =  400.000                                                                                
   RMAX   =    1.123    core radius for proj-oper                                                   
   RAUG   =    1.200    factor for augmentation sphere                                              
   RDEP   =    1.112    radius for radial grids                                                     
   RDEPT  =    0.926    core radius for aug-charge                                                  
                                                                                                    
   Atomic configuration                                                                             
    2 entries                                                                                       
     n  l   j            E        occ.                                                              
     1  0  0.50        -6.4927   1.0000                                                             
     2  1  0.50        -3.4015   0.0000                                                             
   Description                                                                                      
     l       E           TYP  RCUT    TYP  RCUT                                                     
     0     -6.4927494     23  1.100                                                                 
     0      6.8029130     23  1.100                                                                 
     1     -4.0817478     23  1.100                                                                 
  local pseudopotential read in
  atomic valenz-charges read in
  non local Contribution for L=           0  read in
    real space projection operators read in
  non local Contribution for L=           0  read in
    real space projection operators read in
  non local Contribution for L=           1  read in
    real space projection operators read in
    PAW grid and wavefunctions read in
 
   number of l-projection  operators is LMAX  =           3
   number of lm-projection operators is LMMAX =           5
 
 Optimization of the real space projectors (new method)

 maximal supplied QI-value         = 25.13
 optimisation between [QCUT,QGAM] = [ 11.31, 22.87] = [ 35.82,146.48] Ry 
 Optimized for a Real-space Cutoff    1.03 Angstroem

   l    n(q)    QCUT    max X(q) W(low)/X(q) W(high)/X(q)  e(spline) 
   0      7    11.310   115.676    0.20E-03    0.90E-03    0.20E-06
   0      7    11.310    87.132    0.20E-03    0.89E-03    0.19E-06
   1      6    11.310     4.429    0.16E-03    0.28E-03    0.12E-06
   1      6    11.310     2.733    0.12E-03    0.21E-03    0.99E-07
 Optimization of the real space projectors (new method)

 maximal supplied QI-value         = 34.20
 optimisation between [QCUT,QGAM] = [ 11.29, 22.57] = [ 35.68,142.71] Ry 
 Optimized for a Real-space Cutoff    1.20 Angstroem

   l    n(q)    QCUT    max X(q) W(low)/X(q) W(high)/X(q)  e(spline) 
   0      8    11.287    19.460    0.22E-03    0.50E-03    0.19E-06
   0      8    11.287    12.209    0.21E-03    0.48E-03    0.18E-06
   1      8    11.287     4.655    0.21E-03    0.11E-04    0.26E-06
  PAW_PBE C 08Apr2002                   :
 energy of atom  1       EATOM= -147.1560
 kinetic energy error for atom=    0.0076 (will be added to EATOM!!)
  PAW_PBE H 15Jun2001                   :
 energy of atom  2       EATOM=  -12.4884
 kinetic energy error for atom=    0.0020 (will be added to EATOM!!)
 
 
 POSCAR: C H
  positions in direct lattice
  velocities in cartesian coordinates

 METAGGA = R2SCA    LMAXTAU =  6    LMIXTAU =  F

 exchange correlation table for  LEXCH =        8
   RHO(1)=    0.500       N(1)  =     2000
   RHO(2)=  100.500       N(2)  =     4000
 
 POSCAR: C H
  positions in direct lattice
  velocities in cartesian coordinates
 
 POSCAR: C H
  positions in direct lattice
  velocities in cartesian coordinates
 


--------------------------------------------------------------------------------------------------------


 ion  position               nearest neighbor table
   1  0.473  0.477  0.500-  21 1.08   2 1.37   8 1.43
   2  0.505  0.465  0.500-   1 1.37   4 1.43   3 1.49
   3  0.513  0.428  0.500-  10 1.09  12 1.09  11 1.09   2 1.49
   4  0.532  0.489  0.500-  20 1.08   5 1.43   2 1.43
   5  0.527  0.524  0.500-   7 1.37   4 1.43   6 1.49
   6  0.556  0.547  0.500-  13 1.09  14 1.09  15 1.09   5 1.49
   7  0.494  0.535  0.500-  19 1.08   5 1.37   8 1.42
   8  0.467  0.512  0.500-   7 1.42   1 1.43   9 1.47
   9  0.432  0.524  0.500-  17 1.09  16 1.10  18 1.10   8 1.47
  10  0.491  0.413  0.499-   3 1.09
  11  0.527  0.422  0.522-   3 1.09
  12  0.529  0.422  0.479-   3 1.09
  13  0.579  0.534  0.498-   6 1.09
  14  0.554  0.565  0.479-   6 1.09
  15  0.555  0.562  0.523-   6 1.09
  16  0.418  0.513  0.479-   9 1.10
  17  0.430  0.551  0.499-   9 1.09
  18  0.419  0.515  0.522-   9 1.10
  19  0.489  0.562  0.500-   7 1.08
  20  0.557  0.479  0.500-   4 1.08
  21  0.452  0.460  0.500-   1 1.08
 
  LATTYP: Found a simple cubic cell.
 ALAT       =    40.0000000000
  
  Lattice vectors:
  
 A1 = (  40.0000000000,   0.0000000000,   0.0000000000)
 A2 = (   0.0000000000,  40.0000000000,   0.0000000000)
 A3 = (   0.0000000000,   0.0000000000,  40.0000000000)


Analysis of symmetry for initial positions (statically):
=====================================================================
 Subroutine PRICEL returns:
 Original cell was already a primitive cell.
 

 Routine SETGRP: Setting up the symmetry group for a 
 simple cubic supercell.


 Subroutine GETGRP returns: Found  1 space group operations
 (whereof  1 operations were pure point group operations)
 out of a pool of 48 trial point group operations.


The static configuration has the point symmetry C_1 .


Analysis of symmetry for dynamics (positions and initial velocities):
=====================================================================
 Subroutine PRICEL returns:
 Original cell was already a primitive cell.
 

 Routine SETGRP: Setting up the symmetry group for a 
 simple cubic supercell.


 Subroutine GETGRP returns: Found  1 space group operations
 (whereof  1 operations were pure point group operations)
 out of a pool of 48 trial point group operations.


The dynamic configuration has the point symmetry C_1 .


Analysis of constrained symmetry for selective dynamics:
=====================================================================
 Subroutine PRICEL returns:
 Original cell was already a primitive cell.
 

 Routine SETGRP: Setting up the symmetry group for a 
 simple cubic supercell.


 Subroutine GETGRP returns: Found  1 space group operations
 (whereof  1 operations were pure point group operations)
 out of a pool of 48 trial point group operations.


The constrained configuration has the point symmetry C_1 .


Analysis of structural, dynamic, and magnetic symmetry:
=====================================================================
 Subroutine PRICEL returns:
 Original cell was already a primitive cell.
 

 Routine SETGRP: Setting up the symmetry group for a 
 simple cubic supercell.


 Subroutine GETGRP returns: Found  1 space group operations
 (whereof  1 operations were pure point group operations)
 out of a pool of 48 trial point group operations.


The overall configuration has the point symmetry C_1 .


 Subroutine INISYM returns: Found  1 space group operations
 (whereof  1 operations are pure point group operations),
 and found     1 'primitive' translations


----------------------------------------------------------------------------------------

                                     Primitive cell                                     

  volume of cell :   64000.0000

  direct lattice vectors                    reciprocal lattice vectors
    40.000000000  0.000000000  0.000000000     0.025000000  0.000000000  0.000000000
     0.000000000 40.000000000  0.000000000     0.000000000  0.025000000  0.000000000
     0.000000000  0.000000000 40.000000000     0.000000000  0.000000000  0.025000000

  length of vectors
    40.000000000 40.000000000 40.000000000     0.025000000  0.025000000  0.025000000

  position of ions in fractional coordinates (direct lattice)
     0.473147515  0.476927250  0.499934258
     0.505106215  0.464799653  0.499967126
     0.513108071  0.428438211  0.500029047
     0.531921358  0.488550722  0.499974266
     0.526549981  0.523864041  0.499893149
     0.555532502  0.547347691  0.499964905
     0.494082471  0.535009620  0.499838638
     0.466938082  0.512080694  0.499899096
     0.432151745  0.524152726  0.499962296
     0.490550053  0.413247958  0.499200724
     0.527419329  0.422013989  0.522445924
     0.528967999  0.422221865  0.478631946
     0.579244161  0.534120051  0.498373007
     0.553619670  0.564838382  0.479066365
     0.555366721  0.562353599  0.522826135
     0.418496759  0.513120788  0.478895039
     0.430400685  0.551246408  0.499076991
     0.419331331  0.514772726  0.522349685
     0.488697975  0.561561740  0.499767408
     0.557402337  0.479296909  0.499992134
     0.451965041  0.460034978  0.499911862

  ion indices of the primitive-cell ions
   primitive index   ion index
                 1           1
                 2           2
                 3           3
                 4           4
                 5           5
                 6           6
                 7           7
                 8           8
                 9           9
                10          10
                11          11
                12          12
                13          13
                14          14
                15          15
                16          16
                17          17
                18          18
                19          19
                20          20
                21          21

----------------------------------------------------------------------------------------

 
 
 KPOINTS: K-Point Grid                            

Automatic generation of k-mesh.
 Grid dimensions read from file:
 generate k-points for:    1    1    1

 Generating k-lattice:

  Cartesian coordinates                     Fractional coordinates (reciprocal lattice)
     0.025000000  0.000000000  0.000000000     1.000000000  0.000000000  0.000000000
     0.000000000  0.025000000  0.000000000     0.000000000  1.000000000  0.000000000
     0.000000000  0.000000000  0.025000000     0.000000000  0.000000000  1.000000000

  Length of vectors
     0.025000000  0.025000000  0.025000000

  Shift w.r.t. Gamma in fractional coordinates (k-lattice)
     0.000000000  0.000000000  0.000000000

 
 Subroutine IBZKPT returns following result:
 ===========================================
 
 Found      1 irreducible k-points:
 
 Following reciprocal coordinates:
            Coordinates               Weight
  0.000000  0.000000  0.000000      1.000000
 
 Following cartesian coordinates:
            Coordinates               Weight
  0.000000  0.000000  0.000000      1.000000
 


--------------------------------------------------------------------------------------------------------




 Dimension of arrays:
   k-points           NKPTS =      1   k-points in BZ     NKDIM =      1   number of bands    NBANDS=     48
   number of dos      NEDOS =    301   number of ions     NIONS =     21
   non local maximal  LDIM  =      4   non local SUM 2l+1 LMDIM =      8
   total plane-waves  NPLWV = ******
   max r-space proj   IRMAX =   2915   max aug-charges    IRDMAX=   4885
   dimension x,y,z NGX =   294 NGY =  294 NGZ =  294
   dimension x,y,z NGXF=   588 NGYF=  588 NGZF=  588
   support grid    NGXF=   588 NGYF=  588 NGZF=  588
   ions per type =               9  12
   NGX,Y,Z   is equivalent  to a cutoff of  12.22, 12.22, 12.22 a.u.
   NGXF,Y,Z  is equivalent  to a cutoff of  24.44, 24.44, 24.44 a.u.

 SYSTEM =  103_red                                 
 POSCAR =  C H                                     

 Startparameter for this run:
   NWRITE =      2    write-flag & timer
   PREC   = accura    normal or accurate (medium, high low for compatibility)
   ISTART =      1    job   : 0-new  1-cont  2-samecut
   ICHARG =      2    charge: 1-file 2-atom 10-const
   ISPIN  =      2    spin polarized calculation?
   LNONCOLLINEAR =      F non collinear calculations
   LSORBIT =      F    spin-orbit coupling
   INIWAV =      1    electr: 0-lowe 1-rand  2-diag
   LASPH  =      T    aspherical Exc in radial PAW
 Electronic Relaxation 1
   ENCUT  =  500.0 eV  36.75 Ry    6.06 a.u.  72.93 72.93 72.93*2*pi/ulx,y,z
   ENINI  =  500.0     initial cutoff
   ENAUG  =  644.9 eV  augmentation charge cutoff
   NELM   =    100;   NELMIN=  2; NELMDL=  0     # of ELM steps 
   EDIFF  = 0.1E-04   stopping-criterion for ELM
   LREAL  =      T    real-space projection
   NLSPLINE    = F    spline interpolate recip. space projectors
   LCOMPAT=      F    compatible to vasp.4.4
   GGA_COMPAT  = T    GGA compatible to vasp.4.4-vasp.4.6
   LMAXPAW     = -100 max onsite density
   LMAXMIX     =    2 max onsite mixed and CHGCAR
   VOSKOWN=      0    Vosko Wilk Nusair interpolation
   ROPT   =   -0.00025  -0.00025
 Ionic relaxation
   EDIFFG = -.2E-01   stopping-criterion for IOM
   NSW    =    500    number of steps for IOM
   NBLOCK =      1;   KBLOCK =    500    inner block; outer block 
   IBRION =      2    ionic relax: 0-MD 1-quasi-New 2-CG
   NFREE  =      1    steps in history (QN), initial steepest desc. (CG)
   ISIF   =      2    stress and relaxation
   IWAVPR =     11    prediction:  0-non 1-charg 2-wave 3-comb
   ISYM   =      2    0-nonsym 1-usesym 2-fastsym
   LCORR  =      T    Harris-Foulkes like correction to forces

   POTIM  = 0.5000    time-step for ionic-motion
   TEIN   =    0.0    initial temperature
   TEBEG  =    0.0;   TEEND  =   0.0 temperature during run
   SMASS  =  -3.00    Nose mass-parameter (am)
   estimated Nose-frequenzy (Omega)   =  0.10E-29 period in steps = 0.13E+47 mass=  -0.366E-25a.u.
   SCALEE = 1.0000    scale energy and forces
   NPACO  =    256;   APACO  = 10.0  distance and # of slots for P.C.
   PSTRESS=    0.0 pullay stress

  Mass of Ions in am
   POMASS =  12.01  1.00
  Ionic Valenz
   ZVAL   =   4.00  1.00
  Atomic Wigner-Seitz radii
   RWIGS  =  -1.00 -1.00
  virtual crystal weights 
   VCA    =   1.00  1.00
   NELECT =      47.0000    total number of electrons
   NUPDOWN=      -1.0000    fix difference up-down

 DOS related values:
   EMIN   =  10.00;   EMAX   =-10.00  energy-range for DOS
   EFERMI =   0.00
   ISMEAR =     0;   SIGMA  =   0.05  broadening in eV -4-tet -1-fermi 0-gaus

 Electronic relaxation 2 (details)
   IALGO  =     68    algorithm
   LDIAG  =      T    sub-space diagonalisation (order eigenvalues)
   LSUBROT=      F    optimize rotation matrix (better conditioning)
   TURBO    =      0    0=normal 1=particle mesh
   IRESTART =      0    0=no restart 2=restart with 2 vectors
   NREBOOT  =      0    no. of reboots
   NMIN     =      0    reboot dimension
   EREF     =   0.00    reference energy to select bands
   IMIX   =      4    mixing-type and parameters
     AMIX     =   0.40;   BMIX     =  1.00
     AMIX_MAG =   1.60;   BMIX_MAG =  1.00
     AMIN     =   0.10
     WC   =   100.;   INIMIX=   1;  MIXPRE=   1;  MAXMIX= -45

 Intra band minimization:
   WEIMIN = 0.0010     energy-eigenvalue tresh-hold
   EBREAK =  0.52E-07  absolut break condition
   DEPER  =   0.30     relativ break condition  

   TIME   =   0.40     timestep for ELM

  volume/ion in A,a.u.               =    3047.62     20566.35
  Fermi-wavevector in a.u.,A,eV,Ry     =   0.147700  0.279113  0.296815  0.021815
  Thomas-Fermi vector in A             =   0.819491
 
 Write flags
   LWAVE        =      T    write WAVECAR
   LDOWNSAMPLE  =      F    k-point downsampling of WAVECAR
   LCHARG       =      F    write CHGCAR
   LVTOT        =      F    write LOCPOT, total local potential
   LVHAR        =      F    write LOCPOT, Hartree potential only
   LELF         =      F    write electronic localiz. function (ELF)
   LORBIT       =      0    0 simple, 1 ext, 2 COOP (PROOUT), +10 PAW based schemes


 Dipole corrections
   LMONO  =      F    monopole corrections only (constant potential shift)
   LDIPOL =      F    correct potential (dipole corrections)
   IDIPOL =      0    1-x, 2-y, 3-z, 4-all directions 
   EPSILON=  1.0000000 bulk dielectric constant

 Exchange correlation treatment:
   GGA     =    --    GGA type
   LEXCH   =     8    internal setting for exchange type
   LIBXC   =     F    Libxc                    
   VOSKOWN =     0    Vosko Wilk Nusair interpolation
   LHFCALC =     F    Hartree Fock is set to
   LHFONE  =     F    Hartree Fock one center treatment
   AEXX    =    0.0000 exact exchange contribution

 Linear response parameters
   LEPSILON=     F    determine dielectric tensor
   LRPA    =     F    only Hartree local field effects (RPA)
   LNABLA  =     F    use nabla operator in PAW spheres
   LVEL    =     F    velocity operator in full k-point grid
   CSHIFT  =0.1000    complex shift for real part using Kramers Kronig
   OMEGAMAX=  -1.0    maximum frequency
   DEG_THRESHOLD= 0.2000000E-02 threshold for treating states as degnerate
   RTIME   =   -0.100 relaxation time in fs
  (WPLASMAI=    0.000 imaginary part of plasma frequency in eV, 0.658/RTIME)
   DFIELD  = 0.0000000 0.0000000 0.0000000 field for delta impulse in time
 
  Optional k-point grid parameters
   LKPOINTS_OPT  =     F    use optional k-point grid
   KPOINTS_OPT_MODE=     1    mode for optional k-point grid
 
 Orbital magnetization related:
   ORBITALMAG=     F  switch on orbital magnetization
   LCHIMAG   =     F  perturbation theory with respect to B field
   DQ        =  0.001000  dq finite difference perturbation B field
   LLRAUG    =     F  two centre corrections for induced B field

 Solvation model:
   LSOL             =     T         switch on solvation model
   LSOL_SCF         =     T         include solvation in SCF
   ISOL             =     2         solvation model type
   EFERMI_ref       =  0.000000         reference Fermi level
   capacitance_init =  1.000000         initial capacitance
 Nonlinear solvation model:
   LNLDIEL     =     T         switch on non-linear dielectric mode
   LNLION      =     T         switch on non-linear ionic mode
   LNLTEST     =     F         test non-linear model in linear regime
   I_NLOC_SOL  =     1         type of nonlocal dielectric response
   NC_K        =  0.015000     cutoff charge density for cavities (1/Angstrom**3)
   TAU         =  0.000879     cavity formation energy (eV/Angstrom**2)
   SIGMA_K     =  0.600000     cavity width
   A_K         =  0.125000     smoothing length (Angstrom)
   R_SOLV      =  2.190000     solvent radius (Angstrom)
   R_CAV       =  0.000000     cavity radius (Angstrom)
   R_DIEL      =  1.000000     dielectric radius (Angstrom)
   R_ION       =  0.000000     ionic radius (Angstrom)
   R_B         =  0.000000     bound charge radius (Angstrom)
   SOLTEMP     =298.000000     solvent temperature (K)
   EB_K        = 35.688000     relative permittivity of the bulk solvent
   EPSILON_INF =  1.806900     optical relative permittivity of bulk solvent
   N_MOL       =  0.011500     molar density of solvent (1/Angstrom**3)
   P_MOL       =  0.820000     solvent dipole moment (e*Angstrom)
   C_MOLAR     =  0.000000     electrolyte concentration (mol/L)
   LAMBDA_D_K  =  0.000000     Debye length (Angstrom)
   ZION        =  1.000000     charge of ions in electrolyte (e)
   D_ION       = -1.000000     minimum ion packing diameter (Angstrom)



--------------------------------------------------------------------------------------------------------


 conjugate gradient relaxation of ions
   using selective dynamics as specified on POSCAR
 charge density and potential will be updated during run
 spin polarized calculation
 RMM-DIIS sequential band-by-band and
  variant of blocked Davidson during initial phase
 perform sub-space diagonalisation
    before iterative eigenvector-optimisation
 modified Broyden-mixing scheme, WC =      100.0
 initial mixing is a Kerker type mixing with AMIX =  0.4000 and BMIX =      1.0000
 Hartree-type preconditioning will be used
 using additional bands           24
 real space projection scheme for non local part
 use partial core corrections
 calculate Harris-corrections to forces 
   (improved forces if not selfconsistent)
 use gradient corrections 
 use of overlap-Matrix (Vanderbilt PP)
 Gauss-broadening in eV      SIGMA  =   0.05


--------------------------------------------------------------------------------------------------------


  energy-cutoff  :      500.00
  volume of cell :    64000.00
      direct lattice vectors                 reciprocal lattice vectors
    40.000000000  0.000000000  0.000000000     0.025000000  0.000000000  0.000000000
     0.000000000 40.000000000  0.000000000     0.000000000  0.025000000  0.000000000
     0.000000000  0.000000000 40.000000000     0.000000000  0.000000000  0.025000000

  length of vectors
    40.000000000 40.000000000 40.000000000     0.025000000  0.025000000  0.025000000


 
 old parameters found on file WAVECAR:
  energy-cutoff  :      500.00
  volume of cell :    64000.00
      direct lattice vectors                 reciprocal lattice vectors
    40.000000000  0.000000000  0.000000000     0.025000000  0.000000000  0.000000000
     0.000000000 40.000000000  0.000000000     0.000000000  0.025000000  0.000000000
     0.000000000  0.000000000 40.000000000     0.000000000  0.000000000  0.025000000

  length of vectors

 
 k-points in units of 2pi/SCALE and weight: K-Point Grid                            
   0.00000000  0.00000000  0.00000000       1.000
 
 k-points in reciprocal lattice and weights: K-Point Grid                            
   0.00000000  0.00000000  0.00000000       1.000
 
 position of ions in fractional coordinates (direct lattice) 
   0.47314751  0.47692725  0.49993426
   0.50510622  0.46479965  0.49996713
   0.51310807  0.42843821  0.50002905
   0.53192136  0.48855072  0.49997427
   0.52654998  0.52386404  0.49989315
   0.55553250  0.54734769  0.49996490
   0.49408247  0.53500962  0.49983864
   0.46693808  0.51208069  0.49989910
   0.43215175  0.52415273  0.49996230
   0.49055005  0.41324796  0.49920072
   0.52741933  0.42201399  0.52244592
   0.52896800  0.42222187  0.47863195
   0.57924416  0.53412005  0.49837301
   0.55361967  0.56483838  0.47906637
   0.55536672  0.56235360  0.52282613
   0.41849676  0.51312079  0.47889504
   0.43040068  0.55124641  0.49907699
   0.41933133  0.51477273  0.52234968
   0.48869797  0.56156174  0.49976741
   0.55740234  0.47929691  0.49999213
   0.45196504  0.46003498  0.49991186
 
 position of ions in cartesian coordinates  (Angst):
  18.92590059 19.07709001 19.99737032
  20.20424861 18.59198611 19.99868504
  20.52432285 17.13752842 20.00116188
  21.27685434 19.54202888 19.99897062
  21.06199925 20.95456166 19.99572597
  22.22130007 21.89390766 19.99859620
  19.76329885 21.40038478 19.99354552
  18.67752329 20.48322776 19.99596383
  17.28606981 20.96610905 19.99849184
  19.62200210 16.52991830 19.96802898
  21.09677315 16.88055957 20.89783694
  21.15871996 16.88887460 19.14527785
  23.16976643 21.36480202 19.93492029
  22.14478680 22.59353528 19.16265460
  22.21466884 22.49414395 20.91304540
  16.73987036 20.52483153 19.15580155
  17.21602740 22.04985633 19.96307965
  16.77325324 20.59090903 20.89398740
  19.54791900 22.46246960 19.99069630
  22.29609347 19.17187634 19.99968535
  18.07860162 18.40139911 19.99647448
 


--------------------------------------------------------------------------------------------------------


 k-point   1 :   0.0000 0.0000 0.0000  plane waves: 1624525

 maximum and minimum number of plane-waves per node :    162473   162437

 maximum number of plane-waves:   1624525
 maximum index in each direction: 
   IXMAX=   72   IYMAX=   72   IZMAX=   72
   IXMIN=  -72   IYMIN=  -72   IZMIN=  -72


 real space projection operators:
  total allocation   :       2310.69 KBytes
  max/ min on nodes  :        243.53        216.85


 parallel 3D FFT for wavefunctions:
    minimum data exchange during FFTs selected (reduces bandwidth)
 parallel 3D FFT for charge:
    minimum data exchange during FFTs selected (reduces bandwidth)


 total amount of memory used by VASP MPI-rank0   870204. kBytes
=======================================================================

   base      :      30000. kBytes
   nonlr-proj:       1329. kBytes
   fftplans  :     167689. kBytes
   grid      :     639968. kBytes
   one-center:         18. kBytes
   wavefun   :      31200. kBytes
 
     INWAV:  cpu time      8.8811: real time      8.9017
 Broyden mixing: mesh for mixing (old mesh)
   NGX =145   NGY =145   NGZ =145
  (NGX  =588   NGY  =588   NGZ  =588)
  gives a total of ****** points

 initial charge density was supplied:
 charge density of overlapping atoms calculated
 number of electron      48.0000000 magnetization      21.0000000
 keeping initial charge density in first step


--------------------------------------------------------------------------------------------------------


 Maximum index for non-local projection operator          323
 Maximum index for augmentation-charges          189 (set IRDMAX)


--------------------------------------------------------------------------------------------------------


 First call to EWALD:  gamma=   0.044
 Maximum number of real-space cells 3x 3x 3
 Maximum number of reciprocal cells 3x 3x 3

    FEWALD:  cpu time      0.0021: real time      0.0021


--------------------------------------- Iteration      1(   1)  ---------------------------------------


    POTLOK:  cpu time     13.1058: real time     13.1219
    SETDIJ:  cpu time      0.4459: real time      0.4466
     EDDAV:  cpu time     96.9321: real time     97.1302
       DOS:  cpu time      0.0009: real time      0.0009
    CHARGE:  cpu time     11.3390: real time     11.3589
    MIXING:  cpu time      0.3675: real time      0.3654
    --------------------------------------------
      LOOP:  cpu time    122.1913: real time    122.4238

 eigenvalue-minimisations  :   280
 total energy-change (2. order) :-0.1159408E+03  (-0.8199076E+01)
 number of electron      47.0000004 magnetization      20.2294444
 augmentation part        1.1345166 magnetization      19.3133903

 Broyden mixing:
  rms(total) = 0.27818E+01    rms(broyden)= 0.27816E+01
  rms(prec ) = 0.28068E+01
  weight for this iteration     100.00

 Free energy of the ion-electron system (eV)
  ---------------------------------------------------
  alpha Z        PSCENC =         0.16054809
  Ewald energy   TEWEN  =      4787.34398480
  -Hartree energ DENC   =     -5710.55223258
  -exchange      EXHF   =         0.00000000
  -V(xc)+E(xc)   XCENC  =       179.04003562
  PAW double counting   =       971.35903294     -990.02096687
  entropy T*S    EENTRO =        -0.00000000
  eigenvalues    EBANDS =      -827.44414521
  atomic energy  EATOM  =      1474.17295358
  Solvation  Ecorr_sol  =         0.00000000
  ---------------------------------------------------
  free energy    TOTEN  =      -115.94078963 eV

  energy without entropy =     -115.94078963  energy(sigma->0) =     -115.94078963


--------------------------------------------------------------------------------------------------------




--------------------------------------- Iteration      1(   2)  ---------------------------------------


    --------------------------------------------
      INIT:  cpu time      0.4284: real time      0.4288
  FINALIZE:  cpu time     40.3434: real time     40.3515
    --------------------------------------------
    POTLOK:  cpu time     52.8878: real time     52.9297
    SETDIJ:  cpu time      0.4071: real time      0.4073
    EDDIAG:  cpu time     18.2749: real time     18.3108
  RMM-DIIS:  cpu time    104.2641: real time    104.4802
    ORTHCH:  cpu time      0.1614: real time      0.1618
       DOS:  cpu time      0.0008: real time      0.0008
    CHARGE:  cpu time     10.5834: real time     10.6044
    MIXING:  cpu time      0.2992: real time      0.2995
    --------------------------------------------
      LOOP:  cpu time    186.8786: real time    187.1944

 eigenvalue-minimisations  :   195
 total energy-change (2. order) : 0.4631098E+01  (-0.7609116E+01)
 number of electron      47.0000003 magnetization      19.3929265
 augmentation part        1.1388376 magnetization      18.4132709

 Broyden mixing:
  rms(total) = 0.13631E+01    rms(broyden)= 0.13630E+01
  rms(prec ) = 0.13819E+01
  weight for this iteration     100.00

 eigenvalues of (default mixing * dielectric matrix)
  average eigenvalue GAMMA=   0.9621
  0.9621

 Free energy of the ion-electron system (eV)
  ---------------------------------------------------
  alpha Z        PSCENC =         0.16054809
  Ewald energy   TEWEN  =      4787.34398480
  -Hartree energ DENC   =     -5778.85818756
  -exchange      EXHF   =         0.00000000
  -V(xc)+E(xc)   XCENC  =       189.06245387
  PAW double counting   =      1833.08236491    -1852.68715950
  entropy T*S    EENTRO =        -0.00000000
  eigenvalues    EBANDS =      -749.79767304
  atomic energy  EATOM  =      1474.17295358
  Solvation  Ecorr_sol  =       -13.78897704
  ---------------------------------------------------
  free energy    TOTEN  =      -111.30969189 eV

  energy without entropy =     -111.30969189  energy(sigma->0) =     -111.30969189


--------------------------------------------------------------------------------------------------------




--------------------------------------- Iteration      1(   3)  ---------------------------------------


    --------------------------------------------
      INIT:  cpu time      0.4006: real time      0.4010
  FINALIZE:  cpu time     48.2725: real time     48.2850
    --------------------------------------------
    POTLOK:  cpu time     60.4599: real time     60.4995
    SETDIJ:  cpu time      0.4068: real time      0.4068
    EDDIAG:  cpu time     17.8776: real time     17.9136
  RMM-DIIS:  cpu time    112.2221: real time    112.4666
    ORTHCH:  cpu time      0.1543: real time      0.1546
       DOS:  cpu time      0.0041: real time      0.0041
    CHARGE:  cpu time     10.6376: real time     10.6599
    MIXING:  cpu time      0.3084: real time      0.3089
    --------------------------------------------
      LOOP:  cpu time    202.0708: real time    202.4140

 eigenvalue-minimisations  :   215
 total energy-change (2. order) :-0.1756475E+02  (-0.3348980E+01)
 number of electron      47.0000003 magnetization      18.3756867
 augmentation part        1.1186836 magnetization      17.3794726

 Broyden mixing:
  rms(total) = 0.83778E+00    rms(broyden)= 0.83775E+00
  rms(prec ) = 0.84504E+00
  weight for this iteration     100.00

 eigenvalues of (default mixing * dielectric matrix)
  average eigenvalue GAMMA=   1.1187
  0.8037  1.4337

 Free energy of the ion-electron system (eV)
  ---------------------------------------------------
  alpha Z        PSCENC =         0.16054809
  Ewald energy   TEWEN  =      4787.34398480
  -Hartree energ DENC   =     -5824.05159522
  -exchange      EXHF   =         0.00000000
  -V(xc)+E(xc)   XCENC  =       178.63586683
  PAW double counting   =      2631.61812727    -2651.75795590
  entropy T*S    EENTRO =        -0.00000000
  eigenvalues    EBANDS =      -698.22671337
  atomic energy  EATOM  =      1474.17295358
  Solvation  Ecorr_sol  =       -26.76965418
  ---------------------------------------------------
  free energy    TOTEN  =      -128.87443809 eV

  energy without entropy =     -128.87443809  energy(sigma->0) =     -128.87443809


--------------------------------------------------------------------------------------------------------




--------------------------------------- Iteration      1(   4)  ---------------------------------------


    --------------------------------------------
      INIT:  cpu time      0.3981: real time      0.3989
  FINALIZE:  cpu time     48.2626: real time     48.3357
    --------------------------------------------
    POTLOK:  cpu time     60.5089: real time     60.6155
    SETDIJ:  cpu time      0.4073: real time      0.4081
    EDDIAG:  cpu time     17.8192: real time     17.8582
  RMM-DIIS:  cpu time    124.0180: real time    124.2864
    ORTHCH:  cpu time      0.1631: real time      0.1635
       DOS:  cpu time      0.0023: real time      0.0023
    CHARGE:  cpu time     10.5568: real time     10.5789
    MIXING:  cpu time      0.3398: real time      0.3402
    --------------------------------------------
      LOOP:  cpu time    213.8154: real time    214.2532

 eigenvalue-minimisations  :   254
 total energy-change (2. order) :-0.4361708E+01  (-0.1299167E+01)
 number of electron      47.0000003 magnetization      17.3980174
 augmentation part        1.0961055 magnetization      16.4064192

 Broyden mixing:
  rms(total) = 0.57391E+00    rms(broyden)= 0.57386E+00
  rms(prec ) = 0.57872E+00
  weight for this iteration     100.00

 eigenvalues of (default mixing * dielectric matrix)
  average eigenvalue GAMMA=   1.2104
  1.7767  1.1394  0.7153

 Free energy of the ion-electron system (eV)
  ---------------------------------------------------
  alpha Z        PSCENC =         0.16054809
  Ewald energy   TEWEN  =      4787.34398480
  -Hartree energ DENC   =     -5846.02427993
  -exchange      EXHF   =         0.00000000
  -V(xc)+E(xc)   XCENC  =       178.25080029
  PAW double counting   =      3378.80117956    -3398.98061641
  entropy T*S    EENTRO =        -0.00000000
  eigenvalues    EBANDS =      -665.30777696
  atomic energy  EATOM  =      1474.17295358
  Solvation  Ecorr_sol  =       -41.65293943
  ---------------------------------------------------
  free energy    TOTEN  =      -133.23614640 eV

  energy without entropy =     -133.23614640  energy(sigma->0) =     -133.23614640


--------------------------------------------------------------------------------------------------------




--------------------------------------- Iteration      1(   5)  ---------------------------------------


    --------------------------------------------
      INIT:  cpu time      0.3906: real time      0.3906
  FINALIZE:  cpu time     51.5142: real time     51.5419
    --------------------------------------------
    POTLOK:  cpu time     64.0332: real time     64.0974
    SETDIJ:  cpu time      0.4191: real time      0.4199
    EDDIAG:  cpu time     17.7382: real time     17.7804
  RMM-DIIS:  cpu time    137.2701: real time    137.5809
    ORTHCH:  cpu time      0.1614: real time      0.1619
       DOS:  cpu time      0.0009: real time      0.0009
    CHARGE:  cpu time     10.5010: real time     10.5217
    MIXING:  cpu time      0.3416: real time      0.3420
    --------------------------------------------
      LOOP:  cpu time    230.4654: real time    230.9049

 eigenvalue-minimisations  :   278
 total energy-change (2. order) :-0.1736615E+01  (-0.2474445E+00)
 number of electron      47.0000003 magnetization      16.0125063
 augmentation part        1.0910005 magnetization      15.0254805

 Broyden mixing:
  rms(total) = 0.36533E+00    rms(broyden)= 0.36532E+00
  rms(prec ) = 0.36863E+00
  weight for this iteration     100.00

 eigenvalues of (default mixing * dielectric matrix)
  average eigenvalue GAMMA=   1.3592
  2.3641  1.5383  0.8732  0.6612

 Free energy of the ion-electron system (eV)
  ---------------------------------------------------
  alpha Z        PSCENC =         0.16054809
  Ewald energy   TEWEN  =      4787.34398480
  -Hartree energ DENC   =     -5837.87296088
  -exchange      EXHF   =         0.00000000
  -V(xc)+E(xc)   XCENC  =       177.35972066
  PAW double counting   =      3745.23182845    -3765.26665768
  entropy T*S    EENTRO =        -0.00000000
  eigenvalues    EBANDS =      -662.59220084
  atomic energy  EATOM  =      1474.17295358
  Solvation  Ecorr_sol  =       -53.50997734
  ---------------------------------------------------
  free energy    TOTEN  =      -134.97276115 eV

  energy without entropy =     -134.97276115  energy(sigma->0) =     -134.97276115


--------------------------------------------------------------------------------------------------------




--------------------------------------- Iteration      1(   6)  ---------------------------------------


    --------------------------------------------
      INIT:  cpu time      0.4109: real time      0.4111
  FINALIZE:  cpu time     46.2842: real time     46.3189
    --------------------------------------------
    POTLOK:  cpu time     58.8635: real time     58.9296
    SETDIJ:  cpu time      0.4141: real time      0.4139
    EDDIAG:  cpu time     17.9219: real time     17.9580
  RMM-DIIS:  cpu time    138.4634: real time    138.7650
    ORTHCH:  cpu time      0.1606: real time      0.1614
       DOS:  cpu time      0.0018: real time      0.0018
    CHARGE:  cpu time     10.5236: real time     10.5453
    MIXING:  cpu time      0.3680: real time      0.3686
    --------------------------------------------
      LOOP:  cpu time    226.7170: real time    227.1435

 eigenvalue-minimisations  :   284
 total energy-change (2. order) :-0.2431557E+01  (-0.1177687E+00)
 number of electron      47.0000003 magnetization      15.2982914
 augmentation part        1.0885417 magnetization      14.3168783

 Broyden mixing:
  rms(total) = 0.20840E+00    rms(broyden)= 0.20840E+00
  rms(prec ) = 0.21069E+00
  weight for this iteration     100.00

 eigenvalues of (default mixing * dielectric matrix)
  average eigenvalue GAMMA=   1.3972
  2.8499  1.5796  1.1115  0.8030  0.6420

 Free energy of the ion-electron system (eV)
  ---------------------------------------------------
  alpha Z        PSCENC =         0.16054809
  Ewald energy   TEWEN  =      4787.34398480
  -Hartree energ DENC   =     -5825.17893459
  -exchange      EXHF   =         0.00000000
  -V(xc)+E(xc)   XCENC  =       175.75218753
  PAW double counting   =      4088.41133188    -4108.22650656
  entropy T*S    EENTRO =        -0.00000000
  eigenvalues    EBANDS =      -662.09106619
  atomic energy  EATOM  =      1474.17295358
  Solvation  Ecorr_sol  =       -67.74881652
  ---------------------------------------------------
  free energy    TOTEN  =      -137.40431797 eV

  energy without entropy =     -137.40431797  energy(sigma->0) =     -137.40431797


--------------------------------------------------------------------------------------------------------




--------------------------------------- Iteration      1(   7)  ---------------------------------------


    --------------------------------------------
      INIT:  cpu time      0.3749: real time      0.3756
  FINALIZE:  cpu time     49.0547: real time     49.1148
    --------------------------------------------
    POTLOK:  cpu time     61.5907: real time     61.6897
    SETDIJ:  cpu time      0.4156: real time      0.4165
    EDDIAG:  cpu time     18.0193: real time     18.0609
  RMM-DIIS:  cpu time    139.3370: real time    139.6379
    ORTHCH:  cpu time      0.1643: real time      0.1647
       DOS:  cpu time      0.0051: real time      0.0051
    CHARGE:  cpu time     10.5414: real time     10.5605
    MIXING:  cpu time      0.3215: real time      0.3219
    --------------------------------------------
      LOOP:  cpu time    230.3950: real time    230.8572

 eigenvalue-minimisations  :   286
 total energy-change (2. order) : 0.2300400E+00  (-0.5425967E-01)
 number of electron      47.0000003 magnetization      13.9502524
 augmentation part        1.0841598 magnetization      12.9727211

 Broyden mixing:
  rms(total) = 0.17844E+00    rms(broyden)= 0.17844E+00
  rms(prec ) = 0.18054E+00
  weight for this iteration     100.00

 eigenvalues of (default mixing * dielectric matrix)
  average eigenvalue GAMMA=   1.3286
  2.9125  1.6890  0.9813  0.9813  0.7658  0.6415

 Free energy of the ion-electron system (eV)
  ---------------------------------------------------
  alpha Z        PSCENC =         0.16054809
  Ewald energy   TEWEN  =      4787.34398480
  -Hartree energ DENC   =     -5820.49049807
  -exchange      EXHF   =         0.00000000
  -V(xc)+E(xc)   XCENC  =       176.22454002
  PAW double counting   =      4122.27461251    -4142.08410167
  entropy T*S    EENTRO =        -0.00000000
  eigenvalues    EBANDS =      -661.73027959
  atomic energy  EATOM  =      1474.17295358
  Solvation  Ecorr_sol  =       -73.04603759
  ---------------------------------------------------
  free energy    TOTEN  =      -137.17427793 eV

  energy without entropy =     -137.17427793  energy(sigma->0) =     -137.17427793


--------------------------------------------------------------------------------------------------------




--------------------------------------- Iteration      1(   8)  ---------------------------------------


    --------------------------------------------
      INIT:  cpu time      0.4190: real time      0.4200
  FINALIZE:  cpu time     49.0893: real time     49.1745
    --------------------------------------------
    POTLOK:  cpu time     61.6667: real time     61.7928
    SETDIJ:  cpu time      0.4191: real time      0.4189
    EDDIAG:  cpu time     18.0676: real time     18.1139
  RMM-DIIS:  cpu time    140.5345: real time    140.8311
    ORTHCH:  cpu time      0.1685: real time      0.1689
       DOS:  cpu time      0.0031: real time      0.0031
    CHARGE:  cpu time     10.4908: real time     10.5074
    MIXING:  cpu time      0.3223: real time      0.3221
    --------------------------------------------
      LOOP:  cpu time    231.6725: real time    232.1583

 eigenvalue-minimisations  :   286
 total energy-change (2. order) : 0.1907138E+01  (-0.6980967E-01)
 number of electron      47.0000003 magnetization      11.3266793
 augmentation part        1.0806586 magnetization      10.3546024

 Broyden mixing:
  rms(total) = 0.12892E+00    rms(broyden)= 0.12892E+00
  rms(prec ) = 0.13046E+00
  weight for this iteration     100.00

 eigenvalues of (default mixing * dielectric matrix)
  average eigenvalue GAMMA=   1.8023
  5.0556  2.7011  1.5491  1.1439  0.8154  0.7262  0.6248

 Free energy of the ion-electron system (eV)
  ---------------------------------------------------
  alpha Z        PSCENC =         0.16054809
  Ewald energy   TEWEN  =      4787.34398480
  -Hartree energ DENC   =     -5808.93156561
  -exchange      EXHF   =         0.00000000
  -V(xc)+E(xc)   XCENC  =       177.98213981
  PAW double counting   =      4069.68242046    -4089.47566648
  entropy T*S    EENTRO =        -0.00000000
  eigenvalues    EBANDS =      -664.82342667
  atomic energy  EATOM  =      1474.17295358
  Solvation  Ecorr_sol  =       -81.37852771
  ---------------------------------------------------
  free energy    TOTEN  =      -135.26713973 eV

  energy without entropy =     -135.26713973  energy(sigma->0) =     -135.26713973


--------------------------------------------------------------------------------------------------------




--------------------------------------- Iteration      1(   9)  ---------------------------------------


    --------------------------------------------
      INIT:  cpu time      0.3840: real time      0.3842
  FINALIZE:  cpu time     46.4008: real time     46.4669
    --------------------------------------------
    POTLOK:  cpu time     58.9715: real time     59.0705
    SETDIJ:  cpu time      0.4139: real time      0.4149
    EDDIAG:  cpu time     17.9428: real time     17.9880
  RMM-DIIS:  cpu time    139.8337: real time    140.1296
    ORTHCH:  cpu time      0.1669: real time      0.1673
       DOS:  cpu time      0.0008: real time      0.0008
    CHARGE:  cpu time     10.5914: real time     10.6125
    MIXING:  cpu time      0.3286: real time      0.3290
    --------------------------------------------
      LOOP:  cpu time    228.2495: real time    228.7125

 eigenvalue-minimisations  :   285
 total energy-change (2. order) : 0.1856180E+01  (-0.5549406E-01)
 number of electron      47.0000003 magnetization      10.8233332
 augmentation part        1.0802650 magnetization       9.8566078

 Broyden mixing:
  rms(total) = 0.74292E-01    rms(broyden)= 0.74288E-01
  rms(prec ) = 0.74952E-01
  weight for this iteration     100.00

 eigenvalues of (default mixing * dielectric matrix)
  average eigenvalue GAMMA=   1.7761
  5.9429  2.6415  1.6468  0.8880  0.8880  0.7888  0.7888  0.6242

 Free energy of the ion-electron system (eV)
  ---------------------------------------------------
  alpha Z        PSCENC =         0.16054809
  Ewald energy   TEWEN  =      4787.34398480
  -Hartree energ DENC   =     -5788.38155250
  -exchange      EXHF   =         0.00000000
  -V(xc)+E(xc)   XCENC  =       179.68176867
  PAW double counting   =      4022.40609074    -4042.17020596
  entropy T*S    EENTRO =        -0.00000000
  eigenvalues    EBANDS =      -669.93563413
  atomic energy  EATOM  =      1474.17295358
  Solvation  Ecorr_sol  =       -96.68891294
  ---------------------------------------------------
  free energy    TOTEN  =      -133.41095965 eV

  energy without entropy =     -133.41095965  energy(sigma->0) =     -133.41095965


--------------------------------------------------------------------------------------------------------




--------------------------------------- Iteration      1(  10)  ---------------------------------------


    --------------------------------------------
      INIT:  cpu time      0.4071: real time      0.4065
  FINALIZE:  cpu time     54.1814: real time     54.2456
    --------------------------------------------
    POTLOK:  cpu time     66.7886: real time     66.8923
    SETDIJ:  cpu time      0.4215: real time      0.4222
    EDDIAG:  cpu time     17.8381: real time     17.8785
  RMM-DIIS:  cpu time    139.8858: real time    140.1852
    ORTHCH:  cpu time      0.1635: real time      0.1639
       DOS:  cpu time      0.0052: real time      0.0052
    CHARGE:  cpu time     10.6307: real time     10.6490
    MIXING:  cpu time      0.3552: real time      0.3557
    --------------------------------------------
      LOOP:  cpu time    236.0886: real time    236.5520

 eigenvalue-minimisations  :   286
 total energy-change (2. order) : 0.4756759E+00  (-0.1893468E-01)
 number of electron      47.0000003 magnetization       9.8053221
 augmentation part        1.0785233 magnetization       8.8410685

 Broyden mixing:
  rms(total) = 0.60466E-01    rms(broyden)= 0.60464E-01
  rms(prec ) = 0.60979E-01
  weight for this iteration     100.00

 eigenvalues of (default mixing * dielectric matrix)
  average eigenvalue GAMMA=   1.7787
  6.6079  2.5187  1.5126  1.5126  0.9990  0.7407  0.7407  0.6215  0.7544

 Free energy of the ion-electron system (eV)
  ---------------------------------------------------
  alpha Z        PSCENC =         0.16054809
  Ewald energy   TEWEN  =      4787.34398480
  -Hartree energ DENC   =     -5786.71564532
  -exchange      EXHF   =         0.00000000
  -V(xc)+E(xc)   XCENC  =       180.22242128
  PAW double counting   =      4043.56746116    -4063.33895856
  entropy T*S    EENTRO =        -0.00000000
  eigenvalues    EBANDS =      -669.81533263
  atomic energy  EATOM  =      1474.17295358
  Solvation  Ecorr_sol  =       -98.53271619
  ---------------------------------------------------
  free energy    TOTEN  =      -132.93528379 eV

  energy without entropy =     -132.93528379  energy(sigma->0) =     -132.93528379


--------------------------------------------------------------------------------------------------------




--------------------------------------- Iteration      1(  11)  ---------------------------------------


    --------------------------------------------
      INIT:  cpu time      0.3834: real time      0.3840
  FINALIZE:  cpu time     46.3481: real time     46.4209
    --------------------------------------------
    POTLOK:  cpu time     58.9395: real time     59.0463
    SETDIJ:  cpu time      0.4153: real time      0.4154
    EDDIAG:  cpu time     17.9085: real time     17.9478
  RMM-DIIS:  cpu time    141.0360: real time    141.3375
    ORTHCH:  cpu time      0.1622: real time      0.1626
       DOS:  cpu time      0.0021: real time      0.0021
    CHARGE:  cpu time     10.5371: real time     10.5713
    MIXING:  cpu time      0.3696: real time      0.3697
    --------------------------------------------
      LOOP:  cpu time    229.3703: real time    229.8528

 eigenvalue-minimisations  :   286
 total energy-change (2. order) : 0.1231892E+01  (-0.8939055E-02)
 number of electron      47.0000003 magnetization       8.4935925
 augmentation part        1.0783864 magnetization       7.5308192

 Broyden mixing:
  rms(total) = 0.45900E-01    rms(broyden)= 0.45899E-01
  rms(prec ) = 0.46119E-01
  weight for this iteration     100.00

 eigenvalues of (default mixing * dielectric matrix)
  average eigenvalue GAMMA=   1.9544
  7.8053  2.6329  2.6329  1.6565  0.9805  0.9805  0.7705  0.7705  0.6234  0.6914

 Free energy of the ion-electron system (eV)
  ---------------------------------------------------
  alpha Z        PSCENC =         0.16054809
  Ewald energy   TEWEN  =      4787.34398480
  -Hartree energ DENC   =     -5782.25054789
  -exchange      EXHF   =         0.00000000
  -V(xc)+E(xc)   XCENC  =       181.38440401
  PAW double counting   =      4055.59080705    -4075.36186665
  entropy T*S    EENTRO =        -0.00000000
  eigenvalues    EBANDS =      -671.46906483
  atomic energy  EATOM  =      1474.17295358
  Solvation  Ecorr_sol  =      -101.27460992
  ---------------------------------------------------
  free energy    TOTEN  =      -131.70339177 eV

  energy without entropy =     -131.70339177  energy(sigma->0) =     -131.70339177


--------------------------------------------------------------------------------------------------------




--------------------------------------- Iteration      1(  12)  ---------------------------------------


    --------------------------------------------
      INIT:  cpu time      0.4221: real time      0.4231
  FINALIZE:  cpu time     46.5973: real time     46.6479
    --------------------------------------------
    POTLOK:  cpu time     59.1728: real time     59.2538
    SETDIJ:  cpu time      0.4160: real time      0.4143
    EDDIAG:  cpu time     18.0385: real time     18.0771
  RMM-DIIS:  cpu time    139.7944: real time    140.0894
    ORTHCH:  cpu time      0.1675: real time      0.1679
       DOS:  cpu time      0.0035: real time      0.0035
    CHARGE:  cpu time     10.6340: real time     10.6536
    MIXING:  cpu time      0.3713: real time      0.3717
    --------------------------------------------
      LOOP:  cpu time    228.5980: real time    229.0313

 eigenvalue-minimisations  :   286
 total energy-change (2. order) : 0.1289915E+01  (-0.3978126E-02)
 number of electron      47.0000003 magnetization       7.8980427
 augmentation part        1.0778180 magnetization       6.9369316

 Broyden mixing:
  rms(total) = 0.34985E-01    rms(broyden)= 0.34984E-01
  rms(prec ) = 0.35126E-01
  weight for this iteration     100.00

 eigenvalues of (default mixing * dielectric matrix)
  average eigenvalue GAMMA=   1.9421
  8.3367  3.2089  2.4784  1.5684  1.0733  0.9770  0.8090  0.8090  0.8053  0.6250
  0.6721

 Free energy of the ion-electron system (eV)
  ---------------------------------------------------
  alpha Z        PSCENC =         0.16054809
  Ewald energy   TEWEN  =      4787.34398480
  -Hartree energ DENC   =     -5777.81317352
  -exchange      EXHF   =         0.00000000
  -V(xc)+E(xc)   XCENC  =       182.62555818
  PAW double counting   =      4043.75999461    -4063.54896179
  entropy T*S    EENTRO =        -0.00000000
  eigenvalues    EBANDS =      -672.81125570
  atomic energy  EATOM  =      1474.17295358
  Solvation  Ecorr_sol  =      -104.30312482
  ---------------------------------------------------
  free energy    TOTEN  =      -130.41347657 eV

  energy without entropy =     -130.41347657  energy(sigma->0) =     -130.41347657


--------------------------------------------------------------------------------------------------------




--------------------------------------- Iteration      1(  13)  ---------------------------------------


    --------------------------------------------
      INIT:  cpu time      0.3993: real time      0.3989
  FINALIZE:  cpu time     54.2429: real time     54.2777
    --------------------------------------------
    POTLOK:  cpu time     66.8067: real time     66.8744
    SETDIJ:  cpu time      0.4142: real time      0.4143
    EDDIAG:  cpu time     17.9275: real time     17.9883
  RMM-DIIS:  cpu time    140.7651: real time    141.0688
    ORTHCH:  cpu time      0.1745: real time      0.1749
       DOS:  cpu time      0.0004: real time      0.0004
    CHARGE:  cpu time     10.6144: real time     10.6361
    MIXING:  cpu time      0.4149: real time      0.4154
    --------------------------------------------
      LOOP:  cpu time    237.1177: real time    237.5726

 eigenvalue-minimisations  :   286
 total energy-change (2. order) : 0.4723722E+00  ( 0.1015089E-02)
 number of electron      47.0000003 magnetization       6.6125165
 augmentation part        1.0780991 magnetization       5.6523939

 Broyden mixing:
  rms(total) = 0.30483E-01    rms(broyden)= 0.30483E-01
  rms(prec ) = 0.30528E-01
  weight for this iteration     100.00

 eigenvalues of (default mixing * dielectric matrix)
  average eigenvalue GAMMA=   2.0049
  8.8307  3.5880  2.6020  1.6878  1.6878  1.0485  1.0485  0.7552  0.7552  0.7607
  0.6258  0.6690

 Free energy of the ion-electron system (eV)
  ---------------------------------------------------
  alpha Z        PSCENC =         0.16054809
  Ewald energy   TEWEN  =      4787.34398480
  -Hartree energ DENC   =     -5776.92717002
  -exchange      EXHF   =         0.00000000
  -V(xc)+E(xc)   XCENC  =       183.10371382
  PAW double counting   =      4043.82466455    -4063.61504200
  entropy T*S    EENTRO =        -0.00000000
  eigenvalues    EBANDS =      -672.96332899
  atomic energy  EATOM  =      1474.17295358
  Solvation  Ecorr_sol  =      -105.04142823
  ---------------------------------------------------
  free energy    TOTEN  =      -129.94110439 eV

  energy without entropy =     -129.94110439  energy(sigma->0) =     -129.94110439


--------------------------------------------------------------------------------------------------------




--------------------------------------- Iteration      1(  14)  ---------------------------------------


    --------------------------------------------
      INIT:  cpu time      0.4029: real time      0.4035
  FINALIZE:  cpu time     77.1405: real time     77.2719
    --------------------------------------------
    POTLOK:  cpu time     89.6574: real time     89.8272
    SETDIJ:  cpu time      0.4148: real time      0.4160
    EDDIAG:  cpu time     17.9796: real time     18.0202
  RMM-DIIS:  cpu time    140.4862: real time    140.7844
    ORTHCH:  cpu time      0.1714: real time      0.1716
       DOS:  cpu time      0.0029: real time      0.0029
    CHARGE:  cpu time     10.5163: real time     10.5456
    MIXING:  cpu time      0.4150: real time      0.4156
    --------------------------------------------
      LOOP:  cpu time    259.6437: real time    260.1836

 eigenvalue-minimisations  :   286
 total energy-change (2. order) : 0.9531391E+00  ( 0.4987382E-02)
 number of electron      47.0000003 magnetization       5.9287049
 augmentation part        1.0775031 magnetization       4.9693714

 Broyden mixing:
  rms(total) = 0.24225E-01    rms(broyden)= 0.24224E-01
  rms(prec ) = 0.24288E-01
  weight for this iteration     100.00

 eigenvalues of (default mixing * dielectric matrix)
  average eigenvalue GAMMA=   2.0840
  9.5698  4.6720  2.5618  2.1772  1.5103  1.1179  1.1179  0.8574  0.7510  0.7510
  0.6296  0.7059  0.6701

 Free energy of the ion-electron system (eV)
  ---------------------------------------------------
  alpha Z        PSCENC =         0.16054809
  Ewald energy   TEWEN  =      4787.34398480
  -Hartree energ DENC   =     -5775.54756747
  -exchange      EXHF   =         0.00000000
  -V(xc)+E(xc)   XCENC  =       184.06313326
  PAW double counting   =      4054.98059048    -4074.76834855
  entropy T*S    EENTRO =        -0.00000000
  eigenvalues    EBANDS =      -673.07262883
  atomic energy  EATOM  =      1474.17295358
  Solvation  Ecorr_sol  =      -106.32063060
  ---------------------------------------------------
  free energy    TOTEN  =      -128.98796524 eV

  energy without entropy =     -128.98796524  energy(sigma->0) =     -128.98796524


--------------------------------------------------------------------------------------------------------




--------------------------------------- Iteration      1(  15)  ---------------------------------------


    --------------------------------------------
      INIT:  cpu time      0.4370: real time      0.4372
  FINALIZE:  cpu time     49.0893: real time     49.1714
    --------------------------------------------
    POTLOK:  cpu time     61.6285: real time     61.7676
    SETDIJ:  cpu time      0.4147: real time      0.4146
    EDDIAG:  cpu time     17.9991: real time     18.0420
  RMM-DIIS:  cpu time    140.8195: real time    141.1233
    ORTHCH:  cpu time      0.1878: real time      0.1883
       DOS:  cpu time      0.0011: real time      0.0011
    CHARGE:  cpu time     10.5978: real time     10.6193
    MIXING:  cpu time      0.4255: real time      0.4261
    --------------------------------------------
      LOOP:  cpu time    232.0740: real time    232.5822

 eigenvalue-minimisations  :   286
 total energy-change (2. order) : 0.3836684E+00  (-0.4281929E-03)
 number of electron      47.0000003 magnetization       5.2076189
 augmentation part        1.0772487 magnetization       4.2490367

 Broyden mixing:
  rms(total) = 0.21925E-01    rms(broyden)= 0.21924E-01
  rms(prec ) = 0.21995E-01
  weight for this iteration     100.00

 eigenvalues of (default mixing * dielectric matrix)
  average eigenvalue GAMMA=   2.0889
 10.0092  5.1645  2.6479  2.2493  1.4339  1.4339  1.1364  0.8799  0.8799  0.7328
  0.7328  0.6842  0.6298  0.6298

 Free energy of the ion-electron system (eV)
  ---------------------------------------------------
  alpha Z        PSCENC =         0.16054809
  Ewald energy   TEWEN  =      4787.34398480
  -Hartree energ DENC   =     -5774.61771855
  -exchange      EXHF   =         0.00000000
  -V(xc)+E(xc)   XCENC  =       184.42620948
  PAW double counting   =      4053.72954031    -4073.51400907
  entropy T*S    EENTRO =        -0.00000000
  eigenvalues    EBANDS =      -673.52227479
  atomic energy  EATOM  =      1474.17295358
  Solvation  Ecorr_sol  =      -106.78353068
  ---------------------------------------------------
  free energy    TOTEN  =      -128.60429684 eV

  energy without entropy =     -128.60429684  energy(sigma->0) =     -128.60429684


--------------------------------------------------------------------------------------------------------




--------------------------------------- Iteration      1(  16)  ---------------------------------------


    --------------------------------------------
      INIT:  cpu time      0.4415: real time      0.4424
  FINALIZE:  cpu time     49.0444: real time     49.0877
    --------------------------------------------
    POTLOK:  cpu time     61.5794: real time     61.6613
    SETDIJ:  cpu time      0.4094: real time      0.4097
    EDDIAG:  cpu time     18.0127: real time     18.0579
  RMM-DIIS:  cpu time    141.0827: real time    141.3882
    ORTHCH:  cpu time      0.1631: real time      0.1636
       DOS:  cpu time      0.0016: real time      0.0016
    CHARGE:  cpu time     10.6266: real time     10.6472
    MIXING:  cpu time      0.4434: real time      0.4441
    --------------------------------------------
      LOOP:  cpu time    232.3189: real time    232.7735

 eigenvalue-minimisations  :   286
 total energy-change (2. order) : 0.4321536E+00  (-0.1535842E-02)
 number of electron      47.0000003 magnetization       3.9401468
 augmentation part        1.0770568 magnetization       2.9824209

 Broyden mixing:
  rms(total) = 0.18309E-01    rms(broyden)= 0.18308E-01
  rms(prec ) = 0.18336E-01
  weight for this iteration     100.00

 eigenvalues of (default mixing * dielectric matrix)
  average eigenvalue GAMMA=   2.1363
 10.5497  5.7549  2.8401  2.4967  1.4330  1.4330  1.2360  1.0417  1.0417  0.7340
  0.7340  0.7583  0.7432  0.6243  0.6243

 Free energy of the ion-electron system (eV)
  ---------------------------------------------------
  alpha Z        PSCENC =         0.16054809
  Ewald energy   TEWEN  =      4787.34398480
  -Hartree energ DENC   =     -5774.02795493
  -exchange      EXHF   =         0.00000000
  -V(xc)+E(xc)   XCENC  =       184.83798271
  PAW double counting   =      4054.91751286    -4074.69300893
  entropy T*S    EENTRO =        -0.00000000
  eigenvalues    EBANDS =      -673.94973947
  atomic energy  EATOM  =      1474.17295358
  Solvation  Ecorr_sol  =      -106.93442190
  ---------------------------------------------------
  free energy    TOTEN  =      -128.17214320 eV

  energy without entropy =     -128.17214320  energy(sigma->0) =     -128.17214320


--------------------------------------------------------------------------------------------------------




--------------------------------------- Iteration      1(  17)  ---------------------------------------


    --------------------------------------------
      INIT:  cpu time      0.3995: real time      0.4003
  FINALIZE:  cpu time     51.6326: real time     51.6342
    --------------------------------------------
    POTLOK:  cpu time     64.1907: real time     64.2261
    SETDIJ:  cpu time      0.4129: real time      0.4137
    EDDIAG:  cpu time     18.0314: real time     18.0692
  RMM-DIIS:  cpu time    141.6279: real time    141.9304
    ORTHCH:  cpu time      0.1752: real time      0.1756
       DOS:  cpu time      0.0009: real time      0.0009
    CHARGE:  cpu time     10.5519: real time     10.5726
    MIXING:  cpu time      0.4727: real time      0.4730
    --------------------------------------------
      LOOP:  cpu time    235.4637: real time    235.8615

 eigenvalue-minimisations  :   286
 total energy-change (2. order) : 0.7308822E+00  ( 0.5385850E-03)
 number of electron      47.0000003 magnetization       3.1788396
 augmentation part        1.0766252 magnetization       2.2217708

 Broyden mixing:
  rms(total) = 0.15647E-01    rms(broyden)= 0.15645E-01
  rms(prec ) = 0.15717E-01
  weight for this iteration     100.00

 eigenvalues of (default mixing * dielectric matrix)
  average eigenvalue GAMMA=   2.1729
 11.0472  6.2910  3.1183  2.6411  1.6425  1.4949  1.4949  1.0930  0.8969  0.8969
  0.7050  0.7050  0.7416  0.7416  0.6221  0.6337

 Free energy of the ion-electron system (eV)
  ---------------------------------------------------
  alpha Z        PSCENC =         0.16054809
  Ewald energy   TEWEN  =      4787.34398480
  -Hartree energ DENC   =     -5773.71597300
  -exchange      EXHF   =         0.00000000
  -V(xc)+E(xc)   XCENC  =       185.55731410
  PAW double counting   =      4057.09475083    -4076.86236127
  entropy T*S    EENTRO =        -0.00000000
  eigenvalues    EBANDS =      -674.20663008
  atomic energy  EATOM  =      1474.17295358
  Solvation  Ecorr_sol  =      -106.98584809
  ---------------------------------------------------
  free energy    TOTEN  =      -127.44126104 eV

  energy without entropy =     -127.44126104  energy(sigma->0) =     -127.44126104


--------------------------------------------------------------------------------------------------------




--------------------------------------- Iteration      1(  18)  ---------------------------------------


    --------------------------------------------
      INIT:  cpu time      0.4098: real time      0.4100
  FINALIZE:  cpu time     48.9878: real time     49.0634
    --------------------------------------------
    POTLOK:  cpu time     61.5715: real time     61.6892
    SETDIJ:  cpu time      0.4172: real time      0.4170
    EDDIAG:  cpu time     17.9834: real time     18.0262
  RMM-DIIS:  cpu time    139.4972: real time    139.7914
    ORTHCH:  cpu time      0.1715: real time      0.1718
       DOS:  cpu time      0.0036: real time      0.0036
    CHARGE:  cpu time     10.6015: real time     10.6178
    MIXING:  cpu time      0.4734: real time      0.4741
    --------------------------------------------
      LOOP:  cpu time    230.7193: real time    231.1911

 eigenvalue-minimisations  :   286
 total energy-change (2. order) : 0.3906707E+00  (-0.3477303E-03)
 number of electron      47.0000003 magnetization       2.0103337
 augmentation part        1.0763943 magnetization       1.0537287

 Broyden mixing:
  rms(total) = 0.11334E-01    rms(broyden)= 0.11333E-01
  rms(prec ) = 0.11405E-01
  weight for this iteration     100.00

 eigenvalues of (default mixing * dielectric matrix)
  average eigenvalue GAMMA=   2.3566
 12.5400  7.5362  4.0636  2.4486  2.4486  1.4417  1.4417  1.2658  0.9200  0.9200
  0.8981  0.7089  0.7089  0.7736  0.6257  0.6257  0.6956

 Free energy of the ion-electron system (eV)
  ---------------------------------------------------
  alpha Z        PSCENC =         0.16054809
  Ewald energy   TEWEN  =      4787.34398480
  -Hartree energ DENC   =     -5773.93278260
  -exchange      EXHF   =         0.00000000
  -V(xc)+E(xc)   XCENC  =       185.95202918
  PAW double counting   =      4054.26631598    -4074.03684875
  entropy T*S    EENTRO =        -0.00000000
  eigenvalues    EBANDS =      -674.14751856
  atomic energy  EATOM  =      1474.17295358
  Solvation  Ecorr_sol  =      -106.82927206
  ---------------------------------------------------
  free energy    TOTEN  =      -127.05059034 eV

  energy without entropy =     -127.05059034  energy(sigma->0) =     -127.05059034


--------------------------------------------------------------------------------------------------------




--------------------------------------- Iteration      1(  19)  ---------------------------------------


    --------------------------------------------
      INIT:  cpu time      0.3948: real time      0.3954
  FINALIZE:  cpu time     49.0425: real time     49.1114
    --------------------------------------------
    POTLOK:  cpu time     61.6215: real time     61.7233
    SETDIJ:  cpu time      0.4133: real time      0.4144
    EDDIAG:  cpu time     18.0900: real time     18.1295
  RMM-DIIS:  cpu time    140.5414: real time    140.8437
    ORTHCH:  cpu time      0.1617: real time      0.1621
       DOS:  cpu time      0.0046: real time      0.0046
    CHARGE:  cpu time     10.5409: real time     10.5632
    MIXING:  cpu time      0.5012: real time      0.5020
    --------------------------------------------
      LOOP:  cpu time    231.8746: real time    232.3427

 eigenvalue-minimisations  :   286
 total energy-change (2. order) : 0.5199238E+00  ( 0.5669955E-02)
 number of electron      47.0000003 magnetization       1.5481889
 augmentation part        1.0763543 magnetization       0.5913647

 Broyden mixing:
  rms(total) = 0.74065E-02    rms(broyden)= 0.74061E-02
  rms(prec ) = 0.74367E-02
  weight for this iteration     100.00

 eigenvalues of (default mixing * dielectric matrix)
  average eigenvalue GAMMA=   2.4947
 14.8434  8.4280  4.5878  2.6128  2.3965  1.3875  1.3875  1.4266  1.0796  1.0796
  0.7910  0.7910  0.7848  0.6819  0.6819  0.6891  0.6276  0.6276

 Free energy of the ion-electron system (eV)
  ---------------------------------------------------
  alpha Z        PSCENC =         0.16054809
  Ewald energy   TEWEN  =      4787.34398480
  -Hartree energ DENC   =     -5774.50858946
  -exchange      EXHF   =         0.00000000
  -V(xc)+E(xc)   XCENC  =       186.48197896
  PAW double counting   =      4053.46489862    -4073.23957360
  entropy T*S    EENTRO =        -0.00000000
  eigenvalues    EBANDS =      -673.92638821
  atomic energy  EATOM  =      1474.17295358
  Solvation  Ecorr_sol  =      -106.48047931
  ---------------------------------------------------
  free energy    TOTEN  =      -126.53066653 eV

  energy without entropy =     -126.53066653  energy(sigma->0) =     -126.53066653


--------------------------------------------------------------------------------------------------------




--------------------------------------- Iteration      1(  20)  ---------------------------------------


    --------------------------------------------
      INIT:  cpu time      0.4423: real time      0.4432
  FINALIZE:  cpu time     48.9935: real time     49.0590
    --------------------------------------------
    POTLOK:  cpu time     61.5774: real time     61.6801
    SETDIJ:  cpu time      0.4153: real time      0.4166
    EDDIAG:  cpu time     17.9078: real time     17.9458
  RMM-DIIS:  cpu time    140.0079: real time    140.3088
    ORTHCH:  cpu time      0.1633: real time      0.1636
       DOS:  cpu time      0.0054: real time      0.0054
    CHARGE:  cpu time     10.4861: real time     10.5051
    MIXING:  cpu time      0.5130: real time      0.5139
    --------------------------------------------
      LOOP:  cpu time    231.0763: real time    231.5394

 eigenvalue-minimisations  :   286
 total energy-change (2. order) : 0.1409430E+00  (-0.2559626E-03)
 number of electron      47.0000003 magnetization       1.3765471
 augmentation part        1.0763582 magnetization       0.4198677

 Broyden mixing:
  rms(total) = 0.52912E-02    rms(broyden)= 0.52901E-02
  rms(prec ) = 0.53462E-02
  weight for this iteration     100.00

 eigenvalues of (default mixing * dielectric matrix)
  average eigenvalue GAMMA=   2.6405
 17.8735  8.9470  4.8801  2.5420  2.5420  1.5532  1.5532  1.4426  1.1637  1.1034
  0.8864  0.8864  0.7065  0.7065  0.7404  0.7404  0.6586  0.6216  0.6216

 Free energy of the ion-electron system (eV)
  ---------------------------------------------------
  alpha Z        PSCENC =         0.16054809
  Ewald energy   TEWEN  =      4787.34398480
  -Hartree energ DENC   =     -5774.66159046
  -exchange      EXHF   =         0.00000000
  -V(xc)+E(xc)   XCENC  =       186.62167397
  PAW double counting   =      4052.98051562    -4072.75451683
  entropy T*S    EENTRO =        -0.00000000
  eigenvalues    EBANDS =      -673.94129468
[...]
  ---------------------------------------------------
  free energy    TOTEN  =      -126.10451650 eV

  energy without entropy =     -126.10451650  energy(sigma->0) =     -126.10451650


--------------------------------------------------------------------------------------------------------




--------------------------------------- Iteration      9(   2)  ---------------------------------------


    --------------------------------------------
      INIT:  cpu time      0.4031: real time      0.4032
  FINALIZE:  cpu time     50.7145: real time     50.7074
    --------------------------------------------
    POTLOK:  cpu time     62.9417: real time     62.9578
    SETDIJ:  cpu time      0.4098: real time      0.4103
    EDDIAG:  cpu time     18.1402: real time     18.1771
  RMM-DIIS:  cpu time    101.8828: real time    102.0999
    ORTHCH:  cpu time      0.1356: real time      0.1359
       DOS:  cpu time      0.0024: real time      0.0024
    --------------------------------------------
      LOOP:  cpu time    183.5123: real time    183.7834

 eigenvalue-minimisations  :   191
 total energy-change (2. order) :-0.4683999E-05  (-0.6195332E-05)
 number of electron      47.0000002 magnetization       1.0002767
 augmentation part        1.0766865 magnetization       0.0488151

 Free energy of the ion-electron system (eV)
  ---------------------------------------------------
  alpha Z        PSCENC =         0.16054809
  Ewald energy   TEWEN  =      4788.93359812
  -Hartree energ DENC   =     -5776.57932704
  -exchange      EXHF   =         0.00000000
  -V(xc)+E(xc)   XCENC  =       186.94803973
  PAW double counting   =      4066.99364391    -4086.77055387
  entropy T*S    EENTRO =        -0.00000000
  eigenvalues    EBANDS =      -674.17791217
  atomic energy  EATOM  =      1474.17295358
  Solvation  Ecorr_sol  =      -105.78551155
  ---------------------------------------------------
  free energy    TOTEN  =      -126.10452118 eV

  energy without entropy =     -126.10452118  energy(sigma->0) =     -126.10452118


--------------------------------------------------------------------------------------------------------




 average (electrostatic) potential at core
  the test charge radii are     0.6991  0.5201
  (the norm of the test charge is              1.0000)
       1 -62.7210       2 -63.1450       3 -61.6610       4 -63.4088       5 -63.2129
       6 -61.6612       7 -62.7703       8 -63.6995       9 -61.9969      10 -45.0695
      11 -45.2000      12 -45.1925      13 -45.1111      14 -45.1829      15 -45.2006
      16 -45.6085      17 -45.3410      18 -45.6346      19 -45.9084      20 -46.2645
      21 -45.8841
 
 
 
 E-fermi :  -7.6469     XC(G=0):  -0.0367     alpha+bet : -0.0192

 Fermi energy:        -7.6468671423

 spin component 1

 k-point     1 :       0.0000    0.0000    0.0000
  band No.  band energies     occupation 
      1     -24.7905      1.00000
      2     -22.5539      1.00000
      3     -22.3129      1.00000
      4     -19.7369      1.00000
      5     -19.5236      1.00000
      6     -19.3794      1.00000
      7     -16.6573      1.00000
      8     -16.5172      1.00000
      9     -14.5534      1.00000
     10     -14.1414      1.00000
     11     -12.7131      1.00000
     12     -12.6287      1.00000
     13     -11.9836      1.00000
     14     -11.9281      1.00000
     15     -11.8744      1.00000
     16     -11.6514      1.00000
     17     -11.3911      1.00000
     18     -11.2451      1.00000
     19     -10.4624      1.00000
     20     -10.2177      1.00000
     21     -10.1704      1.00000
     22      -9.9963      1.00000
     23      -8.5280      1.00000
     24      -8.0189      1.00000
     25      -3.5724      0.00000
     26      -2.6349      0.00000
     27      -0.2587      0.00000
     28       0.0114      0.00000
     29       0.0858      0.00000
     30       0.0861      0.00000
     31       0.0885      0.00000
     32       0.0976      0.00000
     33       0.0979      0.00000
     34       0.1298      0.00000
     35       0.1524      0.00000
     36       0.1600      0.00000
     37       0.1663      0.00000
     38       0.1865      0.00000
     39       0.1878      0.00000
     40       0.1883      0.00000
     41       0.1908      0.00000
     42       0.1915      0.00000
     43       0.1918      0.00000
     44       0.1920      0.00000
     45       0.1929      0.00000
     46       0.2470      0.00000
     47       0.2491      0.00000
     48       0.2625      0.00000
 Fermi energy:        -7.6468671423

 spin component 2

 k-point     1 :       0.0000    0.0000    0.0000
  band No.  band energies     occupation 
      1     -24.5030      1.00000
      2     -22.3021      1.00000
      3     -22.1663      1.00000
      4     -19.6976      1.00000
      5     -19.3134      1.00000
      6     -19.1670      1.00000
      7     -16.4584      1.00000
      8     -16.4284      1.00000
      9     -14.4770      1.00000
     10     -14.0866      1.00000
     11     -12.5532      1.00000
     12     -12.2542      1.00000
     13     -11.9849      1.00000
     14     -11.7825      1.00000
     15     -11.6713      1.00000
     16     -11.6253      1.00000
     17     -11.3658      1.00000
     18     -11.2128      1.00000
     19     -10.4301      1.00000
     20     -10.1478      1.00000
     21      -9.9359      1.00000
     22      -9.7396      1.00000
     23      -7.8991      1.00000
     24      -6.9855      0.00000
     25      -2.3959      0.00000
     26      -2.2874      0.00000
     27      -0.2212      0.00000
     28       0.0251      0.00000
     29       0.0982      0.00000
     30       0.1005      0.00000
     31       0.1031      0.00000
     32       0.1096      0.00000
     33       0.1101      0.00000
     34       0.1384      0.00000
     35       0.1735      0.00000
     36       0.1784      0.00000
     37       0.1843      0.00000
     38       0.2011      0.00000
     39       0.2021      0.00000
     40       0.2023      0.00000
     41       0.2031      0.00000
     42       0.2038      0.00000
     43       0.2043      0.00000
     44       0.2044      0.00000
     45       0.2045      0.00000
     46       0.2573      0.00000
     47       0.2789      0.00000
     48       0.2809      0.00000


--------------------------------------------------------------------------------------------------------


 soft charge-density along one line, spin component           1
         0         1         2         3         4         5         6         7         8         9
 total charge-density along one line
 
 soft charge-density along one line, spin component           2
         0         1         2         3         4         5         6         7         8         9
 total charge-density along one line
 
 pseudopotential strength for first ion, spin component:           1
 10.571  14.058   0.004   0.000  -0.001  -0.009  -0.000  -0.002
 14.058  18.696   0.005   0.000  -0.001  -0.012  -0.000  -0.003
  0.004   0.005  -4.461  -0.000   0.004   8.655  -0.000  -0.006
  0.000   0.000  -0.000  -4.410  -0.000  -0.000   8.571   0.000
 -0.001  -0.001   0.004  -0.000  -4.473  -0.006   0.000   8.674
 -0.009  -0.012   8.655  -0.000  -0.006 -19.066   0.000   0.010
 -0.000  -0.000  -0.000   8.571   0.000   0.000 -18.943  -0.000
 -0.002  -0.003  -0.006   0.000   8.674   0.010  -0.000 -19.092
 pseudopotential strength for first ion, spin component:           2
 10.552  14.034   0.005   0.000  -0.001  -0.011  -0.000  -0.001
 14.034  18.663   0.006   0.000  -0.001  -0.015  -0.000  -0.002
  0.005   0.006  -4.461   0.000   0.004   8.652  -0.000  -0.007
  0.000   0.000   0.000  -4.399  -0.000  -0.000   8.567   0.000
 -0.001  -0.001   0.004  -0.000  -4.470  -0.007   0.000   8.669
 -0.011  -0.015   8.652  -0.000  -0.007 -19.054   0.000   0.009
 -0.000  -0.000  -0.000   8.567   0.000   0.000 -18.955  -0.000
 -0.001  -0.002  -0.007   0.000   8.669   0.009  -0.000 -19.080
 total augmentation occupancy for first ion, spin component:           1
  8.860  -4.003   0.099  -0.000   0.288   0.026  -0.000   0.055
 -4.003   1.857  -0.092   0.000  -0.188  -0.018   0.000  -0.033
  0.099  -0.092   1.806  -0.000  -0.049   0.174  -0.000  -0.011
 -0.000   0.000  -0.000   1.155   0.001  -0.000   0.075   0.000
  0.288  -0.188  -0.049   0.001   1.887  -0.011   0.000   0.179
  0.026  -0.018   0.174  -0.000  -0.011   0.018  -0.000  -0.002
 -0.000   0.000  -0.000   0.075   0.000  -0.000   0.005   0.000
  0.055  -0.033  -0.011   0.000   0.179  -0.002   0.000   0.018
 total augmentation occupancy for first ion, spin component:           2
  0.056  -0.032   0.010  -0.000  -0.009   0.003  -0.000  -0.002
 -0.032   0.018  -0.012   0.000   0.008  -0.002   0.000   0.001
  0.010  -0.012  -0.009   0.000   0.002   0.000   0.000  -0.000
 -0.000   0.000   0.000   0.081   0.000   0.000   0.003  -0.000
 -0.009   0.008   0.002   0.000   0.002  -0.000  -0.000   0.000
  0.003  -0.002   0.000   0.000  -0.000   0.000  -0.000  -0.000
 -0.000   0.000   0.000   0.003  -0.000  -0.000   0.000  -0.000
 -0.002   0.001  -0.000  -0.000   0.000  -0.000  -0.000  -0.000


------------------------ aborting loop because EDIFF is reached ----------------------------------------


    CHARGE:  cpu time      2.1800: real time      2.1846
    FORLOC:  cpu time      0.5052: real time      0.5057
    FORNL :  cpu time      7.4132: real time      7.4294
    STRESS:  cpu time    188.0765: real time    188.5158
    FORCOR:  cpu time      8.1444: real time      8.1594
    FORHAR:  cpu time      0.9280: real time      0.9293
    MIXING:  cpu time      0.1608: real time      0.1612
    OFIELD:  cpu time      0.0001: real time      0.0001

 ---------------------------------------------------------------------------------------------

         DFTD3 V3.0 Rev 1        
 Edisp (eV)   -0.17087

 E6    (eV) :    -0.1347
 E8    (eV) :    -0.0362
 % E8        : 21.18
    FORVDW:  cpu time      0.0220: real time      0.0220

  FORCE on cell =-STRESS in cart. coord.  units (eV):
  Direction    XX          YY          ZZ          XY          YZ          ZX
  --------------------------------------------------------------------------------------
  Alpha Z     0.16055     0.16055     0.16055
  Ewald    2443.90893  2435.52188   -90.49731    -0.57409    -2.76604     0.89464
  Hartree  2541.56231  2550.75251   790.11347     6.09718    -1.73977     0.51063
  E(xc)    -170.19709  -170.13952  -172.73063     0.01806    -0.00378     0.00352
  Local   -5412.33973 -5415.84579 -1166.37376    -6.55460     4.42995    -1.38311
  n-local   -61.98205   -61.32062   -55.81574     0.32515     0.00805    -0.00873
  augment    -2.58742    -2.54402    -2.37293     0.01928     0.00059    -0.00034
  Kinetic   661.38975   663.22649   697.08768     0.65766     0.05969    -0.00699
  Fock        0.00000     0.00000     0.00000     0.00000     0.00000     0.00000
  vdW        -0.06048    -0.06303    -0.00256    -0.00131     0.00003    -0.00000
  -------------------------------------------------------------------------------------
  Total      -0.14523    -0.25155    -0.43124    -0.01268    -0.01128     0.00962
  in kB      -0.00364    -0.00630    -0.01080    -0.00032    -0.00028     0.00024
  external pressure =       -0.01 kB  Pullay stress =        0.00 kB


 VOLUME and BASIS-vectors are now :
 -----------------------------------------------------------------------------
  energy-cutoff  :      500.00
  volume of cell :    64000.00
      direct lattice vectors                 reciprocal lattice vectors
    40.000000000  0.000000000  0.000000000     0.025000000  0.000000000  0.000000000
     0.000000000 40.000000000  0.000000000     0.000000000  0.025000000  0.000000000
     0.000000000  0.000000000 40.000000000     0.000000000  0.000000000  0.025000000

  length of vectors
    40.000000000 40.000000000 40.000000000     0.025000000  0.025000000  0.025000000


 FORCES acting on ions
    electron-ion (+dipol)            ewald-force                    non-local-force                 convergence-correction
 -----------------------------------------------------------------------------------------------
   0.145E+03 0.111E+03 0.396E-01   -.146E+03 -.113E+03 -.454E-01   0.138E+01 0.212E+01 0.608E-02   -.808E-02 -.424E-02 -.424E-03
   -.270E+02 0.116E+03 -.142E-01   0.264E+02 -.119E+03 0.877E-02   0.619E+00 0.254E+01 0.681E-02   -.833E-02 -.840E-02 -.891E-03
   -.363E+02 0.190E+03 -.129E+00   0.362E+02 -.192E+03 0.825E-01   0.774E-01 0.238E+01 0.478E-01   -.598E-02 0.355E-02 -.858E-03
   -.164E+03 0.591E+02 -.333E+00   0.166E+03 -.597E+02 0.342E+00   -.136E+01 0.533E+00 -.651E-02   -.347E-03 -.137E-02 -.637E-03
   -.964E+02 -.712E+02 0.558E+00   0.977E+02 0.735E+02 -.578E+00   -.127E+01 -.223E+01 0.205E-01   -.502E-03 0.122E-01 -.183E-03
   -.149E+03 -.121E+03 0.108E+00   0.151E+03 0.123E+03 -.209E+00   -.207E+01 -.121E+01 0.100E+00   -.639E-02 -.276E-03 0.147E-03
   0.400E+02 -.178E+03 0.642E+00   -.398E+02 0.181E+03 -.664E+00   -.142E+00 -.249E+01 0.196E-01   -.511E-02 0.707E-02 0.287E-03
   0.104E+03 -.395E+02 0.441E+00   -.105E+03 0.399E+02 -.455E+00   0.113E+01 -.424E+00 0.139E-01   -.138E-02 0.954E-03 0.575E-04
   0.184E+03 -.686E+02 0.188E+00   -.186E+03 0.703E+02 -.311E+00   0.188E+01 -.170E+01 0.120E+00   0.387E-03 -.933E-03 0.628E-04
   0.453E+02 0.669E+02 0.201E+01   -.501E+02 -.703E+02 -.219E+01   0.486E+01 0.345E+01 0.181E+00   -.351E-03 0.116E-02 -.190E-03
   -.381E+02 0.457E+02 -.548E+02   0.412E+02 -.472E+02 0.595E+02   -.301E+01 0.149E+01 -.472E+01   -.554E-03 0.308E-03 0.563E-04
   -.417E+02 0.454E+02 0.523E+02   0.450E+02 -.469E+02 -.569E+02   -.334E+01 0.145E+01 0.452E+01   -.512E-03 0.366E-03 -.101E-03
   -.798E+02 0.898E+01 0.400E+01   0.850E+02 -.117E+02 -.436E+01   -.527E+01 0.274E+01 0.351E+00   -.103E-02 -.201E-03 0.181E-03
   -.200E+02 -.596E+02 0.511E+02   0.197E+02 0.634E+02 -.555E+02   0.303E+00 -.377E+01 0.445E+01   -.114E-02 -.396E-03 0.503E-03
   -.238E+02 -.538E+02 -.557E+02   0.239E+02 0.570E+02 0.606E+02   -.641E-01 -.323E+01 -.483E+01   -.128E-02 -.137E-03 -.580E-03
   0.611E+02 0.135E+02 0.516E+02   -.641E+02 -.158E+02 -.560E+02   0.297E+01 0.223E+01 0.439E+01   0.449E-04 -.417E-03 -.378E-03
   0.352E+02 -.730E+02 0.220E+01   -.358E+02 0.790E+02 -.240E+01   0.545E+00 -.600E+01 0.196E+00   0.552E-03 0.324E-03 -.668E-05
   0.591E+02 0.981E+01 -.547E+02   -.619E+02 -.117E+02 0.594E+02   0.278E+01 0.188E+01 -.464E+01   0.292E-04 -.363E-03 0.429E-03
   0.168E+02 -.871E+02 0.281E+00   -.180E+02 0.932E+02 -.303E+00   0.120E+01 -.606E+01 0.192E-01   -.139E-03 -.141E-02 0.170E-03
   -.826E+02 0.299E+02 -.119E+00   0.884E+02 -.320E+02 0.127E+00   -.588E+01 0.214E+01 -.590E-02   0.203E-02 -.835E-03 -.135E-03
   0.686E+02 0.563E+02 0.655E-01   -.734E+02 -.602E+02 -.711E-01   0.479E+01 0.388E+01 0.566E-02   0.102E-02 0.135E-02 -.359E-04
 -----------------------------------------------------------------------------------------------
   -.906E-01 0.262E+00 -.238E+00   0.156E-12 -.142E-13 -.110E-13   0.134E+00 -.276E+00 0.245E+00   -.370E-01 0.827E-02 -.253E-02
 
 
 POSITION                                       TOTAL-FORCE (eV/Angst)
 -----------------------------------------------------------------------------------
     18.92609     19.07759     19.99745        -0.009399     -0.004747     -0.000339
     20.20373     18.59125     19.99892        -0.003464     -0.016304      0.000383
     20.52421     17.13910     20.00126        -0.000928     -0.004893      0.000524
     21.27471     19.54296     19.99899         0.007361     -0.001021      0.001164
     21.06289     20.95544     19.99570         0.008234      0.009752     -0.000054
     22.22107     21.89309     19.99855         0.005699      0.002027      0.000933
     19.76391     21.39969     19.99370        -0.003754      0.011519     -0.001620
     18.67841     20.48276     19.99586        -0.012319      0.003958      0.000169
     17.28788     20.96597     19.99841        -0.012106      0.005202     -0.001433
     19.62455     16.52890     19.96839        -0.000251     -0.006083      0.002526
     21.09605     16.87942     20.89701         0.005012     -0.003231      0.004467
     21.15746     16.88757     19.14590         0.001591     -0.003293     -0.004642
     23.17087     21.36728     19.93443         0.012084      0.001476     -0.004254
     22.14644     22.59307     19.16352         0.004972      0.005176     -0.002852
     22.21663     22.49314     20.91246         0.009073     -0.000910      0.005852
     16.73872     20.52612     19.15716        -0.004232     -0.000332     -0.000359
     17.21305     22.04915     19.96314        -0.006338      0.004374      0.000052
     16.77209     20.59202     20.89253        -0.003679     -0.000564      0.000286
     19.54741     22.46203     19.99026        -0.000956     -0.003689     -0.002197
     22.29507     19.17235     19.99994         0.000447     -0.000318      0.001580
     18.07879     18.40111     19.99640         0.002954      0.001902     -0.000185
 -----------------------------------------------------------------------------------
    total drift:                                0.006453     -0.006109      0.005139


--------------------------------------------------------------------------------------------------------



  FREE ENERGIE OF THE ION-ELECTRON SYSTEM (eV)
  ---------------------------------------------------
  free  energy   TOTEN  =      -126.27539284 eV

  energy  without entropy=     -126.27539284  energy(sigma->0) =     -126.27539284
 
 d Force = 0.4556287E-04[ 0.649E-05, 0.846E-04]  d Energy = 0.4640978E-04-0.847E-06
 d Force =-0.1006937E+00[-0.101E+00,-0.101E+00]  d Ewald  =-0.1006937E+00 0.158E-07


--------------------------------------------------------------------------------------------------------


    --------------------------------------------
      INIT:  cpu time      0.4079: real time      0.4079
  FINALIZE:  cpu time     48.1334: real time     48.1614
    --------------------------------------------
    POTLOK:  cpu time     60.8775: real time     60.9329


--------------------------------------------------------------------------------------------------------


 Conjugate gradient step on ions:
 trial-energy change:   -0.000046  1 .order   -0.000046   -0.000085   -0.000006
  (g-gl).g = 0.159E-03      g.g   = 0.161E-03  gl.gl    = 0.489E-03
 g(Force)  = 0.161E-03   g(Stress)= 0.000E+00 ortho     = 0.130E-04
 gamma     =   0.32442
 trial     =   0.51267
 opt step  =   0.55527  (harmonic =   0.55527) maximal distance =0.00061037
 next E    =  -126.275392   (d E  =  -0.00005)


--------------------------------------------------------------------------------------------------------


  
 reached required accuracy - stopping structural energy minimisation
 writing wavefunctions
     LOOP+:  cpu time    649.9587: real time    651.9117
    4ORBIT:  cpu time      0.0000: real time      0.0000

 total amount of memory used by VASP MPI-rank0   870204. kBytes
=======================================================================

   base      :      30000. kBytes
   nonlr-proj:       1329. kBytes
   fftplans  :     167689. kBytes
   grid      :     639968. kBytes
   one-center:         18. kBytes
   wavefun   :      31200. kBytes
 
  
  
 General timing and accounting informations for this job:
 ========================================================
  
                  Total CPU time used (sec):    17487.121
                            User time (sec):    15941.164
                          System time (sec):     1545.957
                         Elapsed time (sec):    17523.057
  
                   Maximum memory used (kb):     2465664.
                   Average memory used (kb):          N/A
  
                          Minor page faults:    417758790
                          Major page faults:            0
                 Voluntary context switches:       547341
