
                                 *****************
                                 * O   R   C   A *
                                 *****************

                                            #,                                       
                                            ###                                      
                                            ####                                     
                                            #####                                    
                                            ######                                   
                                           ########,                                 
                                     ,,################,,,,,                         
                               ,,#################################,,                 
                          ,,##########################################,,             
                       ,#########################################, ''#####,          
                    ,#############################################,,   '####,        
                  ,##################################################,,,,####,       
                ,###########''''           ''''###############################       
              ,#####''   ,,,,##########,,,,          '''####'''          '####       
            ,##' ,,,,###########################,,,                        '##       
           ' ,,###''''                  '''############,,,                           
         ,,##''                                '''############,,,,        ,,,,,,###''
      ,#''                                            '''#######################'''  
     '                                                          ''''####''''         
             ,#######,   #######,   ,#######,      ##                                
            ,#'     '#,  ##    ##  ,#'     '#,    #''#        ,####,   ,####,        
            ##       ##  ##   ,#'  ##            #'  '#       #'       #'  '#        
            ##       ##  #######   ##           ,######,      #####,   #    #        
            '#,     ,#'  ##    ##  '#,     ,#' ,#      #,     #,   #   #,  ,#        
             '#######'   ##     ##  '#######'  #'      '#     '####' # '####'        



                #########################################################
                #                        -***-                          #
                #          Department of theory and spectroscopy        #
                #                                                       #
                #                      Frank Neese                      #
                #                                                       #
                #     Directorship, Architecture, Infrastructure        #
                #                    SHARK, DRIVERS                     #
                #        Core code/Algorithms in most modules           #
                #                                                       #
                #        Max Planck Institute fuer Kohlenforschung      #
                #                Kaiser Wilhelm Platz 1                 #
                #                 D-45470 Muelheim/Ruhr                 #
                #                      Germany                          #
                #                                                       #
                #                  All rights reserved                  #
                #                        -***-                          #
                #########################################################


                         Program Version 6.0.0  -   RELEASE  -


 With contributions from (in alphabetic order):
   Daniel Aravena         : Magnetic Suceptibility
   Michael Atanasov       : Ab Initio Ligand Field Theory (pilot matlab implementation)
   Alexander A. Auer      : GIAO ZORA, VPT2 properties, NMR spectrum
   Ute Becker             : All parallelization in ORCA, NUMFREQ, NUMCALC
   Giovanni Bistoni       : ED, misc. LED, open-shell LED, HFLD
   Martin Brehm           : Molecular dynamics
   Dmytro Bykov           : pre 5.0 version of the SCF Hessian
   Marcos Casanova-Páez   : Triplet and SCS-CIS(D). UHF-(DLPNO)-IP/EA/STEOM-CCSD. UHF-CVS-IP/STEOM-CCSD
   Vijay G. Chilkuri      : MRCI spin determinant printing, contributions to CSF-ICE
   Pauline Colinet        : FMM embedding
   Dipayan Datta          : RHF DLPNO-CCSD density
   Achintya Kumar Dutta   : EOM-CC, STEOM-CC
   Nicolas Foglia         : Exact transition moments, OPA infrastructure, MCD improvements
   Dmitry Ganyushin       : Spin-Orbit,Spin-Spin,Magnetic field MRCI
   Miquel Garcia          : C-PCM and meta-GGA Hessian, CCSD/C-PCM, Gaussian charge scheme
   Tiago L. C. Gouveia    : GS-ROHF, GS-ROCIS
   Yang Guo               : DLPNO-NEVPT2, F12-NEVPT2, CIM, IAO-localization
   Andreas Hansen         : Spin unrestricted coupled pair/coupled cluster methods
   Ingolf Harden          : AUTO-CI MPn and infrastructure 
   Benjamin Helmich-Paris : MC-RPA, TRAH-(SCF,CASSCF), AVAS, COSX integrals, SCF dyn. polar.
   Lee Huntington         : MR-EOM, pCC
   Robert Izsak           : Overlap fitted RIJCOSX, COSX-SCS-MP3, EOM
   Riya Kayal             : Wick's Theorem for AUTO-CI, AUTO-CI UHF-CCSDT
   Emily Kempfer          : AUTO-CI, RHF CISDT and CCSDT
   Christian Kollmar      : KDIIS, OOCD, Brueckner-CCSD(T), CCSD density, CASPT2, CASPT2-K, improved NEVPT2
   Axel Koslowski         : Symmetry handling
   Simone Kossmann        : Meta GGA functionals, TD-DFT gradient, OOMP2, (MP2 Hessian; deprecated post 5.0)
   Lucas Lang             : DCDCAS
   Marvin Lechner         : AUTO-CI (C++ implementation), FIC-MRCC
   Spencer Leger          : CASSCF response
   Dagmar Lenk            : GEPOL surface, SMD, ORCA-2-JSON
   Dimitrios Liakos       : Extrapolation schemes; Compound Job, initial MDCI parallelization
   Dimitrios Manganas     : Further ROCIS development; embedding schemes. LFT, Crystal Embedding
   Dimitrios Pantazis     : SARC Basis sets
   Anastasios Papadopoulos: AUTO-CI, single reference methods and gradients
   Taras Petrenko         : pre 6.0 DFT Hessian and TD-DFT gradient, (ASA, deprecated), ECA, 1-Electron XAS/XES, NRVS
   Peter Pinski           : DLPNO-MP2, DLPNO-MP2 Gradient
   Christoph Reimann      : Effective Core Potentials
   Marius Retegan         : Local ZFS, SOC
   Christoph Riplinger    : Optimizer, TS searches, QM/MM, DLPNO-CCSD(T), (RO)-DLPNO pert. Triples
   Michael Roemelt        : Original ROCIS implementation
   Masaaki Saitow         : Open-shell DLPNO-CCSD energy and density
   Barbara Sandhoefer     : DKH picture change effects
   Kantharuban Sivalingam : CASSCF convergence/infrastructure, NEVPT2 and variants, FIC-MRCI
   Bernardo de Souza      : ESD, SOC TD-DFT
   Georgi Stoychev        : AutoAux, RI-MP2 NMR, DLPNO-MP2 response, X2C
   Van Anh Tran           : RI-MP2 g-tensors
   Willem Van den Heuvel  : Paramagnetic NMR
   Zikuan Wang            : NOTCH, Electric field optimization 
   Frank Wennmohs         : Technical directorship and infrastructure
   Hang Xu                : AUTO-CI-Response properties 


 We gratefully acknowledge several colleagues who have allowed us to
 interface, adapt or use parts of their codes:
   Stefan Grimme, W. Hujo, H. Kruse, P. Pracht,  : VdW corrections, initial TS optimization,
                  C. Bannwarth, S. Ehlert,         DFT functionals, gCP, sTDA/sTD-DF
                  L. Wittmann, M. Mueller
   Ed Valeev, F. Pavosevic, A. Kumar             : LibInt (2-el integral package), F12 methods
   Garnet Chan, S. Sharma, J. Yang, R. Olivares  : DMRG
   Ulf Ekstrom                                   : XCFun DFT Library
   Mihaly Kallay                                 : mrcc  (arbitrary order and MRCC methods)
   Frank Weinhold                                : gennbo (NPA and NBO analysis)
   Simon Mueller                                 : openCOSMO-RS
   Christopher J. Cramer and Donald G. Truhlar   : smd solvation model
   Lars Goerigk                                  : TD-DFT with DH, B97 family of functionals
   V. Asgeirsson, H. Jonsson                     : NEB implementation
   FAccTs GmbH                                   : IRC, NEB, NEB-TS, DLPNO-Multilevel, CI-OPT
                                                   MM, QMMM, 2- and 3-layer-ONIOM, Crystal-QMMM,
                                                   LR-CPCM, SF, NACMEs, symmetry and pop. for TD-DFT,
                                                   nearIR, NL-DFT gradient (VV10), updates on ESD,
                                                   ML-optimized integration grids, MBIS, APM,
                                                   GOAT, DOCKER, SOLVATOR, interface openCOSMO-RS
   S Lehtola, MJT Oliveira, MAL Marques          : LibXC Library
   Liviu Ungur et al                             : ANISO software


 Your calculation uses the libint2 library for the computation of 2-el integrals
 For citations please refer to: http://libint.valeyev.net

 Your ORCA version has been built with support for libXC version: 6.2.2
 For citations please refer to: https://libxc.gitlab.io

 This ORCA versions uses:
   CBLAS   interface :  Fast vector & matrix operations
   LAPACKE interface :  Fast linear algebra routines
   SCALAPACK package :  Parallel linear algebra routines
   Shared memory     :  Shared parallel matrices
   BLAS/LAPACK       :  OpenBLAS 0.3.27  USE64BITINT DYNAMIC_ARCH NO_AFFINITY Sandybridge SINGLE_THREADED
        Core in use  :  Sandybridge
   Copyright (c) 2011-2014, The OpenBLAS Project


NOTE: MaxCore=3500 MB was set to SCF,MP2,MDCI,CIPSI,MRCI and CIS
      => If you want to overwrite this, your respective input block should be placed after the MaxCore statement
Your calculation utilizes the atom-pairwise dispersion correction
with the Becke-Johnson damping scheme (D3BJ)


Your calculation utilizes the SMD solvation module
Please cite in your paper:
A.V. Marenich, C.J. Cramer, D.G. Truhlar J. Phys. Chem. B, 113, (2009), 6378 

Warning: RI is on but no J-basis has been assigned. Assigning Def2/J (nothing to worry about!)
================================================================================

----- Orbital basis set information -----
Your calculation utilizes the basis: aug-cc-pVTZ 
    H, B-Ne : Obtained from the ccRepo (grant-hill.group.shef.ac.uk/ccrepo) Feb. 2017
              R. A. Kendall, T. H. Dunning, Jr., R. J. Harrison, J. Chem. Phys. 96, 6796 (1992)
         He : Obtained from the ccRepo (grant-hill.group.shef.ac.uk/ccrepo) Feb. 2017
              D. E. Woon, T. H. Dunning, Jr., J. Chem. Phys. 100, 2975 (1994)
  Li-Be, Na : Obtained from the ccRepo (grant-hill.group.shef.ac.uk/ccrepo) Feb. 2017
              B. P. Prascher, D. E. Woon, K. A. Peterson, T. H. Dunning, Jr., A. K. Wilson, Theor. Chem. Acc. 128, 69 (2011)
         Mg : Obtained from the Peterson Research Group Website (tyr0.chem.wsu.edu/~kipeters) Feb. 2017
              B. P. Prascher, D. E. Woon, K. A. Peterson, T. H. Dunning, Jr., A. K. Wilson, Theor. Chem. Acc. 128, 69 (2011)
      Al-Ar : Obtained from the ccRepo (grant-hill.group.shef.ac.uk/ccrepo) Feb. 2017
              D. E. Woon, T. H. Dunning, Jr., J. Chem. Phys. 98, 1358 (1993)
      Sc-Zn : Obtained from the ccRepo (grant-hill.group.shef.ac.uk/ccrepo) Feb. 2017
              N. B. Balabanov, K. A. Peterson, J. Chem. Phys. 123, 064107 (2005)
              N. B. Balabanov, K. A. Peterson, J. Chem. Phys. 125, 074110 (2006)
      Ga-Kr : Obtained from the ccRepo (grant-hill.group.shef.ac.uk/ccrepo) Feb. 2017
              A. K. Wilson, D. E. Woon, K. A. Peterson, T. H. Dunning, Jr., J. Chem. Phys. 110, 7667 (1999)
     Ag, Au : Obtained from the Peterson Research Group Website (tyr0.chem.wsu.edu/~kipeters) Feb. 2017
              K. A. Peterson, C. Puzzarini, Theor. Chem. Acc. 114, 283 (2005)

----- AuxJ basis set information -----
Your calculation utilizes the auxiliary basis: def2/J
   F. Weigend, Phys. Chem. Chem. Phys. 8, 1057 (2006).

================================================================================
                                        WARNINGS
                       Please study these warnings very carefully!
================================================================================

WARNING: Old DensityContainer found on disk!
         Will remove this file - 
         If you want to keep old densities, please start your calculation with a different basename. 

Using LibXC functional ID 497 : Re-regularized SCAN exchange by Furness et al
[ 1]  J. W. Furness, A. D. Kaplan, J. Ning, J. P. Perdew, and J. Sun.,  J. Phys. Chem. Lett. 11, 8208-8215 (2020)
[ 2]  J. W. Furness, A. D. Kaplan, J. Ning, J. P. Perdew, and J. Sun.,  J. Phys. Chem. Lett. 11, 9248-9248 (2020)
Using LibXC functional ID 498 : Re-regularized SCAN correlation by Furness et al
[ 1]  J. W. Furness, A. D. Kaplan, J. Ning, J. P. Perdew, and J. Sun.,  J. Phys. Chem. Lett. 11, 8208-8215 (2020)
[ 2]  J. W. Furness, A. D. Kaplan, J. Ning, J. P. Perdew, and J. Sun.,  J. Phys. Chem. Lett. 11, 9248-9248 (2020)
Using LibXC functional ID 497 : Re-regularized SCAN exchange by Furness et al
[ 1]  J. W. Furness, A. D. Kaplan, J. Ning, J. P. Perdew, and J. Sun.,  J. Phys. Chem. Lett. 11, 8208-8215 (2020)
[ 2]  J. W. Furness, A. D. Kaplan, J. Ning, J. P. Perdew, and J. Sun.,  J. Phys. Chem. Lett. 11, 9248-9248 (2020)
Using LibXC functional ID 498 : Re-regularized SCAN correlation by Furness et al
[ 1]  J. W. Furness, A. D. Kaplan, J. Ning, J. P. Perdew, and J. Sun.,  J. Phys. Chem. Lett. 11, 8208-8215 (2020)
[ 2]  J. W. Furness, A. D. Kaplan, J. Ning, J. P. Perdew, and J. Sun.,  J. Phys. Chem. Lett. 11, 9248-9248 (2020)

WARNING: Geometry Optimization
  ===> : Switching off AutoStart
         For restart on a previous wavefunction, please use MOREAD

================================================================================
                                       INPUT FILE
================================================================================
NAME = cs_rporg_009_red_opt_07.inp
|  1> !r2SCANh opt aug-cc-pVTZ d3 TightSCF SlowConv RIJCOSX defgrid2
|  2> 
|  3> %pal
|  4> nprocs 8
|  5> end
|  6> 
|  7> %scf
|  8> MaxIter 1500
|  9> end
| 10> 
| 11> %maxcore 3500
| 12> 
| 13> !CPCM
| 14> %cpcm smd true
| 15> SMDsolvent "MeCN"
| 16> surfacetype gepol_ses
| 17> rsolv 2.19
| 18> end 
| 19> 
| 20> * xyz 0 1
| 21>   C           0.86854883905712     -1.20299952045828      0.00008992918930
| 22>   C           1.23391952412192      0.14869565589549      0.00018954538621
| 23>   C           0.20774097208029      1.10218127411109      0.00019805288012
| 24>   C          -1.14084727268388      0.75216110362260      0.00006959836456
| 25>   C          -1.49190324535276     -0.60923786190636     -0.00007128688741
| 26>   C          -0.47060173327016     -1.56400517971141     -0.00005419878875
| 27>   H          -0.73629826035774     -2.61575934003162      0.00019750376119
| 28>   C          -2.93282137789164     -1.03524225090155     -0.00022152688036
| 29>   H          -3.01761262312968     -2.12248558304407      0.00004075984467
| 30>   H          -3.46171653688882     -0.65310795364597     -0.87872183720639
| 31>   H          -3.46206161703017     -0.65273935165580      0.87787911643130
| 32>   C          -2.19928764888224      1.82026592812720      0.00004646023014
| 33>   H          -2.84579444762244      1.74164595096130      0.87929405552999
| 34>   H          -2.84778429383605      1.73937856316014     -0.87749918711877
| 35>   H          -1.74958388351305      2.81378056218161     -0.00182073940709
| 36>   H           0.47527994511518      2.15443982369113      0.00007696435884
| 37>   C           2.62571657262143      0.61108651259729      0.00035855728981
| 38>   C           3.72762432264113     -0.14624967190401     -0.00036325431535
| 39>   H           3.69494754104110     -1.23020582479664     -0.00129405966314
| 40>   H           4.71027196306098      0.30996412422180      0.00002712889521
| 41>   H           2.74299401288701      1.69198153599564      0.00092566900697
| 42>   H           1.62650074783247     -1.97700089650959      0.00017274909893
| 43> *
| 44> 
| 45>                          ****END OF INPUT****
================================================================================

                       *****************************
                       * Geometry Optimization Run *
                       *****************************

Geometry optimization settings:
Update method            Update   .... BFGS
Choice of coordinates    CoordSys .... (2022) Redundant Internals
Initial Hessian          InHess   .... Almloef's Model
Max. no of cycles        MaxIter  .... 66

Convergence Tolerances:
Energy Change            TolE     ....  5.0000e-06 Eh
Max. Gradient            TolMAXG  ....  3.0000e-04 Eh/bohr
RMS Gradient             TolRMSG  ....  1.0000e-04 Eh/bohr
Max. Displacement        TolMAXD  ....  4.0000e-03 bohr
RMS Displacement         TolRMSD  ....  2.0000e-03 bohr
Strict Convergence                .... False

------------------------------------------------------------------------------
                        ORCA OPTIMIZATION COORDINATE SETUP
------------------------------------------------------------------------------

The optimization will be done in redundant internal coordinates (2022)
Making redundant internal coordinates   ...  (2022 redundants) done
Evaluating the initial hessian          ...  (Almloef) done
Evaluating the coordinates              ...  done
Calculating the B-matrix                .... done
Calculating the G-matrix                .... done
Diagonalizing the G-matrix              .... done
Small eigenvalue found = 1.982e-02
The first mode is                       ....   40
The number of degrees of freedom        ....   60

    -----------------------------------------------------------------
                    Redundant Internal Coordinates


    -----------------------------------------------------------------
         Definition                    Initial Value    Approx d2E/dq
    -----------------------------------------------------------------
      1. B(C   1,C   0)                  1.4002         0.601806   
      2. B(C   2,C   1)                  1.4008         0.600543   
      3. B(C   3,C   2)                  1.3933         0.617333   
      4. B(C   4,C   3)                  1.4059         0.589276   
      5. B(C   5,C   4)                  1.3981         0.606515   
      6. B(C   5,C   0)                  1.3870         0.631820   
      7. B(H   6,C   5)                  1.0848         0.367051   
      8. B(C   7,C   4)                  1.5026         0.413177   
      9. B(H   8,C   7)                  1.0905         0.359380   
     10. B(H   9,C   7)                  1.0943         0.354440   
     11. B(H  10,C   7)                  1.0943         0.354473   
     12. B(C  11,C   3)                  1.5037         0.411454   
     13. B(H  12,C  11)                  1.0942         0.354613   
     14. B(H  13,C  11)                  1.0942         0.354644   
     15. B(H  14,C  11)                  1.0906         0.359368   
     16. B(H  15,C   2)                  1.0857         0.365784   
     17. B(C  16,C   1)                  1.4666         0.471557   
     18. B(C  17,C  16)                  1.3371         0.758898   
     19. B(H  18,C  17)                  1.0844         0.367519   
     20. B(H  19,C  17)                  1.0834         0.368955   
     21. B(H  20,C  16)                  1.0872         0.363771   
     22. B(H  21,C   0)                  1.0833         0.369054   
     23. A(C   5,C   0,H  21)          119.3127         0.355517   
     24. A(C   1,C   0,C   5)          120.2129         0.433216   
     25. A(C   1,C   0,H  21)          120.4743         0.352597   
     26. A(C   0,C   1,C  16)          123.5037         0.411161   
     27. A(C   0,C   1,C   2)          117.7712         0.429283   
     28. A(C   2,C   1,C  16)          118.7251         0.411008   
     29. A(C   3,C   2,H  15)          118.8151         0.353588   
     30. A(C   1,C   2,H  15)          118.6317         0.351942   
     31. A(C   1,C   2,C   3)          122.5531         0.431251   
     32. A(C   2,C   3,C   4)          119.0094         0.429787   
     33. A(C   4,C   3,C  11)          120.8009         0.399887   
     34. A(C   2,C   3,C  11)          120.1898         0.403177   
     35. A(C   3,C   4,C   5)          118.6121         0.428426   
     36. A(C   5,C   4,C   7)          120.4582         0.402219   
     37. A(C   3,C   4,C   7)          120.9297         0.400181   
     38. A(C   0,C   5,C   4)          121.8414         0.433824   
     39. A(C   0,C   5,H   6)          119.2646         0.355189   
     40. A(C   4,C   5,H   6)          118.8940         0.352738   
     41. A(H   8,C   7,H  10)          108.1009         0.290030   
     42. A(C   4,C   7,H  10)          111.3837         0.328890   
     43. A(H   8,C   7,H   9)          108.1049         0.290026   
     44. A(C   4,C   7,H   9)          111.3803         0.328885   
     45. A(C   4,C   7,H   8)          110.9295         0.329638   
     46. A(H   9,C   7,H  10)          106.7609         0.289401   
     47. A(H  13,C  11,H  14)          108.0821         0.290051   
     48. A(H  12,C  11,H  14)          108.0884         0.290047   
     49. A(C   3,C  11,H  14)          110.9070         0.329409   
     50. A(H  12,C  11,H  13)          106.7967         0.289445   
     51. A(C   3,C  11,H  13)          111.3884         0.328690   
     52. A(C   3,C  11,H  12)          111.3982         0.328685   
     53. A(C   1,C  16,C  17)          127.1216         0.428524   
     54. A(C  17,C  16,H  20)          118.3082         0.365899   
     55. A(C   1,C  16,H  20)          114.5702         0.337628   
     56. A(C  16,C  17,H  19)          120.5954         0.366787   
     57. A(C  16,C  17,H  18)          122.7739         0.366542   
     58. A(H  18,C  17,H  19)          116.6307         0.292891   
     59. D(C   2,C   1,C   0,C   5)      0.0028         0.024975   
     60. D(C  16,C   1,C   0,C   5)    179.9993         0.024975   
     61. D(C   2,C   1,C   0,H  21)   -179.9943         0.024975   
     62. D(C  16,C   1,C   0,H  21)      0.0023         0.024975   
     63. D(H  15,C   2,C   1,C   0)   -179.9881         0.024865   
     64. D(H  15,C   2,C   1,C  16)      0.0152         0.024865   
     65. D(C   3,C   2,C   1,C  16)   -179.9988         0.024865   
     66. D(C   3,C   2,C   1,C   0)     -0.0021         0.024865   
     67. D(C  11,C   3,C   2,H  15)     -0.0123         0.026357   
     68. D(C  11,C   3,C   2,C   1)   -179.9983         0.026357   
     69. D(C   4,C   3,C   2,H  15)    179.9862         0.026357   
     70. D(C   4,C   3,C   2,C   1)      0.0001         0.026357   
     71. D(C   7,C   4,C   3,C   2)   -179.9996         0.023894   
     72. D(C   5,C   4,C   3,C  11)    179.9995         0.023894   
     73. D(C   5,C   4,C   3,C   2)      0.0011         0.023894   
     74. D(C   7,C   4,C   3,C  11)     -0.0012         0.023894   
     75. D(H   6,C   5,C   4,C   7)     -0.0210         0.025390   
     76. D(C   0,C   5,C   4,C   7)   -179.9997         0.025390   
     77. D(C   0,C   5,C   4,C   3)     -0.0003         0.025390   
     78. D(H   6,C   5,C   0,H  21)      0.0169         0.027689   
     79. D(H   6,C   5,C   0,C   1)   -179.9802         0.027689   
     80. D(H   6,C   5,C   4,C   3)    179.9783         0.025390   
     81. D(C   4,C   5,C   0,H  21)    179.9954         0.027689   
     82. D(C   4,C   5,C   0,C   1)     -0.0016         0.027689   
     83. D(H  10,C   7,C   4,C   3)    -59.5165         0.012637   
     84. D(H   9,C   7,C   4,C   5)   -120.4467         0.012637   
     85. D(H   9,C   7,C   4,C   3)     59.5540         0.012637   
     86. D(H   8,C   7,C   4,C   5)      0.0195         0.012637   
     87. D(H   8,C   7,C   4,C   3)   -179.9798         0.012637   
     88. D(H  12,C  11,C   3,C   4)     59.6700         0.012535   
     89. D(H  12,C  11,C   3,C   2)   -120.3317         0.012535   
     90. D(H  14,C  11,C   3,C   2)      0.1103         0.012535   
     91. D(H  13,C  11,C   3,C   4)    -59.4608         0.012535   
     92. D(H  13,C  11,C   3,C   2)    120.5376         0.012535   
     93. D(H  20,C  16,C   1,C   2)      0.0258         0.015141   
     94. D(H  20,C  16,C   1,C   0)   -179.9707         0.015141   
     95. D(C  17,C  16,C   1,C   2)   -179.9602         0.015141   
     96. D(C  17,C  16,C   1,C   0)      0.0433         0.015141   
     97. D(H  19,C  17,C  16,H  20)      0.0250         0.041167   
     98. D(H  19,C  17,C  16,C   1)   -179.9894         0.041167   
     99. D(H  18,C  17,C  16,H  20)   -179.9787         0.041167   
    100. D(H  18,C  17,C  16,C   1)      0.0069         0.041167   
    -----------------------------------------------------------------

Number of atoms                         .... 22
Number of degrees of freedom            .... 100


         *************************************************************
         *                GEOMETRY OPTIMIZATION CYCLE   1            *
         *************************************************************
---------------------------------
CARTESIAN COORDINATES (ANGSTROEM)
---------------------------------
  C      0.868549   -1.203000    0.000090
  C      1.233920    0.148696    0.000190
  C      0.207741    1.102181    0.000198
  C     -1.140847    0.752161    0.000070
  C     -1.491903   -0.609238   -0.000071
  C     -0.470602   -1.564005   -0.000054
  H     -0.736298   -2.615759    0.000198
  C     -2.932821   -1.035242   -0.000222
  H     -3.017613   -2.122486    0.000041
  H     -3.461717   -0.653108   -0.878722
  H     -3.462062   -0.652739    0.877879
  C     -2.199288    1.820266    0.000046
  H     -2.845794    1.741646    0.879294
  H     -2.847784    1.739379   -0.877499
  H     -1.749584    2.813781   -0.001821
  H      0.475280    2.154440    0.000077
  C      2.625717    0.611087    0.000359
  C      3.727624   -0.146250   -0.000363
  H      3.694948   -1.230206   -0.001294
  H      4.710272    0.309964    0.000027
  H      2.742994    1.691982    0.000926
  H      1.626501   -1.977001    0.000173

----------------------------
CARTESIAN COORDINATES (A.U.)
----------------------------
  NO LB      ZA    FRAG     MASS         X           Y           Z
   0 C     6.0000    0    12.011    1.641319   -2.273340    0.000170
   1 C     6.0000    0    12.011    2.331770    0.280994    0.000358
   2 C     6.0000    0    12.011    0.392574    2.082821    0.000374
   3 C     6.0000    0    12.011   -2.155889    1.421378    0.000132
   4 C     6.0000    0    12.011   -2.819289   -1.151293   -0.000135
   5 C     6.0000    0    12.011   -0.889308   -2.955541   -0.000102
   6 H     1.0000    0     1.008   -1.391402   -4.943069    0.000373
   7 C     6.0000    0    12.011   -5.542229   -1.956324   -0.000419
   8 H     1.0000    0     1.008   -5.702461   -4.010916    0.000077
   9 H     1.0000    0     1.008   -6.541696   -1.234195   -1.660544
  10 H     1.0000    0     1.008   -6.542348   -1.233499    1.658951
  11 C     6.0000    0    12.011   -4.156051    3.439804    0.000088
  12 H     1.0000    0     1.008   -5.377772    3.291234    1.661625
  13 H     1.0000    0     1.008   -5.381532    3.286949   -1.658233
  14 H     1.0000    0     1.008   -3.306234    5.317275   -0.003441
  15 H     1.0000    0     1.008    0.898149    4.071301    0.000145
  16 C     6.0000    0    12.011    4.961885    1.154786    0.000678
  17 C     6.0000    0    12.011    7.044189   -0.276372   -0.000686
  18 H     1.0000    0     1.008    6.982439   -2.324752   -0.002445
  19 H     1.0000    0     1.008    8.901124    0.585747    0.000051
  20 H     1.0000    0     1.008    5.183507    3.197382    0.001749
  21 H     1.0000    0     1.008    3.073641   -3.735990    0.000326

--------------------------------
INTERNAL COORDINATES (ANGSTROEM)
--------------------------------
 C      0   0   0     0.000000000000     0.00000000     0.00000000
 C      1   0   0     1.400205555340     0.00000000     0.00000000
 C      2   1   0     1.400777371636   117.77116328     0.00000000
 C      3   2   1     1.393271111509   122.55311848     0.00000000
 C      4   3   2     1.405932949731   119.00935784     0.00000000
 C      1   2   3     1.386956871049   120.21293220     0.00000000
 H      6   1   2     1.084795612828   119.26460243   180.01982544
 C      5   4   3     1.502572735908   120.92973212   180.00038189
 H      8   5   4     1.090544674624   110.92952095   180.02020522
 H      8   5   4     1.094312343708   111.38034173    59.55402586
 H      8   5   4     1.094287182799   111.38371259   300.48348781
 C      4   3   2     1.503710060694   120.18978343   180.00173180
 H     12   4   3     1.094179361653   111.39820474   239.66834028
 H     12   4   3     1.094155851563   111.38840092   120.53761922
 H     12   4   3     1.090554121125   110.90698202     0.11027508
 H      3   2   1     1.085737156000   118.63174243   180.01189387
 C      2   1   3     1.466596180664   123.50370779   179.99653318
 C     17   2   1     1.337071167485   127.12160753     0.04327181
 H     18  17   2     1.084448975217   122.77386944     0.00000000
 H     18  17   2     1.083387080132   120.59538898   180.01058187
 H     17   2   1     1.087238874957   114.57020329   180.02932502
 H      1   2   3     1.083314004804   120.47434502   180.00572777

---------------------------
INTERNAL COORDINATES (A.U.)
---------------------------
 C      0   0   0     0.000000000000     0.00000000     0.00000000
 C      1   0   0     2.646005030788     0.00000000     0.00000000
 C      2   1   0     2.647085606986   117.77116328     0.00000000
 C      3   2   1     2.632900831056   122.55311848     0.00000000
 C      4   3   2     2.656828237647   119.00935784     0.00000000
 C      1   2   3     2.620968645843   120.21293220     0.00000000
 H      6   1   2     2.049966619525   119.26460243   180.01982544
 C      5   4   3     2.839450967163   120.92973212   180.00038189
 H      8   5   4     2.060830771846   110.92952095   180.02020522
 H      8   5   4     2.067950634578   111.38034173    59.55402586
 H      8   5   4     2.067903087351   111.38371259   300.48348781
 C      4   3   2     2.841600199534   120.18978343   180.00173180
 H     12   4   3     2.067699334913   111.39820474   239.66834028
 H     12   4   3     2.067654907281   111.38840092   120.53761922
 H     12   4   3     2.060848623145   110.90698202     0.11027508
 H      3   2   1     2.051745878263   118.63174243   180.01189387
 C      2   1   3     2.771465130510   123.50370779   179.99653318
 C     17   2   1     2.526698328110   127.12160753     0.04327181
 H     18  17   2     2.049311569371   122.77386944     0.00000000
 H     18  17   2     2.047304878478   120.59538898   180.01058187
 H     17   2   1     2.054583715822   114.57020329   180.02932502
 H      1   2   3     2.047166786121   120.47434502   180.00572777

---------------------
BASIS SET INFORMATION
---------------------
There are 2 groups of distinct atoms

 Group   1 Type C   : 19s6p3d2f contracted to 5s4p3d2f pattern {88111/3111/111/11}
 Group   2 Type H   : 6s3p2d contracted to 4s3p2d pattern {3111/111/11}

Atom   0C    basis set group =>   1
Atom   1C    basis set group =>   1
Atom   2C    basis set group =>   1
Atom   3C    basis set group =>   1
Atom   4C    basis set group =>   1
Atom   5C    basis set group =>   1
Atom   6H    basis set group =>   2
Atom   7C    basis set group =>   1
Atom   8H    basis set group =>   2
Atom   9H    basis set group =>   2
Atom  10H    basis set group =>   2
Atom  11C    basis set group =>   1
Atom  12H    basis set group =>   2
Atom  13H    basis set group =>   2
Atom  14H    basis set group =>   2
Atom  15H    basis set group =>   2
Atom  16C    basis set group =>   1
Atom  17C    basis set group =>   1
Atom  18H    basis set group =>   2
Atom  19H    basis set group =>   2
Atom  20H    basis set group =>   2
Atom  21H    basis set group =>   2
---------------------------------
AUXILIARY/J BASIS SET INFORMATION
---------------------------------
There are 2 groups of distinct atoms

 Group   1 Type C   : 12s5p4d2f1g contracted to 6s4p3d1f1g pattern {711111/2111/211/2/1}
 Group   2 Type H   : 5s2p1d contracted to 3s1p1d pattern {311/2/1}

Atom   0C    basis set group =>   1
Atom   1C    basis set group =>   1
Atom   2C    basis set group =>   1
Atom   3C    basis set group =>   1
Atom   4C    basis set group =>   1
Atom   5C    basis set group =>   1
Atom   6H    basis set group =>   2
Atom   7C    basis set group =>   1
Atom   8H    basis set group =>   2
Atom   9H    basis set group =>   2
Atom  10H    basis set group =>   2
Atom  11C    basis set group =>   1
Atom  12H    basis set group =>   2
Atom  13H    basis set group =>   2
Atom  14H    basis set group =>   2
Atom  15H    basis set group =>   2
Atom  16C    basis set group =>   1
Atom  17C    basis set group =>   1
Atom  18H    basis set group =>   2
Atom  19H    basis set group =>   2
Atom  20H    basis set group =>   2
Atom  21H    basis set group =>   2


           ************************************************************
           *        Program running with 8 parallel MPI-processes     *
           *              working on a common directory               *
           ************************************************************
------------------------------------------------------------------------------
                             ORCA STARTUP CALCULATIONS
                           -- RI-GTO INTEGRALS CHOSEN --
------------------------------------------------------------------------------
------------------------------------------------------------------------------
                   ___                                                        
                  /   \      - P O W E R E D   B Y -                         
                 /     \                                                     
                 |  |  |   _    _      __       _____    __    __             
                 |  |  |  | |  | |    /  \     |  _  \  |  |  /  |          
                  \  \/   | |  | |   /    \    | | | |  |  | /  /          
                 / \  \   | |__| |  /  /\  \   | |_| |  |  |/  /          
                |  |  |   |  __  | /  /__\  \  |    /   |      \           
                |  |  |   | |  | | |   __   |  |    \   |  |\   \          
                \     /   | |  | | |  |  |  |  | |\  \  |  | \   \       
                 \___/    |_|  |_| |__|  |__|  |_| \__\ |__|  \__/        
                                                                              
                      - O R C A' S   B I G   F R I E N D -                    
                                      &                                       
                       - I N T E G R A L  F E E D E R -                       
                                                                              
 v1 FN, 2020, v2 2021, v3 2022-2024                                           
------------------------------------------------------------------------------


----------------------
SHARK INTEGRAL PACKAGE
----------------------

Number of atoms                             ...     22
Number of basis functions                   ...    796
Number of shells                            ...    308
Maximum angular momentum                    ...      3
Integral batch strategy                     ... SHARK/LIBINT Hybrid
RI-J (if used) integral strategy            ... SPLIT-RIJ (Revised 2003 algorithm where possible)
Printlevel                                  ...      1
Contraction scheme used                     ... PARTIAL GENERAL contraction
Prescreening option                         ... SCHWARTZ
   Thresh                                   ... 2.500e-11
   Tcut                                     ... 2.500e-12
   Tpresel                                  ... 2.500e-12 
Coulomb Range Separation                    ... NOT USED
Exchange Range Separation                   ... NOT USED
Multipole approximations                    ... NOT USED
Finite Nucleus Model                        ... NOT USED
CABS basis                                  ... NOT available
Auxiliary Coulomb fitting basis             ... AVAILABLE
   # of basis functions in Aux-J            ...    622
   # of shells in Aux-J                     ...    210
   Maximum angular momentum in Aux-J        ...      4
Auxiliary J/K fitting basis                 ... NOT available
Auxiliary Correlation fitting basis         ... NOT available
Auxiliary 'external' fitting basis          ... NOT available

Checking pre-screening integrals            ... done (  0.1 sec) Dimension = 308
Save PGC pre-screening integrals            ... done (  0.1 sec) Dimension = 308
Calculate PGC overlap integrals             ... done (  0.2 sec) Dimension = 248
Calculating pre-screening integrals (ORCA)  ... done (  0.3 sec) Dimension = 248
Check shell pair data                       ... done (  0.0 sec)
Shell pair information
Shell pair cut-off parameter TPreSel        ...   2.5e-12
Total number of shell pairs                 ...     47586
Shell pairs after pre-screening             ...     39528
Total number of primitive shell pairs       ...     62194
Primitive shell pairs kept                  ...     47634
          la=0 lb=0:   8983 shell pairs
          la=1 lb=0:  10195 shell pairs
          la=1 lb=1:   2686 shell pairs
          la=2 lb=0:   7133 shell pairs
          la=2 lb=1:   3727 shell pairs
          la=2 lb=2:   1338 shell pairs
          la=3 lb=0:   2805 shell pairs
          la=3 lb=1:   1433 shell pairs
          la=3 lb=2:   1022 shell pairs
          la=3 lb=3:    206 shell pairs

Calculating one electron integrals          ... done (  0.1 sec)
Calculating RI/J V-Matrix + Cholesky decomp.... done (  0.1 sec)
Calculating Nuclear repulsion               ... done (  0.0 sec) ENN=    481.405741094726 Eh

Diagonalization of the overlap matrix:
Smallest eigenvalue                        ... 3.540e-07
Time for diagonalization                   ...    0.170 sec
Threshold for overlap eigenvalues          ... 1.000e-07
Number of eigenvalues below threshold      ... 0

IMPORTANT:
Smallest eigenvalue of S below the DiffSThresh (1.000e-06) while
Thresh>1e-12 and/or TCut>1e-13! In order to avoid SCF convergence issues,
Thresh will be set to at least 1e-12 and TCut to at least 1e-13.
This can be turned off by adding %SCF DiffSThresh -1 END to the input.

Time for construction of square roots      ...    0.122 sec
Total time needed                          ...    0.341 sec

-------------------
DFT GRID GENERATION
-------------------

General Integration Accuracy     IntAcc      ... 4.388
Radial Grid Type                 RadialGrid  ... OptM3 with GC (2021)
Angular Grid (max. ang.)         AngularGrid ... 4 (Lebedev-302)
Angular grid pruning method      GridPruning ... 4 (adaptive)
Weight generation scheme         WeightScheme... mBecke (2022)
Basis function cutoff            BFCut       ... 1.0000e-11
Integration weight cutoff        WCut        ... 1.0000e-14
Partially contracted basis set               ... off
Rotationally invariant grid construction     ... off
Angular grids for H and He will be reduced by one unit
Diffuse basis detected: some atoms will have their outermost
                        angular grid increased by 1.

Total number of grid points                  ...   103147
Total number of batches                      ...     1623
Average number of points per batch           ...       63
Average number of grid points per atom       ...     4688

---------------------
SHARK GRID GENERATION
---------------------

General Integration Accuracy     IntAcc      ... 4.388
Radial Grid Type                 RadialGrid  ... OptM3 with GC (2021)
Angular Grid (max. ang.)         AngularGrid ... 4 (Lebedev-302)
Angular grid pruning method      GridPruning ... 4 (adaptive)
Weight generation scheme         WeightScheme... mBecke (2022)
Basis function cutoff            BFCut       ... 1.0000e-11
Integration weight cutoff        WCut        ... 1.0000e-14
Partially contracted basis set               ... off
Rotationally invariant grid construction     ... off
Angular grids for H and He will be reduced by one unit
Diffuse basis detected: some atoms will have their outermost
                        angular grid increased by 1.
Steep s-basis detected: some atoms will have their radial
                        grid points doubled.

Total number of grid points                  ...   165853
Total number of batches                      ...     2605
Average number of points per batch           ...       63
Average number of grid points per atom       ...     7539

--------------------
COSX GRID GENERATION
--------------------

GRIDX 1
-------
General Integration Accuracy     IntAcc      ... 3.816
Radial Grid Type                 RadialGrid  ... OptM3 with GC (2021)
Angular Grid (max. ang.)         AngularGrid ... 1 (Lebedev-50)
Angular grid pruning method      GridPruning ... 4 (adaptive)
Weight generation scheme         WeightScheme... mBecke (2022)
Basis function cutoff            BFCut       ... 1.0000e-11
Integration weight cutoff        WCut        ... 1.0000e-14
Partially contracted basis set               ... on
Rotationally invariant grid construction     ... off
Angular grids for H and He will be reduced by one unit
Diffuse basis detected: some atoms will have their outermost
                        angular grid increased by 1.

Total number of grid points                  ...    12913
Total number of batches                      ...      113
Average number of points per batch           ...      114
Average number of grid points per atom       ...      587
UseSFitting                                  ... on

GRIDX 2
-------
General Integration Accuracy     IntAcc      ... 4.020
Radial Grid Type                 RadialGrid  ... OptM3 with GC (2021)
Angular Grid (max. ang.)         AngularGrid ... 2 (Lebedev-110)
Angular grid pruning method      GridPruning ... 4 (adaptive)
Weight generation scheme         WeightScheme... mBecke (2022)
Basis function cutoff            BFCut       ... 1.0000e-11
Integration weight cutoff        WCut        ... 1.0000e-14
Partially contracted basis set               ... on
Rotationally invariant grid construction     ... off
Angular grids for H and He will be reduced by one unit
Diffuse basis detected: some atoms will have their outermost
                        angular grid increased by 1.

Total number of grid points                  ...    30621
Total number of batches                      ...      251
Average number of points per batch           ...      121
Average number of grid points per atom       ...     1392
UseSFitting                                  ... on

GRIDX 3
-------
General Integration Accuracy     IntAcc      ... 4.338
Radial Grid Type                 RadialGrid  ... OptM3 with GC (2021)
Angular Grid (max. ang.)         AngularGrid ... 3 (Lebedev-194)
Angular grid pruning method      GridPruning ... 4 (adaptive)
Weight generation scheme         WeightScheme... mBecke (2022)
Basis function cutoff            BFCut       ... 1.0000e-11
Integration weight cutoff        WCut        ... 1.0000e-14
Partially contracted basis set               ... on
Rotationally invariant grid construction     ... off
Angular grids for H and He will be reduced by one unit
Diffuse basis detected: some atoms will have their outermost
                        angular grid increased by 1.

Total number of grid points                  ...    68249
Total number of batches                      ...      546
Average number of points per batch           ...      124
Average number of grid points per atom       ...     3102
UseSFitting                                  ... on
Initializing property integral containers    ... done (  0.2 sec)

SHARK setup successfully completed in   9.3 seconds

Maximum memory used throughout the entire STARTUP-calculation: 81.6 MB


           ************************************************************
           *        Program running with 8 parallel MPI-processes     *
           *              working on a common directory               *
           ************************************************************
-------------------------------------------------------------------------------
                                 ORCA GUESS
                   Start orbitals & Density for SCF / CASSCF
-------------------------------------------------------------------------------

------------
SCF SETTINGS
------------
Hamiltonian:
 Density Functional     Method          .... DFT(GTOs)
  Functional kind                       .... Exchange
  Functional name                       .... Re-regularized SCAN exchange by Furness et al
  Functional family                     .... MGGA
  Functional refs                              
    [ 0] J. W. Furness, A. D. Kaplan, J. Ning, J. P. Perdew, and J. Sun.,  J. Phys. Chem. Lett. 11, 8208-8215 (2020), doi: 10.1021/acs.jpclett.0c02405
    [ 1] J. W. Furness, A. D. Kaplan, J. Ning, J. P. Perdew, and J. Sun.,  J. Phys. Chem. Lett. 11, 9248-9248 (2020), doi: 10.1021/acs.jpclett.0c03077
  Functional external parameters        .... 6
    Parameter  0 _c1        =  6.670000e-01 : c1 parameter        
    Parameter  1 _c2        =  8.000000e-01 : c2 parameter        
    Parameter  2 _d         =  1.240000e+00 : d parameter         
    Parameter  3 _k1        =  6.500000e-02 : k1 parameter        
    Parameter  4 _eta       =  1.000000e-03 : eta parameter       
    Parameter  5 _dp2       =  3.610000e-01 : dp2 parameter       
  Functional kind                       .... Correlation
  Functional name                       .... Re-regularized SCAN correlation by Furness et al
  Functional family                     .... MGGA
  Functional refs                              
    [ 0] J. W. Furness, A. D. Kaplan, J. Ning, J. P. Perdew, and J. Sun.,  J. Phys. Chem. Lett. 11, 8208-8215 (2020), doi: 10.1021/acs.jpclett.0c02405
    [ 1] J. W. Furness, A. D. Kaplan, J. Ning, J. P. Perdew, and J. Sun.,  J. Phys. Chem. Lett. 11, 9248-9248 (2020), doi: 10.1021/acs.jpclett.0c03077
  Functional external parameters        .... 1
    Parameter  0 _eta       =  1.000000e-03 : Regularization parameter
 Gradients option       PostSCFGGA      .... off
 Hybrid DFT is turned on
   Fraction HF Exchange ScalHFX         ....  0.100000
   Scaling of DF-GGA-X  ScalDFX         ....  0.900000
   Scaling of DF-GGA-C  ScalDFC         ....  1.000000
   Scaling of DF-LDA-C  ScalLDAC        ....  1.000000
   Perturbative correction              ....  0.000000
   NL short-range parameter             .... 11.900000
 RI-approximation to the Coulomb term is turned on
   Number of AuxJ basis functions       .... 622
   RIJ-COSX (HFX calculated with COS-X)).... on


General Settings:
 Integral files         IntName         .... cs_rporg_009_red_opt_07
 Hartree-Fock type      HFTyp           .... RHF
 Total Charge           Charge          ....    0
 Multiplicity           Mult            ....    1
 Number of Electrons    NEL             ....   72
 Basis Dimension        Dim             ....  736
 Nuclear Repulsion      ENuc            ....    481.4057410947 Eh

Convergence Acceleration:
 AO-DIIS                CNVDIIS         .... on
   Start iteration      DIISMaxIt       ....     0
   Startup error        DIISStart       ....  0.200000
   # of expansion vecs  DIISMaxEq       ....     5
   Bias factor          DIISBfac        ....   1.050
   Max. coefficient     DIISMaxC        ....  10.000
 MO-DIIS                CNVKDIIS        .... off
 Trust-Rad. Augm. Hess. CNVTRAH         .... auto
   Auto Start mean grad. ratio tolernc. ....  1.125000
   Auto Start start iteration           ....    50
   Auto Start num. interpolation iter.  ....    10
   Max. Number of Micro iterations      ....    24
   Max. Number of Macro iterations      .... Maxiter - #DIIS iter
   Number of Davidson start vectors     ....     2
   Converg. threshold    (grad. norm)   ....   1.000e-05
   Grad. Scal. Fac. for Micro threshold ....   0.100
   Minimum threshold for Micro iter.    ....   1.000e-02
   NR start threshold (gradient norm)   ....   1.000e-04
   Initial trust radius                 ....   0.400
   Minimum AH scaling param. (alpha)    ....   1.000
   Maximum AH scaling param. (alpha)    .... 1000.000
   Quad. conv. algorithm                .... NR
   White noise on init. David. guess    .... on
   Maximum white noise                  ....   0.010
   Pseudo random numbers                .... off
   Inactive MOs                         .... canonical
   Orbital update algorithm             .... Taylor
   Preconditioner                       .... Diag
   Full preconditioner red. dimension   ....   250
 SOSCF                  CNVSOSCF        .... on
   Start iteration      SOSCFMaxIt      ....   150
   Startup grad/error   SOSCFStart      ....  0.001000
   Hessian update       SOSCFHessUp     .... L-BFGS
 Level Shifting         CNVShift        .... on
   Level shift para.    LevelShift      ....    0.2500
   Turn off err/grad.   ShiftErr        ....    0.0000
 Zerner damping         CNVZerner       .... off
 Static damping         CNVDamp         .... on
   Fraction old density DampFac         ....    0.8500
   Max. Damping (<1)    DampMax         ....    0.9800
   Min. Damping (>=0)   DampMin         ....    0.0000
   Turn off err/grad.   DampErr         ....    0.0300

SCF Procedure:
 Maximum # iterations   MaxIter         ....  1500
 SCF integral mode      SCFMode         .... Direct
   Integral package                     .... SHARK and LIBINT hybrid scheme
 Reset frequency        DirectResetFreq ....    20
 Integral Threshold     Thresh          ....  1.000e-12 Eh
 Primitive CutOff       TCut            ....  1.000e-13 Eh

Convergence Tolerance:
 Convergence Check Mode ConvCheckMode   .... Total+1el-Energy
 Convergence forced     ConvForced      .... 0
 Energy Change          TolE            ....  1.000e-08 Eh
 1-El. energy change                    ....  1.000e-05 Eh
 Orbital Gradient       TolG            ....  1.000e-05
 Orbital Rotation angle TolX            ....  1.000e-05
 DIIS Error             TolErr          ....  5.000e-07

------------------------------
INITIAL GUESS: MODEL POTENTIAL
------------------------------
Loading Hartree-Fock densities                     ... done
Calculating cut-offs                               ... done
Initializing the effective Hamiltonian             ... done
Setting up the integral package (SHARK)            ... done
Starting the Coulomb interaction                   ... done (   0.6 sec)
Making the grid                                    ... done (   0.5 sec)
Mapping shells                                     ... done
Starting the XC term evaluation                    ... done (   0.7 sec)
  promolecular density results
     # of electrons  =     72.001059121
     EX              =    -54.664542022
     EC              =     -2.357593179
     EX+EC           =    -57.022135201
Transforming the Hamiltonian                       ... done (   0.1 sec)
Diagonalizing the Hamiltonian                      ... done (   0.2 sec)
Back transforming the eigenvectors                 ... done (   0.2 sec)
Now organizing SCF variables                       ... done
                      ------------------
                      INITIAL GUESS DONE (   2.7 sec)
                      ------------------
             **** ENERGY FILE WAS UPDATED (cs_rporg_009_red_opt_07.en.tmp) ****
Finished Guess after   4.1 sec
Maximum memory used throughout the entire GUESS-calculation: 62.9 MB


           ************************************************************
           *        Program running with 8 parallel MPI-processes     *
           *              working on a common directory               *
           ************************************************************

-------------------------------------------------------------------------------------------
                                      ORCA LEAN-SCF
                              memory conserving SCF solver
-------------------------------------------------------------------------------------------

--------------------
CPCM SOLVATION MODEL
--------------------
CPCM parameters:
  Epsilon                                         ...      35.6880
  Refrac                                          ...       1.3442
  Rsolv                                           ...       2.1900
  Surface type                                    ...    GEPOL SES
  Discretization scheme                           ... Constant num. charges
  Epsilon function type                           ...         CPCM
Solvent:                                          ... ACETONITRILE
SMD-CDS solvent descriptors:
  Soln                                            ...       1.3442
  Soln25                                          ...       1.3416
  Sola                                            ...       0.0700
  Solb                                            ...       0.3200
  Solg                                            ...      41.2500
  Solc                                            ...       0.0000
  Solh                                            ...       0.0000
Radii:
  Scheme                                          ... Element-dependent radii
  Radius for C  used is    3.4960 Bohr (=   1.8500 Ang.)
  Radius for H  used is    2.2677 Bohr (=   1.2000 Ang.)
Calculating surface                               ...        done! (  0.1s)
Cavity surface points                             ...          856
Cavity Volume                                     ...    1110.1345
Cavity Surface-area                               ...     635.9855
Calculating surface distance matrix               ...        done! (  0.0s)
Performing Cholesky decomposition & store         ...        done! (  0.0s)
Overall time for CPCM initialization              ...                 0.1s

----------------------------------------D-I-I-S--------------------------------------------
Iteration    Energy (Eh)           Delta-E    RMSDP     MaxDP     DIISErr   Damp  Time(sec)
-------------------------------------------------------------------------------------------
               ***  Starting incremental Fock matrix formation  ***
    1    -387.9152371199334084     0.00e+00  1.59e-03  1.40e-01  1.91e-01  0.850  22.1
    2    -387.9770405897942283    -6.18e-02  1.44e-03  1.16e-01  1.47e-01  0.850  15.5
                               ***Turning on AO-DIIS***
    3    -388.0210803368281631    -4.40e-02  1.09e-03  8.54e-02  1.06e-01  0.850  14.9
    4    -388.0508273714327743    -2.97e-02  9.03e-04  6.99e-02  8.44e-02  0.850  15.4
    5    -388.0726976020882830    -2.19e-02  7.61e-04  5.90e-02  7.03e-02  0.850  14.4
    6    -388.0898292654388797    -1.71e-02  6.44e-04  5.04e-02  5.93e-02  0.850  13.9
    7    -388.1037200892667443    -1.39e-02  5.46e-04  4.31e-02  5.00e-02  0.850  15.8
    8    -388.1151241709412716    -1.14e-02  4.62e-04  3.65e-02  4.20e-02  0.850  15.0
    9    -388.1245136799542479    -9.39e-03  3.91e-04  3.08e-02  3.52e-02  0.850  13.9
   10    -388.1322665114844312    -7.75e-03  3.30e-04  2.61e-02  2.96e-02  0.850  13.7
   11    -388.1386925217079806    -6.43e-03  1.86e-03  1.47e-01  2.49e-02  0.000  13.1
   12    -388.1725117825963025    -3.38e-02  5.15e-05  3.66e-03  1.67e-03  0.000  15.0
                              *** Initializing SOSCF ***
---------------------------------------S-O-S-C-F--------------------------------------
Iteration    Energy (Eh)           Delta-E    RMSDP     MaxDP     MaxGrad    Time(sec)
--------------------------------------------------------------------------------------
   13    -388.1725328780377140    -2.11e-05  1.60e-05  1.66e-03  2.33e-04    13.9
               *** Restarting incremental Fock matrix formation ***
   14    -388.1725393146701890    -6.44e-06  2.67e-04  1.23e-02  2.07e-05    21.3
   15    -388.1725393888258395    -7.42e-08  4.31e-05  2.00e-03  2.94e-05    17.7
   16    -388.1725394649563441    -7.61e-08  4.69e-05  2.19e-03  1.43e-05    17.9
   17    -388.1725394636193869     1.34e-09  1.49e-06  8.96e-05  1.27e-05    16.6
                 **** Energy Check signals convergence ****

               *****************************************************
               *                     SUCCESS                       *
               *           SCF CONVERGED AFTER  17 CYCLES          *
               *****************************************************

Recomputing exchange energy using gridx3       ... done (   24.868 sec)
Old exchange energy                            :     -5.612861210 Eh
New exchange energy                            :     -5.612841824 Eh
Exchange energy change after final integration :      0.000019386 Eh
Total energy after final integration           :   -388.172520078 Eh

SMD CDS free energy correction energy :                -1.82940     Kcal/mol
Total Energy after SMD CDS correction =              -388.175435408 Eh
             **** ENERGY FILE WAS UPDATED (cs_rporg_009_red_opt_07.en.tmp) ****

----------------
TOTAL SCF ENERGY
----------------

Total Energy       :       -388.17543540849636 Eh          -10562.79060 eV

Components:
Nuclear Repulsion  :        481.40574109472561 Eh           13099.71619 eV
Electronic Energy  :       -869.56840066568770 Eh          -23662.15914 eV
One Electron Energy:      -1476.55842508498517 Eh          -40179.19742 eV
Two Electron Energy:        606.99002441929747 Eh           16517.03827 eV
CPCM Dielectric    :         -0.00987989265734 Eh              -0.26885 eV
SMD CDS (Gcds)     :         -0.00291533080833 Eh              -0.07933 eV

Virial components:
Potential Energy   :       -774.12058118518576 Eh          -21064.89193 eV
Kinetic Energy     :        385.94514577668940 Eh           10502.10133 eV
Virial Ratio       :          2.00577877363198

DFT components:
N(Alpha)           :       36.000134460093 electrons
N(Beta)            :       36.000134460093 electrons
N(Total)           :       72.000268920187 electrons
E(X)               :      -50.660512710938 Eh       
E(C)               :       -2.279127165492 Eh       
E(XC)              :      -52.939639876430 Eh       

CPCM Solvation Model Properties:
Surface-charge          :         -0.05042542300390
Corrected charge        :          0.00000000000000
Outlying charge corr.   :          0.00017689959059 Eh               0.00481 eV
Free-energy (cav+disp)  :         -0.00291533080833 Eh              -0.07933 eV

---------------
SCF CONVERGENCE
---------------

  Last Energy change         ...   -1.3370e-09  Tolerance :   1.0000e-08
  Last MAX-Density change    ...    8.9636e-05  Tolerance :   1.0000e-07
  Last RMS-Density change    ...    1.4918e-06  Tolerance :   5.0000e-09
  Last DIIS Error            ...    2.3337e-04  Tolerance :   5.0000e-07
  Last Orbital Gradient      ...    1.2672e-05  Tolerance :   1.0000e-05
  Last Orbital Rotation      ...    2.0368e-05  Tolerance :   1.0000e-05


----------------
ORBITAL ENERGIES
----------------

  NO   OCC          E(Eh)            E(eV) 
   0   2.0000     -10.167042      -276.6593 
   1   2.0000     -10.166473      -276.6438 
   2   2.0000     -10.165986      -276.6305 
   3   2.0000     -10.162588      -276.5381 
   4   2.0000     -10.155068      -276.3334 
   5   2.0000     -10.154431      -276.3161 
   6   2.0000     -10.154036      -276.3054 
   7   2.0000     -10.147607      -276.1304 
   8   2.0000     -10.143388      -276.0156 
   9   2.0000     -10.143251      -276.0119 
  10   2.0000      -0.866753       -23.5855 
  11   2.0000      -0.802312       -21.8320 
  12   2.0000      -0.764094       -20.7921 
  13   2.0000      -0.745222       -20.2785 
  14   2.0000      -0.693896       -18.8819 
  15   2.0000      -0.665407       -18.1066 
  16   2.0000      -0.598043       -16.2736 
  17   2.0000      -0.591637       -16.0993 
  18   2.0000      -0.534357       -14.5406 
  19   2.0000      -0.488440       -13.2911 
  20   2.0000      -0.470539       -12.8040 
  21   2.0000      -0.439512       -11.9597 
  22   2.0000      -0.423172       -11.5151 
  23   2.0000      -0.418515       -11.3884 
  24   2.0000      -0.402448       -10.9512 
  25   2.0000      -0.395534       -10.7630 
  26   2.0000      -0.383955       -10.4479 
  27   2.0000      -0.369631       -10.0582 
  28   2.0000      -0.367157        -9.9908 
  29   2.0000      -0.360205        -9.8017 
  30   2.0000      -0.346775        -9.4362 
  31   2.0000      -0.321791        -8.7564 
  32   2.0000      -0.316880        -8.6227 
  33   2.0000      -0.290046        -7.8925 
  34   2.0000      -0.245053        -6.6682 
  35   2.0000      -0.217405        -5.9159 
  36   0.0000      -0.053193        -1.4475 
  37   0.0000      -0.020604        -0.5607 
  38   0.0000       0.009943         0.2706 
  39   0.0000       0.020098         0.5469 
  40   0.0000       0.023684         0.6445 
  41   0.0000       0.033109         0.9009 
  42   0.0000       0.037111         1.0098 
  43   0.0000       0.037984         1.0336 
  44   0.0000       0.039620         1.0781 
  45   0.0000       0.047333         1.2880 
  46   0.0000       0.056736         1.5439 
*Only the first 10 virtual orbitals were printed.

                    ********************************
                    * MULLIKEN POPULATION ANALYSIS *
                    ********************************

-----------------------
MULLIKEN ATOMIC CHARGES
-----------------------
   0 C :   -0.275148
   1 C :    2.191395
   2 C :   -1.254076
   3 C :    0.796563
   4 C :    0.995622
   5 C :   -1.265727
   6 H :   -0.041115
   7 C :   -0.766876
   8 H :    0.094474
   9 H :    0.209733
  10 H :    0.208596
  11 C :   -0.765709
  12 H :    0.208454
  13 H :    0.206987
  14 H :    0.099227
  15 H :   -0.385953
  16 C :    0.081279
  17 C :   -0.983898
  18 H :    0.186109
  19 H :    0.305749
  20 H :    0.065166
  21 H :    0.089146
Sum of atomic charges:   -0.0000000

--------------------------------
MULLIKEN REDUCED ORBITAL CHARGES
--------------------------------
  0 C s       :     3.976350  s :     3.976350
      pz      :     0.978127  p :     2.416265
      px      :     0.550298
      py      :     0.887839
      dz2     :    -0.026295  d :    -0.093765
      dxz     :     0.025520
      dyz     :    -0.005815
      dx2y2   :    -0.106869
      dxy     :     0.019693
      f0      :     0.000705  f :    -0.023702
      f+1     :     0.001139
      f-1     :    -0.000271
      f+2     :    -0.000851
      f-2     :     0.000028
      f+3     :    -0.015020
      f-3     :    -0.009432

  1 C s       :     2.739952  s :     2.739952
      pz      :     0.982439  p :     1.525292
      px      :     0.180111
      py      :     0.362742
      dz2     :    -0.021149  d :    -0.343725
      dxz     :    -0.035296
      dyz     :    -0.000902
      dx2y2   :     0.039891
      dxy     :    -0.326270
      f0      :     0.001246  f :    -0.112915
      f+1     :    -0.003758
      f-1     :    -0.001262
      f+2     :    -0.001447
      f-2     :    -0.001338
      f+3     :    -0.075495
      f-3     :    -0.030861

  2 C s       :     4.535674  s :     4.535674
      pz      :     1.010430  p :     2.570482
      px      :     0.766892
      py      :     0.793159
      dz2     :    -0.009864  d :     0.171582
      dxz     :     0.001040
      dyz     :     0.008323
      dx2y2   :     0.096872
      dxy     :     0.075210
      f0      :     0.000774  f :    -0.023661
      f+1     :    -0.000667
      f-1     :    -0.000431
      f+2     :    -0.000760
      f-2     :    -0.001444
      f+3     :    -0.015187
      f-3     :    -0.005947

  3 C s       :     3.002102  s :     3.002102
      pz      :     0.933793  p :     2.110180
      px      :     0.232852
      py      :     0.943535
      dz2     :    -0.003856  d :     0.187904
      dxz     :    -0.020421
      dyz     :     0.007239
      dx2y2   :     0.145152
      dxy     :     0.059788
      f0      :    -0.000711  f :    -0.096749
      f+1     :    -0.000908
      f-1     :    -0.000822
      f+2     :    -0.003804
      f-2     :    -0.005113
      f+3     :    -0.042187
      f-3     :    -0.043203

  4 C s       :     3.161933  s :     3.161933
      pz      :     0.938362  p :     2.080266
      px      :     0.235541
      py      :     0.906363
      dz2     :    -0.038456  d :    -0.148102
      dxz     :    -0.015108
      dyz     :     0.010320
      dx2y2   :    -0.092152
      dxy     :    -0.012707
      f0      :    -0.000781  f :    -0.089719
      f+1     :    -0.002564
      f-1     :     0.000475
      f+2     :    -0.004758
      f-2     :    -0.003510
      f+3     :    -0.041711
      f-3     :    -0.036869

  5 C s       :     4.175277  s :     4.175277
      pz      :     1.002286  p :     2.789808
      px      :     0.869693
      py      :     0.917829
      dz2     :     0.015599  d :     0.322568
      dxz     :     0.014781
      dyz     :     0.028077
      dx2y2   :     0.157455
      dxy     :     0.106657
      f0      :     0.000871  f :    -0.021926
      f+1     :    -0.000527
      f-1     :     0.000049
      f+2     :    -0.000495
      f-2     :    -0.001148
      f+3     :    -0.007957
      f-3     :    -0.012718

  6 H s       :     0.965706  s :     0.965706
      pz      :     0.028785  p :     0.067461
      px      :     0.017319
      py      :     0.021357
      dz2     :    -0.000370  d :     0.007948
      dxz     :     0.000015
      dyz     :     0.005068
      dx2y2   :     0.001668
      dxy     :     0.001566

  7 C s       :     3.611354  s :     3.611354
      pz      :     1.124321  p :     3.107167
      px      :     0.895280
      py      :     1.087566
      dz2     :     0.012822  d :     0.037967
      dxz     :     0.020021
      dyz     :     0.010745
      dx2y2   :     0.000861
      dxy     :    -0.006482
      f0      :     0.003098  f :     0.010389
      f+1     :    -0.000442
      f-1     :     0.000972
      f+2     :     0.000743
      f-2     :     0.001495
      f+3     :     0.002980
      f-3     :     0.001542

  8 H s       :     0.858416  s :     0.858416
      pz      :     0.015487  p :     0.037467
      px      :     0.005673
      py      :     0.016308
      dz2     :     0.000471  d :     0.009643
      dxz     :     0.000592
      dyz     :     0.003409
      dx2y2   :    -0.000286
      dxy     :     0.005458

  9 H s       :     0.738576  s :     0.738576
      pz      :     0.010103  p :     0.044527
      px      :     0.027046
      py      :     0.007378
      dz2     :     0.002390  d :     0.007164
      dxz     :     0.001495
      dyz     :     0.000753
      dx2y2   :     0.002745
      dxy     :    -0.000220

 10 H s       :     0.739694  s :     0.739694
      pz      :     0.009951  p :     0.044533
      px      :     0.027065
      py      :     0.007517
      dz2     :     0.002401  d :     0.007176
      dxz     :     0.001487
      dyz     :     0.000747
      dx2y2   :     0.002763
      dxy     :    -0.000221

 11 C s       :     3.600244  s :     3.600244
      pz      :     1.123229  p :     3.117034
      px      :     1.011751
      py      :     0.982054
      dz2     :     0.018933  d :     0.037904
      dxz     :     0.032555
      dyz     :    -0.002000
      dx2y2   :    -0.015467
      dxy     :     0.003883
      f0      :     0.003100  f :     0.010527
      f+1     :     0.000983
      f-1     :    -0.000661
      f+2     :     0.000332
      f-2     :     0.001636
      f+3     :     0.002024
      f-3     :     0.003113

 12 H s       :     0.744117  s :     0.744117
      pz      :     0.009101  p :     0.039990
      px      :     0.021824
      py      :     0.009065
      dz2     :     0.002320  d :     0.007438
      dxz     :     0.000593
      dyz     :     0.001797
      dx2y2   :     0.000597
      dxy     :     0.002130

 13 H s       :     0.745592  s :     0.745592
      pz      :     0.008997  p :     0.039972
      px      :     0.021862
      py      :     0.009113
      dz2     :     0.002347  d :     0.007449
      dxz     :     0.000585
      dyz     :     0.001758
      dx2y2   :     0.000612
      dxy     :     0.002147

 14 H s       :     0.857945  s :     0.857945
      pz      :     0.014783  p :     0.033429
      px      :     0.004170
      py      :     0.014477
      dz2     :     0.000333  d :     0.009399
      dxz     :     0.001512
      dyz     :     0.002514
      dx2y2   :     0.003341
      dxy     :     0.001699

 15 H s       :     1.315219  s :     1.315219
      pz      :     0.027120  p :     0.064386
      px      :    -0.023355
      py      :     0.060621
      dz2     :    -0.000100  d :     0.006348
      dxz     :     0.000104
      dyz     :     0.004898
      dx2y2   :     0.000737
      dxy     :     0.000708

 16 C s       :     3.627553  s :     3.627553
      pz      :     0.969338  p :     2.443686
      px      :     0.588920
      py      :     0.885428
      dz2     :     0.013653  d :    -0.132162
      dxz     :     0.021841
      dyz     :     0.010807
      dx2y2   :    -0.064770
      dxy     :    -0.113694
      f0      :     0.000868  f :    -0.020356
      f+1     :    -0.001763
      f-1     :    -0.000459
      f+2     :     0.000802
      f-2     :    -0.000289
      f+3     :    -0.013035
      f-3     :    -0.006480

 17 C s       :     3.934565  s :     3.934565
      pz      :     0.984061  p :     3.112357
      px      :     1.048122
      py      :     1.080173
      dz2     :     0.002452  d :    -0.070955
      dxz     :     0.016265
      dyz     :     0.010826
      dx2y2   :    -0.070377
      dxy     :    -0.030121
      f0      :     0.000162  f :     0.007931
      f+1     :     0.002013
      f-1     :     0.000464
      f+2     :     0.000141
      f-2     :     0.000609
      f+3     :     0.003629
      f-3     :     0.000913

 18 H s       :     0.763439  s :     0.763439
      pz      :     0.028316  p :     0.045531
      px      :     0.008873
      py      :     0.008341
      dz2     :    -0.000556  d :     0.004921
      dxz     :     0.000134
      dyz     :     0.004718
      dx2y2   :    -0.001405
      dxy     :     0.002029

 19 H s       :     0.667867  s :     0.667867
      pz      :     0.021977  p :     0.017685
      px      :    -0.013074
      py      :     0.008782
      dz2     :     0.000149  d :     0.008698
      dxz     :     0.003833
      dyz     :     0.000941
      dx2y2   :     0.001825
      dxy     :     0.001951

 20 H s       :     0.957837  s :     0.957837
      pz      :     0.023069  p :    -0.030966
      px      :    -0.003720
      py      :    -0.050315
      dz2     :    -0.000546  d :     0.007963
      dxz     :     0.000152
      dyz     :     0.004430
      dx2y2   :    -0.000969
      dxy     :     0.004897

 21 H s       :     0.899766  s :     0.899766
      pz      :     0.015898  p :     0.005429
      px      :    -0.053585
      py      :     0.043116
      dz2     :    -0.000482  d :     0.005660
      dxz     :     0.002523
      dyz     :     0.002889
      dx2y2   :    -0.000846
      dxy     :     0.001576



                     *******************************
                     * LOEWDIN POPULATION ANALYSIS *
                     *******************************

----------------------
LOEWDIN ATOMIC CHARGES
----------------------
   0 C :    0.210252
   1 C :   -0.152007
   2 C :    0.223880
   3 C :   -0.102381
   4 C :   -0.106615
   5 C :    0.220764
   6 H :   -0.174964
   7 C :    0.588498
   8 H :   -0.173317
   9 H :   -0.160239
  10 H :   -0.160212
  11 C :    0.590415
  12 H :   -0.159936
  13 H :   -0.160116
  14 H :   -0.172910
  15 H :   -0.174575
  16 C :    0.166892
  17 C :    0.529036
  18 H :   -0.226972
  19 H :   -0.222013
  20 H :   -0.195430
  21 H :   -0.188050

-------------------------------
LOEWDIN REDUCED ORBITAL CHARGES
-------------------------------
  0 C s       :     2.475576  s :     2.475576
      pz      :     0.602603  p :     2.271201
      px      :     0.835357
      py      :     0.833241
      dz2     :     0.069006  d :     0.701068
      dxz     :     0.086807
      dyz     :     0.084129
      dx2y2   :     0.184701
      dxy     :     0.276424
      f0      :     0.020091  f :     0.341903
      f+1     :     0.025836
      f-1     :     0.025117
      f+2     :     0.060639
      f-2     :     0.014691
      f+3     :     0.100313
      f-3     :     0.095215

  1 C s       :     2.462887  s :     2.462887
      pz      :     0.611338  p :     2.270581
      px      :     0.815963
      py      :     0.843279
      dz2     :     0.087934  d :     0.925732
      dxz     :     0.139802
      dyz     :     0.122520
      dx2y2   :     0.289760
      dxy     :     0.285716
      f0      :     0.028898  f :     0.492806
      f+1     :     0.033900
      f-1     :     0.033987
      f+2     :     0.055207
      f-2     :     0.052902
      f+3     :     0.157033
      f-3     :     0.130880

  2 C s       :     2.469233  s :     2.469233
      pz      :     0.597853  p :     2.253711
      px      :     0.843591
      py      :     0.812266
      dz2     :     0.070640  d :     0.704620
      dxz     :     0.126893
      dyz     :     0.043254
      dx2y2   :     0.251843
      dxy     :     0.211990
      f0      :     0.020245  f :     0.348557
      f+1     :     0.032312
      f-1     :     0.020560
      f+2     :     0.025624
      f-2     :     0.050736
      f+3     :     0.101410
      f-3     :     0.097671

  3 C s       :     2.455241  s :     2.455241
      pz      :     0.593673  p :     2.229904
      px      :     0.817857
      py      :     0.818374
      dz2     :     0.080755  d :     0.918803
      dxz     :     0.148659
      dyz     :     0.122013
      dx2y2   :     0.266949
      dxy     :     0.300427
      f0      :     0.033249  f :     0.498433
      f+1     :     0.028917
      f-1     :     0.032686
      f+2     :     0.062569
      f-2     :     0.061926
      f+3     :     0.131375
      f-3     :     0.147711

  4 C s       :     2.456456  s :     2.456456
      pz      :     0.593513  p :     2.230065
      px      :     0.792710
      py      :     0.843841
      dz2     :     0.081058  d :     0.921542
      dxz     :     0.155181
      dyz     :     0.115554
      dx2y2   :     0.288498
      dxy     :     0.281251
      f0      :     0.033557  f :     0.498553
      f+1     :     0.028005
      f-1     :     0.033543
      f+2     :     0.069643
      f-2     :     0.054652
      f+3     :     0.156883
      f-3     :     0.122270

  5 C s       :     2.477151  s :     2.477151
      pz      :     0.600703  p :     2.265206
      px      :     0.845507
      py      :     0.818997
      dz2     :     0.068557  d :     0.696303
      dxz     :     0.123332
      dyz     :     0.042492
      dx2y2   :     0.261545
      dxy     :     0.200377
      f0      :     0.019266  f :     0.340576
      f+1     :     0.031464
      f-1     :     0.020378
      f+2     :     0.025306
      f-2     :     0.048310
      f+3     :     0.100861
      f-3     :     0.094991

  6 H s       :     0.647171  s :     0.647171
      pz      :     0.081870  p :     0.306059
      px      :     0.088606
      py      :     0.135583
      dz2     :     0.024476  d :     0.221734
      dxz     :     0.007729
      dyz     :     0.056905
      dx2y2   :     0.058748
      dxy     :     0.073877

  7 C s       :     2.441009  s :     2.441009
      pz      :     0.766561  p :     2.273983
      px      :     0.740417
      py      :     0.767006
      dz2     :     0.078795  d :     0.510585
      dxz     :     0.144713
      dyz     :     0.036116
      dx2y2   :     0.148212
      dxy     :     0.102749
      f0      :     0.015213  f :     0.185924
      f+1     :     0.027559
      f-1     :     0.015018
      f+2     :     0.019078
      f-2     :     0.022380
      f+3     :     0.038989
      f-3     :     0.047688

  8 H s       :     0.619177  s :     0.619177
      pz      :     0.088985  p :     0.320988
      px      :     0.087371
      py      :     0.144633
      dz2     :     0.016966  d :     0.233152
      dxz     :     0.005058
      dyz     :     0.083364
      dx2y2   :     0.050545
      dxy     :     0.077220

  9 H s       :     0.613190  s :     0.613190
      pz      :     0.127441  p :     0.317987
      px      :     0.090461
      py      :     0.100085
      dz2     :     0.078478  d :     0.229063
      dxz     :     0.043353
      dyz     :     0.044309
      dx2y2   :     0.044965
      dxy     :     0.017958

 10 H s       :     0.613215  s :     0.613215
      pz      :     0.127410  p :     0.317964
      px      :     0.090478
      py      :     0.100076
      dz2     :     0.078478  d :     0.229033
      dxz     :     0.043318
      dyz     :     0.044264
      dx2y2   :     0.044986
      dxy     :     0.017988

 11 C s       :     2.440628  s :     2.440628
      pz      :     0.766977  p :     2.272460
      px      :     0.753291
      py      :     0.752192
      dz2     :     0.078754  d :     0.510362
      dxz     :     0.142503
      dyz     :     0.038628
      dx2y2   :     0.134855
      dxy     :     0.115621
      f0      :     0.015296  f :     0.186135
      f+1     :     0.025962
      f-1     :     0.016652
      f+2     :     0.014104
      f-2     :     0.027398
      f+3     :     0.049315
      f-3     :     0.037409

 12 H s       :     0.613350  s :     0.613350
      pz      :     0.127495  p :     0.317719
      px      :     0.101606
      py      :     0.088617
      dz2     :     0.078425  d :     0.228867
      dxz     :     0.048090
      dyz     :     0.039702
      dx2y2   :     0.019736
      dxy     :     0.042915

 13 H s       :     0.613313  s :     0.613313
      pz      :     0.127363  p :     0.317837
      px      :     0.101740
      py      :     0.088734
      dz2     :     0.078504  d :     0.228966
      dxz     :     0.047933
      dyz     :     0.039485
      dx2y2   :     0.019920
      dxy     :     0.043124

 14 H s       :     0.618486  s :     0.618486
      pz      :     0.089027  p :     0.320898
      px      :     0.103902
      py      :     0.127969
      dz2     :     0.017038  d :     0.233525
      dxz     :     0.030694
      dyz     :     0.057875
      dx2y2   :     0.059640
      dxy     :     0.068279

 15 H s       :     0.634030  s :     0.634030
      pz      :     0.080506  p :     0.311814
      px      :     0.093589
      py      :     0.137718
      dz2     :     0.026203  d :     0.228731
      dxz     :     0.007565
      dyz     :     0.057397
      dx2y2   :     0.060751
      dxy     :     0.076815

 16 C s       :     2.497449  s :     2.497449
      pz      :     0.608861  p :     2.288723
      px      :     0.852892
      py      :     0.826970
      dz2     :     0.069905  d :     0.730794
      dxz     :     0.151300
      dyz     :     0.024268
      dx2y2   :     0.281816
      dxy     :     0.203505
      f0      :     0.019013  f :     0.316142
      f+1     :     0.031861
      f-1     :     0.017581
      f+2     :     0.018877
      f-2     :     0.036762
      f+3     :     0.123280
      f-3     :     0.068768

 17 C s       :     2.527994  s :     2.527994
[...]
      f-2     :     0.027760
      f+3     :     0.050069
      f-3     :     0.037596

 12 H s       :     0.611869  s :     0.611869
      pz      :     0.127477  p :     0.318362
      px      :     0.101674
      py      :     0.089210
      dz2     :     0.078761  d :     0.229993
      dxz     :     0.048090
      dyz     :     0.039812
      dx2y2   :     0.020258
      dxy     :     0.043071

 13 H s       :     0.611828  s :     0.611828
      pz      :     0.127301  p :     0.318508
      px      :     0.101848
      py      :     0.089359
      dz2     :     0.078861  d :     0.230113
      dxz     :     0.047882
      dyz     :     0.039522
      dx2y2   :     0.020503
      dxy     :     0.043345

 14 H s       :     0.617957  s :     0.617957
      pz      :     0.089174  p :     0.320847
      px      :     0.103566
      py      :     0.128107
      dz2     :     0.017050  d :     0.233903
      dxz     :     0.030317
      dyz     :     0.058430
      dx2y2   :     0.059356
      dxy     :     0.068749

 15 H s       :     0.633544  s :     0.633544
      pz      :     0.080504  p :     0.311575
      px      :     0.093628
      py      :     0.137442
      dz2     :     0.026224  d :     0.228945
      dxz     :     0.007595
      dyz     :     0.057443
      dx2y2   :     0.060809
      dxy     :     0.076875

 16 C s       :     2.495605  s :     2.495605
      pz      :     0.607702  p :     2.287183
      px      :     0.853414
      py      :     0.826068
      dz2     :     0.070032  d :     0.732737
      dxz     :     0.151820
      dyz     :     0.024391
      dx2y2   :     0.282649
      dxy     :     0.203845
      f0      :     0.019114  f :     0.318158
      f+1     :     0.032018
      f-1     :     0.017678
      f+2     :     0.019001
      f-2     :     0.036924
      f+3     :     0.124029
      f-3     :     0.069394

 17 C s       :     2.526292  s :     2.526292
      pz      :     0.615314  p :     2.321773
      px      :     0.864958
      py      :     0.841501
      dz2     :     0.046733  d :     0.449232
      dxz     :     0.046809
      dyz     :     0.017733
      dx2y2   :     0.202422
      dxy     :     0.135535
      f0      :     0.009530  f :     0.172288
      f+1     :     0.018574
      f-1     :     0.014363
      f+2     :     0.005490
      f-2     :     0.018571
      f+3     :     0.066657
      f-3     :     0.039102

 18 H s       :     0.663541  s :     0.663541
      pz      :     0.085447  p :     0.337895
      px      :     0.095440
      py      :     0.157008
      dz2     :     0.026131  d :     0.226242
      dxz     :     0.001556
      dyz     :     0.060715
      dx2y2   :     0.048292
      dxy     :     0.089548

 19 H s       :     0.678070  s :     0.678070
      pz      :     0.092187  p :     0.328055
      px      :     0.134166
      py      :     0.101703
      dz2     :     0.023498  d :     0.216354
      dxz     :     0.057293
      dyz     :     0.004986
      dx2y2   :     0.068359
      dxy     :     0.062218

 20 H s       :     0.644945  s :     0.644945
      pz      :     0.082196  p :     0.318740
      px      :     0.090136
      py      :     0.146408
      dz2     :     0.025685  d :     0.231267
      dxz     :     0.005450
      dyz     :     0.061798
      dx2y2   :     0.053592
      dxy     :     0.084742

 21 H s       :     0.642474  s :     0.642474
      pz      :     0.081666  p :     0.316538
      px      :     0.125814
      py      :     0.109058
      dz2     :     0.026250  d :     0.229299
      dxz     :     0.034776
      dyz     :     0.031459
      dx2y2   :     0.087639
      dxy     :     0.049174



                      *****************************
                      * MAYER POPULATION ANALYSIS *
                      *****************************

  NA   - Mulliken gross atomic population
  ZA   - Total nuclear charge
  QA   - Mulliken gross atomic charge
  VA   - Mayer's total valence
  BVA  - Mayer's bonded valence
  FA   - Mayer's free valence

  ATOM       NA         ZA         QA         VA         BVA        FA
  0 C      6.2697     6.0000    -0.2697     1.2499     1.2499     0.0000
  1 C      3.7808     6.0000     2.2192    -1.1128    -1.1128     0.0000
  2 C      7.2636     6.0000    -1.2636     1.2511     1.2511    -0.0000
  3 C      5.1839     6.0000     0.8161     1.7653     1.7653     0.0000
  4 C      4.9770     6.0000     1.0230     1.5511     1.5511    -0.0000
  5 C      7.2995     6.0000    -1.2995     2.2100     2.2100     0.0000
  6 H      1.0442     1.0000    -0.0442     1.2874     1.2874    -0.0000
  7 C      6.7700     6.0000    -0.7700     3.4950     3.4950    -0.0000
  8 H      0.9135     1.0000     0.0865     1.0540     1.0540    -0.0000
  9 H      0.7879     1.0000     0.2121     0.9819     0.9819    -0.0000
 10 H      0.7891     1.0000     0.2109     0.9829     0.9829    -0.0000
 11 C      6.7695     6.0000    -0.7695     3.6110     3.6110     0.0000
 12 H      0.7909     1.0000     0.2091     0.9798     0.9798     0.0000
 13 H      0.7926     1.0000     0.2074     0.9812     0.9812     0.0000
 14 H      0.9059     1.0000     0.0941     1.0419     1.0419    -0.0000
 15 H      1.3972     1.0000    -0.3972     1.3221     1.3221    -0.0000
 16 C      5.9161     6.0000     0.0839     2.0394     2.0394     0.0000
 17 C      6.9971     6.0000    -0.9971     2.5875     2.5875    -0.0000
 18 H      0.8187     1.0000     0.1813     0.9954     0.9954    -0.0000
 19 H      0.6961     1.0000     0.3039     0.8081     0.8081     0.0000
 20 H      0.9297     1.0000     0.0703     0.8108     0.8108    -0.0000
 21 H      0.9071     1.0000     0.0929     1.0218     1.0218     0.0000

  Mayer bond orders larger than 0.100000
B(  0-C ,  2-C ) :  -0.9251 B(  0-C ,  3-C ) :  -0.2429 B(  0-C ,  5-C ) :   0.5135 
B(  0-C ,  6-H ) :  -0.1730 B(  0-C , 16-C ) :   0.2890 B(  0-C , 18-H ) :  -0.1395 
B(  0-C , 21-H ) :   1.6292 B(  1-C ,  2-C ) :  -0.7059 B(  1-C ,  3-C ) :   0.5036 
B(  1-C ,  4-C ) :  -0.3132 B(  1-C ,  7-C ) :   0.1085 B(  1-C , 15-H ) :  -0.5679 
B(  1-C , 16-C ) :  -0.1217 B(  1-C , 21-H ) :  -0.1921 B(  2-C ,  3-C ) :   0.4977 
B(  2-C ,  4-C ) :  -0.3436 B(  2-C ,  5-C ) :   0.2313 B(  2-C , 11-C ) :  -0.2296 
B(  2-C , 15-H ) :   2.5040 B(  2-C , 16-C ) :   0.2038 B(  2-C , 17-C ) :   0.1195 
B(  2-C , 20-H ) :  -0.1536 B(  3-C ,  4-C ) :   1.2165 B(  3-C ,  5-C ) :   0.2001 
B(  3-C ,  7-C ) :   0.1580 B(  3-C , 11-C ) :  -0.1677 B(  3-C , 12-H ) :  -0.1205 
B(  3-C , 13-H ) :  -0.1205 B(  3-C , 15-H ) :  -0.2613 B(  3-C , 20-H ) :   0.1317 
B(  3-C , 21-H ) :  -0.2511 B(  4-C ,  5-C ) :   0.4789 B(  4-C ,  7-C ) :   0.1449 
B(  4-C , 11-C ) :   0.4497 B(  4-C , 15-H ) :  -0.1118 B(  4-C , 16-C ) :   0.1282 
B(  4-C , 21-H ) :  -0.1322 B(  5-C ,  6-H ) :   1.3915 B(  5-C ,  7-C ) :  -0.1737 
B(  5-C , 17-C ) :  -0.1503 B(  5-C , 21-H ) :  -0.1691 B(  7-C ,  8-H ) :   1.0895 
B(  7-C ,  9-H ) :   1.0219 B(  7-C , 10-H ) :   1.0218 B( 11-C , 12-H ) :   1.0310 
B( 11-C , 13-H ) :   1.0326 B( 11-C , 14-H ) :   1.0655 B( 15-H , 16-C ) :  -0.2094 
B( 15-H , 20-H ) :  -0.1085 B( 16-C , 17-C ) :   0.8081 B( 16-C , 18-H ) :  -0.1145 
B( 16-C , 20-H ) :   1.1243 B( 17-C , 18-H ) :   1.2303 B( 17-C , 19-H ) :   0.8129 
B( 17-C , 20-H ) :  -0.2058 

-------
TIMINGS
-------

Total SCF time: 0 days 0 hours 1 min 49 sec 

Total time                  ....     109.417 sec
Sum of individual times     ....     107.400 sec  ( 98.2%)

SCF preparation             ....       1.535 sec  (  1.4%)
Fock matrix formation       ....      99.299 sec  ( 90.8%)
  Startup                   ....       1.181 sec  (  1.2% of F)
  Split-RI-J                ....       5.082 sec  (  5.1% of F)
  Chain of spheres X        ....      69.562 sec  ( 70.1% of F)
  XC integration            ....      19.531 sec  ( 19.7% of F)
    Basis function eval.    ....       1.389 sec  (  7.1% of XC)
    Density eval.           ....       7.106 sec  ( 36.4% of XC)
    XC-Functional eval.     ....       0.221 sec  (  1.1% of XC)
    XC-Potential eval.      ....       8.808 sec  ( 45.1% of XC)
  CPCM terms                ....       2.835 sec  (  2.9% of F)
Diagonalization             ....       0.000 sec  (  0.0%)
Density matrix formation    ....       0.998 sec  (  0.9%)
Total Energy calculation    ....       0.849 sec  (  0.8%)
Population analysis         ....       1.044 sec  (  1.0%)
Orbital Transformation      ....       0.721 sec  (  0.7%)
Orbital Orthonormalization  ....       0.000 sec  (  0.0%)
DIIS solution               ....       0.790 sec  (  0.7%)
SOSCF solution              ....       2.164 sec  (  2.0%)
Finished LeanSCF after 110.1 sec

Maximum memory used throughout the entire LEANSCF-calculation: 113.5 MB


-------------------------------------------------------------------------------
                          DFT DISPERSION CORRECTION                            
                                                                               
                              DFTD3 V3.1  Rev 1                                
                          USING Becke-Johnson damping                          
-------------------------------------------------------------------------------
The R2SCANh functional is recognized
Active option DFTDOPT                   ...         4   

molecular C6(AA) [au] = 4866.202015 


            DFT-D V3
 parameters
 s6 scaling factor         :     1.0000 
 a1 scaling factor         :     0.4709 
 s8 scaling factor         :     1.1236 
 a2 scaling factor         :     5.9157 
 ad hoc parameters k1-k3   :    16.0000     1.3333    -4.0000 

 Edisp/kcal,au: -4.629473180530  -0.007377534329 
 E6   /kcal   :  -3.350178134 
 E8   /kcal   :  -1.279295046 
 % E8         :  27.633706828 

-------------------------   ----------------
Dispersion correction           -0.007377534
-------------------------   ----------------


-------------------------   --------------------
FINAL SINGLE POINT ENERGY      -388.182971507528
-------------------------   --------------------

                                *** OPTIMIZATION RUN DONE ***



           ************************************************************
           *        Program running with 8 parallel MPI-processes     *
           *              working on a common directory               *
           ************************************************************

------------------------------------------------------------------------------
                              ORCA PROPERTY CALCULATIONS
------------------------------------------------------------------------------

GBWName                                 ... cs_rporg_009_red_opt_07.gbw
Number of atoms                         ...     22
Number of basis functions               ...    796
Max core memory                         ...   3500 MB

Electric properties:
Dipole moment                           ... YES
Quadrupole moment                       ...  NO
Static polarizability (Dipole/Dipole)   ...  NO
Static polarizability (Dipole/Quad.)    ...  NO
Static polarizability (Quad./Quad.)     ...  NO
Static polarizability (Velocity)        ...  NO

Atomic electric properties:
Dipole moment                           ...  NO
Quadrupole moment                       ...  NO
Static polarizability                   ...  NO

Choice of electric origin               ... Center of mass
Position of electric origin             ...     0.003416    -0.003396     0.000069

General magnetic properties:
Magnetizability                         ...  NO

EPR properties:
g-Tensor (aka g-matrix)                 ...  NO
Zero-Field splitting spin-orbit         ...  NO
Zero-field splitting spin-spin          ...  NO
Hyperfine couplings                     ...  NO (   0 nuclei)
Quadrupole couplings                    ...  NO (   0 nuclei)
Contact density                         ...  NO (   0 nuclei)

NMR properties:
Chemical shifts                         ...  NO (   0 nuclei)
Spin-rotation constants                 ...  NO (   0 nuclei)
Spin-spin couplings                     ...  NO (   0 nuclei,    0 pairs)

Choice of magnetic origin               ... GIAO
Position of magnetic origin             ...     0.000000     0.000000     0.000000

Properties with geometric perturbations:
SCF Hessian                             ...  NO
IR spectrum                             ...  NO
VCD spectrum                            ...  NO
X-ray spectroscopy properties:
SCF XES/XAS/RIXS spectra                ...  NO


-------------
DIPOLE MOMENT
-------------

Method             : SCF
Type of density    : Electron Density
Multiplicity       :   1
Irrep              :   0
Energy             :  -388.1755939731987723 Eh
Relativity type    : 
Basis              : AO
                                X                 Y                 Z
Electronic contribution:      3.958332307      -1.046436692       0.001430607
Nuclear contribution   :     -4.590678745       1.143012888      -0.001313272
                        -----------------------------------------
Total Dipole Moment    :     -0.632346437       0.096576196       0.000117335
                        -----------------------------------------
Magnitude (a.u.)       :      0.639678820
Magnitude (Debye)      :      1.625934345



--------------------
Rotational spectrum 
--------------------
 
Rotational constants in cm-1:             0.098234             0.028869             0.022496 
Rotational constants in MHz :          2944.968908           865.479791           674.415760 

Dipole components along the rotational axes: 
x,y,z [a.u.] :    -0.632332     0.096673     0.000115 
x,y,z [Debye]:    -1.607259     0.245724     0.000292 

 

Dipole moment calculation done in   0.2 sec 

Maximum memory used throughout the entire PROP-calculation: 64.2 MB

--------------------------------
SUGGESTED CITATIONS FOR THIS RUN
--------------------------------

Below you find a list of papers that are relevant to this ORCA run
We neither can nor want to force you to cite these papers, but we appreciate if you do
You receive ORCA, which is the product of decades of hard work by many enthusiastic individuals, for free
The only thing we kindly ask in return is that you cite our papers,
We deeply appreciate it, if you show your appreciation for ORCA by not just citing the generic ORCA reference.

Please note that relegating all ORCA citations to the supporting information does *not* help us.
SI sections are not indexed - citations you put there will not count into any citation statistics
But we need these citations in order to attract the funding resources that allow us to do what we are doing

Therefore, if you are a happy ORCA user, please consider citing a few of the papers listed below in the main body of your paper

In addition to the list printed below, the program has created the file cs_rporg_009_red_opt_07.bibtex that contains the list in bibtex format
You can import this file easily into all common literature databanks and citation aid programs


List of essential papers. We consider these as the minimum necessary citations

  1. Neese,F.
     Software update: the ORCA program system, version 5.0
     WIRES Comput. Molec. Sci., 2022 12(1)e1606
     doi.org/10.1002/wcms.1606

List of papers to cite with high priority. The work reported in these papers was absolutely
necessary for this run to complete.
Our perspective: the developers of density functionals and basis sets usually get cited in chemistry papers
Good! But without the algorithms to do something with them, the functionals or basis sets would not do anything.
Hence, in our opinion, the algorithm design and method developments papers are equally worthy of getting cited

  1. Neese,F.
     An improvement of the resolution of the identity approximation for the formation of the Coulomb matrix
     J. Comp. Chem., 2003 24(14)1740-1747
     doi.org/10.1002/jcc.10318
  2. Neese,F.; Wennmohs,F.; Hansen,A.; Becker,U.
     Efficient, approximate and parallel Hartree-Fock and hybrid DFT calculations. A 'chain-of-spheres' algorithm for the Hartree-Fock exchange
     Chem. Phys., 2009 356(1-3)98-109
     doi.org/10.1016/j.chemphys.2008.10.036
  3. Garcia-Rates,M.; Neese,F.
     Effect of the Solute Cavity on the Solvation Energy and its Derivatives within the Framework of the Gaussian Charge Scheme
     J. Comput. Chem., 2020 41 922-939
     doi.org/10.1002/jcc.26139
  4. Helmich-Paris,B.; de Souza,B.; Neese,F.; Izsák,R.
     An improved chain of spheres for exchange algorithm
     J. Chem. Phys., 2021 155 104109
     doi.org/doi: 10.1063/5.0058766.
  5. Neese,F.
     The SHARK Integral Generation and Digestion System
     J. Comp. Chem., 2022  1-16
     doi.org/10.1002/jcc.26942
  6. Lehtola,S.; Steigemann,C.; Oliveira,M.; Marques,M.
     Recent developments in Libxc - A comprehensive library of functionals for density functional theory
     Software X, 2018 7 
     doi.org/10.1016/j.softx.2017.11.002
  7. Grimme,S.; Antony,J.; Ehrlich,S.; Krieg,H.
     A consistent and accurate ab initio parametrization of density functional dispersion correction (DFT-D) for the 94 elements H-Pu
     J. Chem. Phys., 2010 132 154104-XXXX
     doi.org/10.1063/1.3382344
  8. Grimme,S.; Ehrlich,S.; Goerigk,L.
     Effect of the damping function in dispersion corrected density functional theory
     J. Comput. Chem., 2011 32(7)1456-1465
     doi.org/10.1002/jcc.21759
  9. Bursch,M.; Neugebauer,H.; Ehlert,S.; Grimme,S.
     Dispersion corrected r2SCAN based global hybrid functionals: r2SCANh, r2SCAN0, and r2SCAN50
     J. Phys. Chem., 2022 156(13)134105
     doi.org/10.1063/5.0086040

List of suggested additional citations. These are papers that are important in the 'surrounding' of 
of this run, or papers that preceded the highly important papers. If you like your results we are grateful for a citation.

  1. Izsak,R.; Neese,F.
     An overlap fitted chain of spheres exchange method
     J. Chem. Phys., 2011 135 144105
     doi.org/10.1063/1.3646921
  2. Izsak,R.; Hansen,A.; Neese,F.
     The resolution of identity and chain of spheres approximations for the LPNO-CCSD singles Fock term
     Molec. Phys., 2012 110 2413-2417
     doi.org/10.1080/00268976.2012.687466
  3. Neese,F.
     The ORCA program system
     WIRES Comput. Molec. Sci., 2012 2(1)73-78
     doi.org/10.1002/wcms.81
  4. Izsak,R.; Neese,F.; Klopper,W.
     Robust fitting techniques in the chain of spheres approximation to the Fock exchange: The role of the complementary space
     J. Chem. Phys., 2013 139 
     doi.org/10.1063/1.4819264
  5. Neese,F.
     Software update: the ORCA program system, version 4.0
     WIRES Comput. Molec. Sci., 2018 8(1)1-6
     doi.org/10.1002/wcms.1327
  6. Neese,F.; Wennmohs,F.; Becker,U.; Riplinger,C.
     The ORCA quantum chemistry program package
     J. Chem. Phys., 2020 152 Art. No. L224108
     doi.org/10.1063/5.0004608
  7. Wittmann,L.; Neugebauer,H.; Grimme,S.; Bursch,M.
     Dispersion-corrected r2SCAN based double-hybrid functionals
     J. Chem. Phys., 2023 159(22)224103
     doi.org/10.1063/5.0174988

List of optional additional citations

  1. Neese,F.
     Approximate second-order SCF convergence for spin unrestricted wavefunctions
     Chem. Phys. Lett., 2000 325(1-3)93-98
     doi.org/10.1016/s0009-2614(00)00662-x

Timings for individual modules:

Sum of individual times          ...     1235.354 sec (=  20.589 min)
Startup calculation              ...       46.067 sec (=   0.768 min)   3.7 %
SCF iterations                   ...      791.727 sec (=  13.195 min)  64.1 %
Property calculations            ...        2.244 sec (=   0.037 min)   0.2 %
SCF Gradient evaluation          ...      394.989 sec (=   6.583 min)  32.0 %
Geometry relaxation              ...        0.327 sec (=   0.005 min)   0.0 %
                             ****ORCA TERMINATED NORMALLY****
TOTAL RUN TIME: 0 days 0 hours 20 minutes 51 seconds 488 msec
