
                                 *****************
                                 * O   R   C   A *
                                 *****************

                                            #,                                       
                                            ###                                      
                                            ####                                     
                                            #####                                    
                                            ######                                   
                                           ########,                                 
                                     ,,################,,,,,                         
                               ,,#################################,,                 
                          ,,##########################################,,             
                       ,#########################################, ''#####,          
                    ,#############################################,,   '####,        
                  ,##################################################,,,,####,       
                ,###########''''           ''''###############################       
              ,#####''   ,,,,##########,,,,          '''####'''          '####       
            ,##' ,,,,###########################,,,                        '##       
           ' ,,###''''                  '''############,,,                           
         ,,##''                                '''############,,,,        ,,,,,,###''
      ,#''                                            '''#######################'''  
     '                                                          ''''####''''         
             ,#######,   #######,   ,#######,      ##                                
            ,#'     '#,  ##    ##  ,#'     '#,    #''#        ,####,   ,####,        
            ##       ##  ##   ,#'  ##            #'  '#       #'       #'  '#        
            ##       ##  #######   ##           ,######,      #####,   #    #        
            '#,     ,#'  ##    ##  '#,     ,#' ,#      #,     #,   #   #,  ,#        
             '#######'   ##     ##  '#######'  #'      '#     '####' # '####'        



                #########################################################
                #                        -***-                          #
                #          Department of theory and spectroscopy        #
                #                                                       #
                #                      Frank Neese                      #
                #                                                       #
                #     Directorship, Architecture, Infrastructure        #
                #                    SHARK, DRIVERS                     #
                #        Core code/Algorithms in most modules           #
                #                                                       #
                #        Max Planck Institute fuer Kohlenforschung      #
                #                Kaiser Wilhelm Platz 1                 #
                #                 D-45470 Muelheim/Ruhr                 #
                #                      Germany                          #
                #                                                       #
                #                  All rights reserved                  #
                #                        -***-                          #
                #########################################################


                         Program Version 6.0.0  -   RELEASE  -


 With contributions from (in alphabetic order):
   Daniel Aravena         : Magnetic Suceptibility
   Michael Atanasov       : Ab Initio Ligand Field Theory (pilot matlab implementation)
   Alexander A. Auer      : GIAO ZORA, VPT2 properties, NMR spectrum
   Ute Becker             : All parallelization in ORCA, NUMFREQ, NUMCALC
   Giovanni Bistoni       : ED, misc. LED, open-shell LED, HFLD
   Martin Brehm           : Molecular dynamics
   Dmytro Bykov           : pre 5.0 version of the SCF Hessian
   Marcos Casanova-Páez   : Triplet and SCS-CIS(D). UHF-(DLPNO)-IP/EA/STEOM-CCSD. UHF-CVS-IP/STEOM-CCSD
   Vijay G. Chilkuri      : MRCI spin determinant printing, contributions to CSF-ICE
   Pauline Colinet        : FMM embedding
   Dipayan Datta          : RHF DLPNO-CCSD density
   Achintya Kumar Dutta   : EOM-CC, STEOM-CC
   Nicolas Foglia         : Exact transition moments, OPA infrastructure, MCD improvements
   Dmitry Ganyushin       : Spin-Orbit,Spin-Spin,Magnetic field MRCI
   Miquel Garcia          : C-PCM and meta-GGA Hessian, CCSD/C-PCM, Gaussian charge scheme
   Tiago L. C. Gouveia    : GS-ROHF, GS-ROCIS
   Yang Guo               : DLPNO-NEVPT2, F12-NEVPT2, CIM, IAO-localization
   Andreas Hansen         : Spin unrestricted coupled pair/coupled cluster methods
   Ingolf Harden          : AUTO-CI MPn and infrastructure 
   Benjamin Helmich-Paris : MC-RPA, TRAH-(SCF,CASSCF), AVAS, COSX integrals, SCF dyn. polar.
   Lee Huntington         : MR-EOM, pCC
   Robert Izsak           : Overlap fitted RIJCOSX, COSX-SCS-MP3, EOM
   Riya Kayal             : Wick's Theorem for AUTO-CI, AUTO-CI UHF-CCSDT
   Emily Kempfer          : AUTO-CI, RHF CISDT and CCSDT
   Christian Kollmar      : KDIIS, OOCD, Brueckner-CCSD(T), CCSD density, CASPT2, CASPT2-K, improved NEVPT2
   Axel Koslowski         : Symmetry handling
   Simone Kossmann        : Meta GGA functionals, TD-DFT gradient, OOMP2, (MP2 Hessian; deprecated post 5.0)
   Lucas Lang             : DCDCAS
   Marvin Lechner         : AUTO-CI (C++ implementation), FIC-MRCC
   Spencer Leger          : CASSCF response
   Dagmar Lenk            : GEPOL surface, SMD, ORCA-2-JSON
   Dimitrios Liakos       : Extrapolation schemes; Compound Job, initial MDCI parallelization
   Dimitrios Manganas     : Further ROCIS development; embedding schemes. LFT, Crystal Embedding
   Dimitrios Pantazis     : SARC Basis sets
   Anastasios Papadopoulos: AUTO-CI, single reference methods and gradients
   Taras Petrenko         : pre 6.0 DFT Hessian and TD-DFT gradient, (ASA, deprecated), ECA, 1-Electron XAS/XES, NRVS
   Peter Pinski           : DLPNO-MP2, DLPNO-MP2 Gradient
   Christoph Reimann      : Effective Core Potentials
   Marius Retegan         : Local ZFS, SOC
   Christoph Riplinger    : Optimizer, TS searches, QM/MM, DLPNO-CCSD(T), (RO)-DLPNO pert. Triples
   Michael Roemelt        : Original ROCIS implementation
   Masaaki Saitow         : Open-shell DLPNO-CCSD energy and density
   Barbara Sandhoefer     : DKH picture change effects
   Kantharuban Sivalingam : CASSCF convergence/infrastructure, NEVPT2 and variants, FIC-MRCI
   Bernardo de Souza      : ESD, SOC TD-DFT
   Georgi Stoychev        : AutoAux, RI-MP2 NMR, DLPNO-MP2 response, X2C
   Van Anh Tran           : RI-MP2 g-tensors
   Willem Van den Heuvel  : Paramagnetic NMR
   Zikuan Wang            : NOTCH, Electric field optimization 
   Frank Wennmohs         : Technical directorship and infrastructure
   Hang Xu                : AUTO-CI-Response properties 


 We gratefully acknowledge several colleagues who have allowed us to
 interface, adapt or use parts of their codes:
   Stefan Grimme, W. Hujo, H. Kruse, P. Pracht,  : VdW corrections, initial TS optimization,
                  C. Bannwarth, S. Ehlert,         DFT functionals, gCP, sTDA/sTD-DF
                  L. Wittmann, M. Mueller
   Ed Valeev, F. Pavosevic, A. Kumar             : LibInt (2-el integral package), F12 methods
   Garnet Chan, S. Sharma, J. Yang, R. Olivares  : DMRG
   Ulf Ekstrom                                   : XCFun DFT Library
   Mihaly Kallay                                 : mrcc  (arbitrary order and MRCC methods)
   Frank Weinhold                                : gennbo (NPA and NBO analysis)
   Simon Mueller                                 : openCOSMO-RS
   Christopher J. Cramer and Donald G. Truhlar   : smd solvation model
   Lars Goerigk                                  : TD-DFT with DH, B97 family of functionals
   V. Asgeirsson, H. Jonsson                     : NEB implementation
   FAccTs GmbH                                   : IRC, NEB, NEB-TS, DLPNO-Multilevel, CI-OPT
                                                   MM, QMMM, 2- and 3-layer-ONIOM, Crystal-QMMM,
                                                   LR-CPCM, SF, NACMEs, symmetry and pop. for TD-DFT,
                                                   nearIR, NL-DFT gradient (VV10), updates on ESD,
                                                   ML-optimized integration grids, MBIS, APM,
                                                   GOAT, DOCKER, SOLVATOR, interface openCOSMO-RS
   S Lehtola, MJT Oliveira, MAL Marques          : LibXC Library
   Liviu Ungur et al                             : ANISO software


 Your calculation uses the libint2 library for the computation of 2-el integrals
 For citations please refer to: http://libint.valeyev.net

 Your ORCA version has been built with support for libXC version: 6.2.2
 For citations please refer to: https://libxc.gitlab.io

 This ORCA versions uses:
   CBLAS   interface :  Fast vector & matrix operations
   LAPACKE interface :  Fast linear algebra routines
   SCALAPACK package :  Parallel linear algebra routines
   Shared memory     :  Shared parallel matrices
   BLAS/LAPACK       :  OpenBLAS 0.3.27  USE64BITINT DYNAMIC_ARCH NO_AFFINITY Sandybridge SINGLE_THREADED
        Core in use  :  Sandybridge
   Copyright (c) 2011-2014, The OpenBLAS Project


NOTE: MaxCore=3500 MB was set to SCF,MP2,MDCI,CIPSI,MRCI and CIS
      => If you want to overwrite this, your respective input block should be placed after the MaxCore statement
Your calculation utilizes the atom-pairwise dispersion correction
with the Becke-Johnson damping scheme (D3BJ)


Warning: RI is on but no J-basis has been assigned. Assigning Def2/J (nothing to worry about!)
================================================================================

----- Orbital basis set information -----
Your calculation utilizes the basis: def2-SV(P)
   F. Weigend and R. Ahlrichs, Phys. Chem. Chem. Phys. 7, 3297 (2005).

----- AuxJ basis set information -----
Your calculation utilizes the auxiliary basis: def2/J
   F. Weigend, Phys. Chem. Chem. Phys. 8, 1057 (2006).

================================================================================
                                        WARNINGS
                       Please study these warnings very carefully!
================================================================================


WARNING: Geometry Optimization
  ===> : Switching off AutoStart
         For restart on a previous wavefunction, please use MOREAD

================================================================================
                                       INPUT FILE
================================================================================
NAME = cs_rporg_w01_ox_opt_01.inp
|  1> !PBE0 def2-SV(p) Opt Freq d3 TightSCF SlowConv RIJCOSX defgrid2
|  2> 
|  3> %pal
|  4> nprocs 15
|  5> end
|  6> 
|  7> %scf
|  8> MaxIter 1500
|  9> end
| 10> 
| 11> %maxcore 3500
| 12> 
| 13>  
| 14> 
| 15> * xyz 0 1
| 16> C        0.004558812      0.000000000     -3.489690367
| 17> C       -0.056108968     -0.041695056      0.734815434
| 18> C        1.100442554     -0.178592914      1.507595227
| 19> C        0.996422886     -0.206810306      2.892232778
| 20> C       -0.260589785     -0.097742889      3.477472972
| 21> C       -1.365695149      0.035745257      2.642920802
| 22> N       -1.272951864      0.063773284      1.305431273
| 23> H        2.085183304     -0.263891796      1.043943022
| 24> H        1.893469747     -0.313467420      3.508699830
| 25> H       -0.382723826     -0.115841507      4.563891648
| 26> H       -2.374762822      0.124846981      3.057190647
| 27> C       -0.003918387     -0.005826117     -0.738868984
| 28> C        1.001184344      0.684949404     -1.421612535
| 29> C        1.004814116      0.687444036     -2.810431477
| 30> C       -0.962051684     -0.664321019     -2.741428371
| 31> N       -0.971945302     -0.671120592     -1.400488027
| 32> H        1.784447261      1.223261391     -0.884320244
| 33> H        1.785498525      1.223983885     -3.357018433
| 34> H       -0.026054626     -0.021039663     -4.582471223
| 35> H       -1.768598059     -1.218634998     -3.231321350
| 36> *
| 37> 
| 38>                          ****END OF INPUT****
================================================================================

                       *****************************
                       * Geometry Optimization Run *
                       *****************************

Geometry optimization settings:
Update method            Update   .... BFGS
Choice of coordinates    CoordSys .... (2022) Redundant Internals
Initial Hessian          InHess   .... Almloef's Model
Max. no of cycles        MaxIter  .... 60

Convergence Tolerances:
Energy Change            TolE     ....  5.0000e-06 Eh
Max. Gradient            TolMAXG  ....  3.0000e-04 Eh/bohr
RMS Gradient             TolRMSG  ....  1.0000e-04 Eh/bohr
Max. Displacement        TolMAXD  ....  4.0000e-03 bohr
RMS Displacement         TolRMSD  ....  2.0000e-03 bohr
Strict Convergence                .... False

------------------------------------------------------------------------------
                        ORCA OPTIMIZATION COORDINATE SETUP
------------------------------------------------------------------------------

The optimization will be done in redundant internal coordinates (2022)
Making redundant internal coordinates   ...  (2022 redundants) done
Evaluating the initial hessian          ...  (Almloef) done
Evaluating the coordinates              ...  done
Calculating the B-matrix                .... done
Calculating the G-matrix                .... done
Diagonalizing the G-matrix              .... done
Small eigenvalue found = 1.606e-02
The first mode is                       ....   43
The number of degrees of freedom        ....   54

    -----------------------------------------------------------------
                    Redundant Internal Coordinates


    -----------------------------------------------------------------
         Definition                    Initial Value    Approx d2E/dq
    -----------------------------------------------------------------
      1. B(C   2,C   1)                  1.3977         0.607390   
      2. B(C   3,C   2)                  1.3888         0.627497   
      3. B(C   4,C   3)                  1.3909         0.622833   
      4. B(C   5,C   4)                  1.3912         0.621952   
      5. B(N   6,C   5)                  1.3410         0.669979   
      6. B(N   6,C   1)                  1.3481         0.652663   
      7. B(H   7,C   2)                  1.0918         0.357765   
      8. B(H   8,C   3)                  1.0937         0.355286   
      9. B(H   9,C   4)                  1.0934         0.355615   
     10. B(H  10,C   5)                  1.0944         0.354288   
     11. B(C  11,C   1)                  1.4750         0.457147   
     12. B(C  12,C  11)                  1.3977         0.607390   
     13. B(C  13,C  12)                  1.3888         0.627497   
     14. B(C  13,C   0)                  1.3909         0.622833   
     15. B(C  14,C   0)                  1.3912         0.621952   
     16. B(N  15,C  14)                  1.3410         0.669979   
     17. B(N  15,C  11)                  1.3481         0.652664   
     18. B(H  16,C  12)                  1.0918         0.357765   
     19. B(H  17,C  13)                  1.0937         0.355286   
     20. B(H  18,C   0)                  1.0934         0.355614   
     21. B(H  19,C  14)                  1.0944         0.354288   
     22. A(C  14,C   0,H  18)          120.5897         0.352349   
     23. A(C  13,C   0,C  14)          118.2297         0.434668   
     24. A(C  13,C   0,H  18)          121.1807         0.352433   
     25. A(C   2,C   1,N   6)          121.3680         0.433620   
     26. A(N   6,C   1,C  11)          116.9306         0.412153   
     27. A(C   2,C   1,C  11)          121.7013         0.409575   
     28. A(C   1,C   2,C   3)          119.4224         0.433401   
     29. A(C   1,C   2,H   7)          121.2787         0.351298   
     30. A(C   3,C   2,H   7)          119.2989         0.353239   
     31. A(C   4,C   3,H   8)          120.7810         0.352378   
     32. A(C   2,C   3,C   4)          119.0521         0.435363   
     33. A(C   2,C   3,H   8)          120.1669         0.352823   
     34. A(C   5,C   4,H   9)          120.5897         0.352349   
     35. A(C   3,C   4,H   9)          121.1807         0.352433   
     36. A(C   3,C   4,C   5)          118.2297         0.434668   
     37. A(N   6,C   5,H  10)          116.0784         0.354391   
     38. A(C   4,C   5,H  10)          120.8721         0.352126   
     39. A(C   4,C   5,N   6)          123.0495         0.437533   
     40. A(C   1,N   6,C   5)          118.8783         0.438456   
     41. A(C  12,C  11,N  15)          121.3680         0.433620   
     42. A(C   1,C  11,N  15)          116.9306         0.412153   
     43. A(C   1,C  11,C  12)          121.7013         0.409575   
     44. A(C  13,C  12,H  16)          119.2989         0.353239   
     45. A(C  11,C  12,H  16)          121.2787         0.351298   
     46. A(C  11,C  12,C  13)          119.4224         0.433401   
     47. A(C  12,C  13,H  17)          120.1669         0.352823   
     48. A(C   0,C  13,H  17)          120.7810         0.352378   
     49. A(C   0,C  13,C  12)          119.0521         0.435363   
     50. A(C   0,C  14,H  19)          120.8721         0.352126   
     51. A(C   0,C  14,N  15)          123.0495         0.437533   
     52. A(N  15,C  14,H  19)          116.0784         0.354391   
     53. A(C  11,N  15,C  14)          118.8783         0.438456   
     54. D(H   7,C   2,C   1,C  11)     -0.0000         0.025467   
     55. D(C   3,C   2,C   1,N   6)      0.0000         0.025467   
     56. D(H   7,C   2,C   1,N   6)    180.0000         0.025467   
     57. D(C   3,C   2,C   1,C  11)   -180.0000         0.025467   
     58. D(H   8,C   3,C   2,C   1)    180.0000         0.027287   
     59. D(C   4,C   3,C   2,H   7)   -180.0000         0.027287   
     60. D(C   4,C   3,C   2,C   1)     -0.0000         0.027287   
     61. D(H   8,C   3,C   2,H   7)      0.0000         0.027287   
     62. D(H   9,C   4,C   3,H   8)      0.0000         0.026858   
     63. D(H   9,C   4,C   3,C   2)    180.0000         0.026858   
     64. D(C   5,C   4,C   3,C   2)      0.0000         0.026858   
     65. D(C   5,C   4,C   3,H   8)   -180.0000         0.026858   
     66. D(H  10,C   5,C   4,C   3)    180.0000         0.026777   
     67. D(N   6,C   5,C   4,H   9)   -180.0000         0.026777   
     68. D(N   6,C   5,C   4,C   3)     -0.0000         0.026777   
     69. D(H  10,C   5,C   4,H   9)     -0.0000         0.026777   
     70. D(C   1,N   6,C   5,H  10)   -180.0000         0.033345   
     71. D(C   1,N   6,C   5,C   4)      0.0000         0.033345   
     72. D(C   5,N   6,C   1,C  11)    180.0000         0.031502   
     73. D(C   5,N   6,C   1,C   2)     -0.0000         0.031502   
     74. D(N  15,C  11,C   1,N   6)    -40.2216         0.014238   
     75. D(N  15,C  11,C   1,C   2)    139.7784         0.014238   
     76. D(C  12,C  11,C   1,N   6)    139.7784         0.014238   
     77. D(C  12,C  11,C   1,C   2)    -40.2216         0.014238   
     78. D(H  16,C  12,C  11,N  15)    180.0000         0.025467   
     79. D(H  16,C  12,C  11,C   1)      0.0000         0.025467   
     80. D(C  13,C  12,C  11,N  15)      0.0000         0.025467   
     81. D(C  13,C  12,C  11,C   1)   -180.0000         0.025467   
     82. D(H  17,C  13,C   0,C  14)    180.0000         0.026858   
     83. D(C  12,C  13,C   0,H  18)   -180.0000         0.026858   
     84. D(C  12,C  13,C   0,C  14)      0.0000         0.026858   
     85. D(H  17,C  13,C  12,H  16)      0.0000         0.027287   
     86. D(H  17,C  13,C  12,C  11)   -180.0000         0.027287   
     87. D(C   0,C  13,C  12,H  16)    180.0000         0.027287   
     88. D(C   0,C  13,C  12,C  11)     -0.0000         0.027287   
     89. D(H  17,C  13,C   0,H  18)     -0.0000         0.026858   
     90. D(H  19,C  14,C   0,H  18)     -0.0000         0.026777   
     91. D(H  19,C  14,C   0,C  13)   -180.0000         0.026777   
     92. D(N  15,C  14,C   0,H  18)    180.0000         0.026777   
     93. D(N  15,C  14,C   0,C  13)      0.0000         0.026777   
     94. D(C  11,N  15,C  14,H  19)    180.0000         0.033345   
     95. D(C  11,N  15,C  14,C   0)     -0.0000         0.033345   
     96. D(C  14,N  15,C  11,C  12)      0.0000         0.031502   
     97. D(C  14,N  15,C  11,C   1)    180.0000         0.031502   
    -----------------------------------------------------------------

Number of atoms                         .... 20
Number of degrees of freedom            .... 97


         *************************************************************
         *                GEOMETRY OPTIMIZATION CYCLE   1            *
         *************************************************************
---------------------------------
CARTESIAN COORDINATES (ANGSTROEM)
---------------------------------
  C      0.004559    0.000000   -3.489690
  C     -0.056109   -0.041695    0.734815
  C      1.100443   -0.178593    1.507595
  C      0.996423   -0.206810    2.892233
  C     -0.260590   -0.097743    3.477473
  C     -1.365695    0.035745    2.642921
  N     -1.272952    0.063773    1.305431
  H      2.085183   -0.263892    1.043943
  H      1.893470   -0.313467    3.508700
  H     -0.382724   -0.115842    4.563892
  H     -2.374763    0.124847    3.057191
  C     -0.003918   -0.005826   -0.738869
  C      1.001184    0.684949   -1.421613
  C      1.004814    0.687444   -2.810431
  C     -0.962052   -0.664321   -2.741428
  N     -0.971945   -0.671121   -1.400488
  H      1.784447    1.223261   -0.884320
  H      1.785499    1.223984   -3.357018
  H     -0.026055   -0.021040   -4.582471
  H     -1.768598   -1.218635   -3.231321

----------------------------
CARTESIAN COORDINATES (A.U.)
----------------------------
  NO LB      ZA    FRAG     MASS         X           Y           Z
   0 C     6.0000    0    12.011    0.008615    0.000000   -6.594559
   1 C     6.0000    0    12.011   -0.106031   -0.078792    1.388600
   2 C     6.0000    0    12.011    2.079535   -0.337492    2.848942
   3 C     6.0000    0    12.011    1.882966   -0.390815    5.465528
   4 C     6.0000    0    12.011   -0.492443   -0.184707    6.571472
   5 C     6.0000    0    12.011   -2.580790    0.067549    4.994397
   6 N     7.0000    0    14.007   -2.405530    0.120514    2.466908
   7 H     1.0000    0     1.008    3.940425   -0.498683    1.972766
   8 H     1.0000    0     1.008    3.578139   -0.592368    6.630482
   9 H     1.0000    0     1.008   -0.723243   -0.218909    8.624505
  10 H     1.0000    0     1.008   -4.487651    0.235927    5.777253
  11 C     6.0000    0    12.011   -0.007405   -0.011010   -1.396260
  12 C     6.0000    0    12.011    1.891964    1.294367   -2.686458
  13 C     6.0000    0    12.011    1.898823    1.299081   -5.310946
  14 C     6.0000    0    12.011   -1.818014   -1.255385   -5.180549
  15 N     7.0000    0    14.007   -1.836710   -1.268234   -2.646539
  16 H     1.0000    0     1.008    3.372117    2.311629   -1.671123
  17 H     1.0000    0     1.008    3.374103    2.312994   -6.343845
  18 H     1.0000    0     1.008   -0.049236   -0.039759   -8.659616
  19 H     1.0000    0     1.008   -3.342166   -2.302886   -6.106312

--------------------------------
INTERNAL COORDINATES (ANGSTROEM)
--------------------------------
 C      0   0   0     0.000000000000     0.00000000     0.00000000
 C      1   0   0     4.225147135889     0.00000000     0.00000000
 C      2   1   0     1.397691330385   122.81297111     0.00000000
 C      3   2   1     1.388825928683   119.42239398   181.12351191
 C      4   3   2     1.390856801105   119.05209130     0.00000000
 C      5   4   3     1.391241990135   118.22966304     0.00000000
 N      6   5   4     1.340994081790   123.04947699     0.00000000
 H      3   2   1     1.091770860200   121.27868577     1.12351147
 H      4   3   2     1.093663767800   120.16688635   180.00000000
 H      5   4   3     1.093412009951   121.18066901   179.99999915
 H      6   5   4     1.094429618747   120.87211144   179.99999915
 C      2   1   7     1.475044474376     1.46232514   219.75571493
 C     12   2   7     1.397691338139   121.70132506   139.77836261
 C     13  12   2     1.388825925770   119.42239337   180.00000000
 C      1   2   3     1.391241992581    56.46514854   139.17868000
 N     15   1   2     1.340994080538   123.04947609     0.00000000
 H     13  12   2     1.091770854375   121.27868582     0.00000000
 H     14  13  12     1.093663776711   120.16688596   180.00000085
 H      1   2   3     1.093412021722   177.05481575   139.17867300
 H     15   1   2     1.094429610900   120.87211149   180.00000000

---------------------------
INTERNAL COORDINATES (A.U.)
---------------------------
 C      0   0   0     0.000000000000     0.00000000     0.00000000
 C      1   0   0     7.984370962351     0.00000000     0.00000000
 C      2   1   0     2.641253834185   122.81297111     0.00000000
 C      3   2   1     2.624500652899   119.42239398   181.12351191
 C      4   3   2     2.628338445589   119.05209130     0.00000000
 C      5   4   3     2.629066347367   118.22966304     0.00000000
 N      6   5   4     2.534111561792   123.04947699     0.00000000
 H      3   2   1     2.063147926774   121.27868577     1.12351147
 H      4   3   2     2.066725003734   120.16688635   180.00000000
 H      5   4   3     2.066249250349   121.18066901   179.99999915
 H      6   5   4     2.068172252283   120.87211144   179.99999915
 C      2   1   7     2.787430091924     1.46232514   219.75571493
 C     12   2   7     2.641253848836   121.70132506   139.77836261
 C     13  12   2     2.624500647395   119.42239337   180.00000000
 C      1   2   3     2.629066351989    56.46514854   139.17868000
 N     15   1   2     2.534111559426   123.04947609     0.00000000
 H     13  12   2     2.063147915766   121.27868582     0.00000000
 H     14  13  12     2.066725020574   120.16688596   180.00000085
 H      1   2   3     2.066249272591   177.05481575   139.17867300
 H     15   1   2     2.068172237454   120.87211149   180.00000000

---------------------
BASIS SET INFORMATION
---------------------
There are 3 groups of distinct atoms

 Group   1 Type C   : 7s4p1d contracted to 3s2p1d pattern {511/31/1}
 Group   2 Type N   : 7s4p1d contracted to 3s2p1d pattern {511/31/1}
 Group   3 Type H   : 4s contracted to 2s pattern {31}

Atom   0C    basis set group =>   1
Atom   1C    basis set group =>   1
Atom   2C    basis set group =>   1
Atom   3C    basis set group =>   1
Atom   4C    basis set group =>   1
Atom   5C    basis set group =>   1
Atom   6N    basis set group =>   2
Atom   7H    basis set group =>   3
Atom   8H    basis set group =>   3
Atom   9H    basis set group =>   3
Atom  10H    basis set group =>   3
Atom  11C    basis set group =>   1
Atom  12C    basis set group =>   1
Atom  13C    basis set group =>   1
Atom  14C    basis set group =>   1
Atom  15N    basis set group =>   2
Atom  16H    basis set group =>   3
Atom  17H    basis set group =>   3
Atom  18H    basis set group =>   3
Atom  19H    basis set group =>   3
---------------------------------
AUXILIARY/J BASIS SET INFORMATION
---------------------------------
There are 3 groups of distinct atoms

 Group   1 Type C   : 12s5p4d2f1g contracted to 6s4p3d1f1g pattern {711111/2111/211/2/1}
 Group   2 Type N   : 12s5p4d2f1g contracted to 6s4p3d1f1g pattern {711111/2111/211/2/1}
 Group   3 Type H   : 5s2p1d contracted to 3s1p1d pattern {311/2/1}

Atom   0C    basis set group =>   1
Atom   1C    basis set group =>   1
Atom   2C    basis set group =>   1
Atom   3C    basis set group =>   1
Atom   4C    basis set group =>   1
Atom   5C    basis set group =>   1
Atom   6N    basis set group =>   2
Atom   7H    basis set group =>   3
Atom   8H    basis set group =>   3
Atom   9H    basis set group =>   3
Atom  10H    basis set group =>   3
Atom  11C    basis set group =>   1
Atom  12C    basis set group =>   1
Atom  13C    basis set group =>   1
Atom  14C    basis set group =>   1
Atom  15N    basis set group =>   2
Atom  16H    basis set group =>   3
Atom  17H    basis set group =>   3
Atom  18H    basis set group =>   3
Atom  19H    basis set group =>   3


           ************************************************************
           *        Program running with 15 parallel MPI-processes    *
           *              working on a common directory               *
           ************************************************************
------------------------------------------------------------------------------
                             ORCA STARTUP CALCULATIONS
                           -- RI-GTO INTEGRALS CHOSEN --
------------------------------------------------------------------------------
------------------------------------------------------------------------------
                   ___                                                        
                  /   \      - P O W E R E D   B Y -                         
                 /     \                                                     
                 |  |  |   _    _      __       _____    __    __             
                 |  |  |  | |  | |    /  \     |  _  \  |  |  /  |          
                  \  \/   | |  | |   /    \    | | | |  |  | /  /          
                 / \  \   | |__| |  /  /\  \   | |_| |  |  |/  /          
                |  |  |   |  __  | /  /__\  \  |    /   |      \           
                |  |  |   | |  | | |   __   |  |    \   |  |\   \          
                \     /   | |  | | |  |  |  |  | |\  \  |  | \   \       
                 \___/    |_|  |_| |__|  |__|  |_| \__\ |__|  \__/        
                                                                              
                      - O R C A' S   B I G   F R I E N D -                    
                                      &                                       
                       - I N T E G R A L  F E E D E R -                       
                                                                              
 v1 FN, 2020, v2 2021, v3 2022-2024                                           
------------------------------------------------------------------------------


----------------------
SHARK INTEGRAL PACKAGE
----------------------

Number of atoms                             ...     20
Number of basis functions                   ...    184
Number of shells                            ...     88
Maximum angular momentum                    ...      2
Integral batch strategy                     ... SHARK/LIBINT Hybrid
RI-J (if used) integral strategy            ... SPLIT-RIJ (Revised 2003 algorithm where possible)
Printlevel                                  ...      1
Contraction scheme used                     ... SEGMENTED contraction
Prescreening option                         ... SCHWARTZ
   Thresh                                   ... 2.500e-11
   Tcut                                     ... 2.500e-12
   Tpresel                                  ... 2.500e-12 
Coulomb Range Separation                    ... NOT USED
Exchange Range Separation                   ... NOT USED
Multipole approximations                    ... NOT USED
Finite Nucleus Model                        ... NOT USED
CABS basis                                  ... NOT available
Auxiliary Coulomb fitting basis             ... AVAILABLE
   # of basis functions in Aux-J            ...    676
   # of shells in Aux-J                     ...    220
   Maximum angular momentum in Aux-J        ...      4
Auxiliary J/K fitting basis                 ... NOT available
Auxiliary Correlation fitting basis         ... NOT available
Auxiliary 'external' fitting basis          ... NOT available

Checking pre-screening integrals            ... done (  0.1 sec) Dimension = 88
Check shell pair data                       ... done (  0.1 sec)
Shell pair information
Shell pair cut-off parameter TPreSel        ...   2.5e-12
Total number of shell pairs                 ...      3916
Shell pairs after pre-screening             ...      3510
Total number of primitive shell pairs       ...     15756
Primitive shell pairs kept                  ...      9695
          la=0 lb=0:   1203 shell pairs
          la=1 lb=0:   1162 shell pairs
          la=1 lb=1:    292 shell pairs
          la=2 lb=0:    524 shell pairs
          la=2 lb=1:    266 shell pairs
          la=2 lb=2:     63 shell pairs

Calculating one electron integrals          ... done (  0.0 sec)
Calculating RI/J V-Matrix + Cholesky decomp.... done (  0.1 sec)
Calculating Nuclear repulsion               ... done (  0.0 sec) ENN=    609.085359958830 Eh

Diagonalization of the overlap matrix:
Smallest eigenvalue                        ... 5.828e-04
Time for diagonalization                   ...    0.006 sec
Threshold for overlap eigenvalues          ... 1.000e-07
Number of eigenvalues below threshold      ... 0
Time for construction of square roots      ...    0.018 sec
Total time needed                          ...    0.157 sec

-------------------
DFT GRID GENERATION
-------------------

General Integration Accuracy     IntAcc      ... 4.388
Radial Grid Type                 RadialGrid  ... OptM3 with GC (2021)
Angular Grid (max. ang.)         AngularGrid ... 4 (Lebedev-302)
Angular grid pruning method      GridPruning ... 4 (adaptive)
Weight generation scheme         WeightScheme... mBecke (2022)
Basis function cutoff            BFCut       ... 1.0000e-11
Integration weight cutoff        WCut        ... 1.0000e-14
Partially contracted basis set               ... off
Rotationally invariant grid construction     ... off
Angular grids for H and He will be reduced by one unit

Total number of grid points                  ...    97823
Total number of batches                      ...     1540
Average number of points per batch           ...       63
Average number of grid points per atom       ...     4891

--------------------
COSX GRID GENERATION
--------------------

GRIDX 1
-------
General Integration Accuracy     IntAcc      ... 3.816
Radial Grid Type                 RadialGrid  ... OptM3 with GC (2021)
Angular Grid (max. ang.)         AngularGrid ... 1 (Lebedev-50)
Angular grid pruning method      GridPruning ... 4 (adaptive)
Weight generation scheme         WeightScheme... mBecke (2022)
Basis function cutoff            BFCut       ... 1.0000e-11
Integration weight cutoff        WCut        ... 1.0000e-14
Partially contracted basis set               ... on
Rotationally invariant grid construction     ... off
Angular grids for H and He will be reduced by one unit

Total number of grid points                  ...    12452
Total number of batches                      ...      106
Average number of points per batch           ...      117
Average number of grid points per atom       ...      623
UseSFitting                                  ... on

GRIDX 2
-------
General Integration Accuracy     IntAcc      ... 4.020
Radial Grid Type                 RadialGrid  ... OptM3 with GC (2021)
Angular Grid (max. ang.)         AngularGrid ... 2 (Lebedev-110)
Angular grid pruning method      GridPruning ... 4 (adaptive)
Weight generation scheme         WeightScheme... mBecke (2022)
Basis function cutoff            BFCut       ... 1.0000e-11
Integration weight cutoff        WCut        ... 1.0000e-14
Partially contracted basis set               ... on
Rotationally invariant grid construction     ... off
Angular grids for H and He will be reduced by one unit

Total number of grid points                  ...    27532
Total number of batches                      ...      224
Average number of points per batch           ...      122
Average number of grid points per atom       ...     1377
UseSFitting                                  ... on

GRIDX 3
-------
General Integration Accuracy     IntAcc      ... 4.338
Radial Grid Type                 RadialGrid  ... OptM3 with GC (2021)
Angular Grid (max. ang.)         AngularGrid ... 3 (Lebedev-194)
Angular grid pruning method      GridPruning ... 4 (adaptive)
Weight generation scheme         WeightScheme... mBecke (2022)
Basis function cutoff            BFCut       ... 1.0000e-11
Integration weight cutoff        WCut        ... 1.0000e-14
Partially contracted basis set               ... on
Rotationally invariant grid construction     ... off
Angular grids for H and He will be reduced by one unit

Total number of grid points                  ...    60567
Total number of batches                      ...      483
Average number of points per batch           ...      125
Average number of grid points per atom       ...     3028
UseSFitting                                  ... on
Initializing property integral containers    ... done (  0.2 sec)

SHARK setup successfully completed in   4.3 seconds

Maximum memory used throughout the entire STARTUP-calculation: 24.5 MB


           ************************************************************
           *        Program running with 15 parallel MPI-processes    *
           *              working on a common directory               *
           ************************************************************
-------------------------------------------------------------------------------
                                 ORCA GUESS
                   Start orbitals & Density for SCF / CASSCF
-------------------------------------------------------------------------------

------------
SCF SETTINGS
------------
Hamiltonian:
 Density Functional     Method          .... DFT(GTOs)
 Exchange Functional    Exchange        .... PBE
   PBE kappa parameter   XKappa         ....  0.804000
   PBE mue parameter    XMuePBE         ....  0.219520
 Correlation Functional Correlation     .... PBE
   PBE beta parameter  CBetaPBE         ....  0.066725
 LDA part of GGA corr.  LDAOpt          .... PW91-LDA
 Gradients option       PostSCFGGA      .... off
 Hybrid DFT is turned on
   Fraction HF Exchange ScalHFX         ....  0.250000
   Scaling of DF-GGA-X  ScalDFX         ....  0.750000
   Scaling of DF-GGA-C  ScalDFC         ....  1.000000
   Scaling of DF-LDA-C  ScalLDAC        ....  1.000000
   Perturbative correction              ....  0.000000
   NL short-range parameter             ....  6.900000
 RI-approximation to the Coulomb term is turned on
   Number of AuxJ basis functions       .... 676
   RIJ-COSX (HFX calculated with COS-X)).... on


General Settings:
 Integral files         IntName         .... cs_rporg_w01_ox_opt_01
 Hartree-Fock type      HFTyp           .... RHF
 Total Charge           Charge          ....    0
 Multiplicity           Mult            ....    1
 Number of Electrons    NEL             ....   82
 Basis Dimension        Dim             ....  184
 Nuclear Repulsion      ENuc            ....    609.0853599588 Eh

Convergence Acceleration:
 AO-DIIS                CNVDIIS         .... on
   Start iteration      DIISMaxIt       ....     0
   Startup error        DIISStart       ....  0.200000
   # of expansion vecs  DIISMaxEq       ....     5
   Bias factor          DIISBfac        ....   1.050
   Max. coefficient     DIISMaxC        ....  10.000
 MO-DIIS                CNVKDIIS        .... off
 Trust-Rad. Augm. Hess. CNVTRAH         .... auto
   Auto Start mean grad. ratio tolernc. ....  1.125000
   Auto Start start iteration           ....    50
   Auto Start num. interpolation iter.  ....    10
   Max. Number of Micro iterations      ....    24
   Max. Number of Macro iterations      .... Maxiter - #DIIS iter
   Number of Davidson start vectors     ....     2
   Converg. threshold    (grad. norm)   ....   1.000e-05
   Grad. Scal. Fac. for Micro threshold ....   0.100
   Minimum threshold for Micro iter.    ....   1.000e-02
   NR start threshold (gradient norm)   ....   1.000e-04
   Initial trust radius                 ....   0.400
   Minimum AH scaling param. (alpha)    ....   1.000
   Maximum AH scaling param. (alpha)    .... 1000.000
   Quad. conv. algorithm                .... NR
   White noise on init. David. guess    .... on
   Maximum white noise                  ....   0.010
   Pseudo random numbers                .... off
   Inactive MOs                         .... canonical
   Orbital update algorithm             .... Taylor
   Preconditioner                       .... Diag
   Full preconditioner red. dimension   ....   250
 SOSCF                  CNVSOSCF        .... on
   Start iteration      SOSCFMaxIt      ....   150
   Startup grad/error   SOSCFStart      ....  0.001000
   Hessian update       SOSCFHessUp     .... L-BFGS
 Level Shifting         CNVShift        .... on
   Level shift para.    LevelShift      ....    0.2500
   Turn off err/grad.   ShiftErr        ....    0.0000
 Zerner damping         CNVZerner       .... off
 Static damping         CNVDamp         .... on
   Fraction old density DampFac         ....    0.8500
   Max. Damping (<1)    DampMax         ....    0.9800
   Min. Damping (>=0)   DampMin         ....    0.0000
   Turn off err/grad.   DampErr         ....    0.0300

SCF Procedure:
 Maximum # iterations   MaxIter         ....  1500
 SCF integral mode      SCFMode         .... Direct
   Integral package                     .... SHARK and LIBINT hybrid scheme
 Reset frequency        DirectResetFreq ....    20
 Integral Threshold     Thresh          ....  2.500e-11 Eh
 Primitive CutOff       TCut            ....  2.500e-12 Eh

Convergence Tolerance:
 Convergence Check Mode ConvCheckMode   .... Total+1el-Energy
 Convergence forced     ConvForced      .... 0
 Energy Change          TolE            ....  1.000e-08 Eh
 1-El. energy change                    ....  1.000e-05 Eh
 Orbital Gradient       TolG            ....  1.000e-05
 Orbital Rotation angle TolX            ....  1.000e-05
 DIIS Error             TolErr          ....  5.000e-07

------------------------------
INITIAL GUESS: MODEL POTENTIAL
------------------------------
Loading Hartree-Fock densities                     ... done
Calculating cut-offs                               ... done
Initializing the effective Hamiltonian             ... done
Setting up the integral package (SHARK)            ... done
Starting the Coulomb interaction                   ... done (   0.2 sec)
Making the grid                                    ... done (   0.4 sec)
Mapping shells                                     ... done
Starting the XC term evaluation                    ... done (   0.1 sec)
  promolecular density results
     # of electrons  =     81.993735000
     EX              =    -66.537368017
     EC              =     -2.727922633
     EX+EC           =    -69.265290650
Transforming the Hamiltonian                       ... done (   0.1 sec)
Diagonalizing the Hamiltonian                      ... done (   0.0 sec)
Back transforming the eigenvectors                 ... done (   0.1 sec)
Now organizing SCF variables                       ... done
                      ------------------
                      INITIAL GUESS DONE (   1.4 sec)
                      ------------------
             **** ENERGY FILE WAS UPDATED (cs_rporg_w01_ox_opt_01.en.tmp) ****
Finished Guess after   3.8 sec
Maximum memory used throughout the entire GUESS-calculation: 13.5 MB


           ************************************************************
           *        Program running with 15 parallel MPI-processes    *
           *              working on a common directory               *
           ************************************************************

-------------------------------------------------------------------------------------------
                                      ORCA LEAN-SCF
                              memory conserving SCF solver
-------------------------------------------------------------------------------------------

----------------------------------------D-I-I-S--------------------------------------------
Iteration    Energy (Eh)           Delta-E    RMSDP     MaxDP     DIISErr   Damp  Time(sec)
-------------------------------------------------------------------------------------------
               ***  Starting incremental Fock matrix formation  ***
    1    -494.2205992174735911     0.00e+00  1.49e-03  3.25e-02  1.59e-01  0.850   5.2
    2    -494.2697297509794225    -4.91e-02  1.46e-03  2.74e-02  1.19e-01  0.850   4.5
                               ***Turning on AO-DIIS***
    3    -494.3037364885494753    -3.40e-02  8.98e-04  1.38e-02  8.18e-02  0.850   4.0
    4    -494.3265656781156849    -2.28e-02  6.49e-04  9.26e-03  6.57e-02  0.850   3.7
    5    -494.3433472902715948    -1.68e-02  5.12e-04  7.31e-03  5.57e-02  0.850   4.6
    6    -494.3565651407520818    -1.32e-02  4.24e-04  6.66e-03  4.75e-02  0.850   4.8
    7    -494.3673496109445296    -1.08e-02  3.59e-04  6.07e-03  4.00e-02  0.850   4.2
    8    -494.3762425481691025    -8.89e-03  3.04e-04  4.95e-03  3.32e-02  0.850   4.4
    9    -494.3835610730566259    -7.32e-03  2.57e-04  3.95e-03  2.77e-02  0.850   4.7
   10    -494.3896040704712505    -6.04e-03  1.45e-03  2.20e-02  2.34e-02  0.000   4.7
   11    -494.4211790722608839    -3.16e-02  7.09e-05  1.55e-03  1.64e-03  0.000   3.8
                              *** Initializing SOSCF ***
---------------------------------------S-O-S-C-F--------------------------------------
Iteration    Energy (Eh)           Delta-E    RMSDP     MaxDP     MaxGrad    Time(sec)
--------------------------------------------------------------------------------------
   12    -494.4211996515450664    -2.06e-05  2.86e-05  6.71e-04  9.39e-04     6.3
               *** Restarting incremental Fock matrix formation ***
   13    -494.4212926665256873    -9.30e-05  2.36e-05  3.50e-04  4.81e-05     4.5
   14    -494.4212927003911773    -3.39e-08  7.74e-06  1.16e-04  7.23e-05     4.1
   15    -494.4212927998098621    -9.94e-08  5.96e-06  9.19e-05  1.88e-05     3.2
   16    -494.4212928111378460    -1.13e-08  1.62e-06  3.21e-05  1.06e-05     3.7
   17    -494.4212928144377202    -3.30e-09  8.78e-07  1.34e-05  2.70e-06     4.1
                 **** Energy Check signals convergence ****

               *****************************************************
               *                     SUCCESS                       *
               *           SCF CONVERGED AFTER  17 CYCLES          *
               *****************************************************

Recomputing exchange energy using gridx3       ... done (    1.227 sec)
Old exchange energy                            :    -16.931256285 Eh
New exchange energy                            :    -16.931266908 Eh
Exchange energy change after final integration :     -0.000010623 Eh
Total energy after final integration           :   -494.421303438 Eh
             **** ENERGY FILE WAS UPDATED (cs_rporg_w01_ox_opt_01.en.tmp) ****

----------------
TOTAL SCF ENERGY
----------------

Total Energy       :       -494.42130343751916 Eh          -13453.88765 eV

Components:
Nuclear Repulsion  :        609.08535995882994 Eh           16574.05525 eV
Electronic Energy  :      -1103.50665277326766 Eh          -30027.94261 eV
One Electron Energy:      -1875.34643729805907 Eh          -51030.77091 eV
Two Electron Energy:        771.83978452479141 Eh           21002.82830 eV

Virial components:
Potential Energy   :       -984.15856704854264 Eh          -26780.31609 eV
Kinetic Energy     :        489.73726361102354 Eh           13326.42845 eV
Virial Ratio       :          2.00956439334830

DFT components:
N(Alpha)           :       40.999981447061 electrons
N(Beta)            :       40.999981447061 electrons
N(Total)           :       81.999962894123 electrons
E(X)               :      -50.673909464080 Eh       
E(C)               :       -2.744913200963 Eh       
E(XC)              :      -53.418822665044 Eh       

---------------
SCF CONVERGENCE
---------------

  Last Energy change         ...    3.2999e-09  Tolerance :   1.0000e-08
  Last MAX-Density change    ...    1.3385e-05  Tolerance :   1.0000e-07
  Last RMS-Density change    ...    8.7805e-07  Tolerance :   5.0000e-09
  Last DIIS Error            ...    9.3910e-04  Tolerance :   5.0000e-07
  Last Orbital Gradient      ...    2.7038e-06  Tolerance :   1.0000e-05
  Last Orbital Rotation      ...    8.3342e-06  Tolerance :   1.0000e-05


----------------
ORBITAL ENERGIES
----------------

  NO   OCC          E(Eh)            E(eV) 
   0   2.0000     -14.386192      -391.4682 
   1   2.0000     -14.386148      -391.4670 
   2   2.0000     -10.278816      -279.7008 
   3   2.0000     -10.278637      -279.6959 
   4   2.0000     -10.268865      -279.4300 
   5   2.0000     -10.268858      -279.4298 
   6   2.0000     -10.257061      -279.1088 
   7   2.0000     -10.257050      -279.1085 
   8   2.0000     -10.248512      -278.8762 
   9   2.0000     -10.248493      -278.8757 
  10   2.0000     -10.246668      -278.8260 
  11   2.0000     -10.246664      -278.8259 
  12   2.0000      -0.973803       -26.4985 
  13   2.0000      -0.951659       -25.8960 
  14   2.0000      -0.827173       -22.5085 
  15   2.0000      -0.821087       -22.3429 
  16   2.0000      -0.813143       -22.1267 
  17   2.0000      -0.761646       -20.7254 
  18   2.0000      -0.673629       -18.3304 
  19   2.0000      -0.659846       -17.9553 
  20   2.0000      -0.635453       -17.2916 
  21   2.0000      -0.617993       -16.8164 
  22   2.0000      -0.558136       -15.1876 
  23   2.0000      -0.523547       -14.2464 
  24   2.0000      -0.517044       -14.0695 
  25   2.0000      -0.492330       -13.3970 
  26   2.0000      -0.491589       -13.3768 
  27   2.0000      -0.462723       -12.5913 
  28   2.0000      -0.448939       -12.2163 
  29   2.0000      -0.432624       -11.7723 
  30   2.0000      -0.422580       -11.4990 
  31   2.0000      -0.416883       -11.3440 
  32   2.0000      -0.405835       -11.0433 
  33   2.0000      -0.393079       -10.6962 
  34   2.0000      -0.377186       -10.2638 
  35   2.0000      -0.311119        -8.4660 
  36   2.0000      -0.302213        -8.2236 
  37   2.0000      -0.295946        -8.0531 
  38   2.0000      -0.266243        -7.2448 
  39   2.0000      -0.261688        -7.1209 
  40   2.0000      -0.260441        -7.0870 
  41   0.0000      -0.047284        -1.2867 
  42   0.0000      -0.022202        -0.6042 
  43   0.0000      -0.022130        -0.6022 
  44   0.0000       0.015281         0.4158 
  45   0.0000       0.069948         1.9034 
  46   0.0000       0.076232         2.0744 
  47   0.0000       0.103226         2.8089 
  48   0.0000       0.117518         3.1978 
  49   0.0000       0.133899         3.6436 
  50   0.0000       0.138056         3.7567 
  51   0.0000       0.146495         3.9863 
*Only the first 10 virtual orbitals were printed.

                    ********************************
                    * MULLIKEN POPULATION ANALYSIS *
                    ********************************

-----------------------
MULLIKEN ATOMIC CHARGES
-----------------------
   0 C :   -0.128936
   1 C :    0.047205
   2 C :   -0.129984
   3 C :   -0.044944
   4 C :   -0.129010
   5 C :   -0.025041
   6 N :   -0.146074
   7 H :    0.098752
   8 H :    0.107560
   9 H :    0.108097
  10 H :    0.113310
  11 C :    0.046767
  12 C :   -0.129918
  13 C :   -0.044988
  14 C :   -0.025388
  15 N :   -0.145409
  16 H :    0.098879
  17 H :    0.107627
  18 H :    0.108084
  19 H :    0.113409
Sum of atomic charges:   -0.0000000

--------------------------------
MULLIKEN REDUCED ORBITAL CHARGES
--------------------------------
  0 C s       :     3.184852  s :     3.184852
      pz      :     0.929778  p :     2.908289
      px      :     0.986035
      py      :     0.992476
      dz2     :     0.011875  d :     0.035795
      dxz     :     0.007711
      dyz     :     0.004939
      dx2y2   :     0.005713
      dxy     :     0.005558

  1 C s       :     3.045031  s :     3.045031
      pz      :     0.985487  p :     2.846910
      px      :     0.908753
      py      :     0.952670
      dz2     :     0.016936  d :     0.060854
      dxz     :     0.018513
      dyz     :     0.006205
      dx2y2   :     0.009765
      dxy     :     0.009436

  2 C s       :     3.198236  s :     3.198236
      pz      :     0.960914  p :     2.896405
      px      :     0.931258
      py      :     1.004233
      dz2     :     0.008762  d :     0.035342
      dxz     :     0.012687
      dyz     :     0.005418
      dx2y2   :     0.005567
      dxy     :     0.002907

  3 C s       :     3.155377  s :     3.155377
      pz      :     0.967577  p :     2.851586
      px      :     0.933986
      py      :     0.950023
      dz2     :     0.008747  d :     0.037980
      dxz     :     0.014191
      dyz     :     0.005661
      dx2y2   :     0.005383
      dxy     :     0.003998

  4 C s       :     3.184648  s :     3.184648
      pz      :     0.931036  p :     2.908565
      px      :     0.978137
      py      :     0.999391
      dz2     :     0.011614  d :     0.035798
      dxz     :     0.010418
      dyz     :     0.002551
      dx2y2   :     0.005488
      dxy     :     0.005727

  5 C s       :     3.163626  s :     3.163626
      pz      :     0.923324  p :     2.804855
      px      :     0.939844
      py      :     0.941687
      dz2     :     0.015982  d :     0.056560
      dxz     :     0.022128
      dyz     :     0.009337
      dx2y2   :     0.005894
      dxy     :     0.003218

  6 N s       :     3.527639  s :     3.527639
      pz      :     1.148481  p :     3.589833
      px      :     1.345880
      py      :     1.095472
      dz2     :     0.008851  d :     0.028601
      dxz     :     0.005783
      dyz     :     0.004579
      dx2y2   :     0.005084
      dxy     :     0.004305

  7 H s       :     0.901248  s :     0.901248

  8 H s       :     0.892440  s :     0.892440

  9 H s       :     0.891903  s :     0.891903

 10 H s       :     0.886690  s :     0.886690

 11 C s       :     3.045112  s :     3.045112
      pz      :     0.984304  p :     2.847262
      px      :     0.925998
      py      :     0.936960
      dz2     :     0.017717  d :     0.060858
      dxz     :     0.013533
      dyz     :     0.010661
      dx2y2   :     0.009387
      dxy     :     0.009561

 12 C s       :     3.197862  s :     3.197862
      pz      :     0.954785  p :     2.896712
      px      :     0.957545
      py      :     0.984382
      dz2     :     0.008444  d :     0.035345
      dxz     :     0.010726
      dyz     :     0.007684
      dx2y2   :     0.003342
      dxy     :     0.005149

 13 C s       :     3.155208  s :     3.155208
      pz      :     0.972171  p :     2.851796
      px      :     0.935711
      py      :     0.943915
      dz2     :     0.009109  d :     0.037983
      dxz     :     0.011183
      dyz     :     0.008423
      dx2y2   :     0.003846
      dxy     :     0.005422

 14 C s       :     3.163894  s :     3.163894
      pz      :     0.924681  p :     2.804929
      px      :     0.941232
      py      :     0.939016
      dz2     :     0.015240  d :     0.056565
      dxz     :     0.018729
      dyz     :     0.013575
      dx2y2   :     0.003691
      dxy     :     0.005330

 15 N s       :     3.527142  s :     3.527142
      pz      :     1.110338  p :     3.589666
      px      :     1.287249
      py      :     1.192079
      dz2     :     0.008237  d :     0.028600
      dxz     :     0.006052
      dyz     :     0.005153
      dx2y2   :     0.004344
      dxy     :     0.004814

 16 H s       :     0.901121  s :     0.901121

 17 H s       :     0.892373  s :     0.892373

 18 H s       :     0.891916  s :     0.891916

 19 H s       :     0.886591  s :     0.886591



                     *******************************
                     * LOEWDIN POPULATION ANALYSIS *
                     *******************************

----------------------
LOEWDIN ATOMIC CHARGES
----------------------
   0 C :   -0.149769
   1 C :    0.003191
   2 C :   -0.136597
   3 C :   -0.099934
   4 C :   -0.149808
   5 C :   -0.066789
   6 N :   -0.075850
   7 H :    0.133512
   8 H :    0.134115
   9 H :    0.134564
  10 H :    0.123585
  11 C :    0.003164
  12 C :   -0.136608
  13 C :   -0.099977
  14 C :   -0.066834
  15 N :   -0.075787
  16 H :    0.133528
  17 H :    0.134130
  18 H :    0.134563
  19 H :    0.123600

-------------------------------
LOEWDIN REDUCED ORBITAL CHARGES
-------------------------------
  0 C s       :     2.905090  s :     2.905090
      pz      :     1.072210  p :     3.154247
      px      :     1.060607
      py      :     1.021430
      dz2     :     0.028375  d :     0.090432
      dxz     :     0.021641
      dyz     :     0.012134
      dx2y2   :     0.012666
      dxy     :     0.015617

  1 C s       :     2.849298  s :     2.849298
      pz      :     1.032567  p :     2.999651
      px      :     1.037914
      py      :     0.929170
      dz2     :     0.044364  d :     0.147860
      dxz     :     0.047427
      dyz     :     0.011847
      dx2y2   :     0.025909
      dxy     :     0.018313

  2 C s       :     2.899556  s :     2.899556
      pz      :     1.078935  p :     3.146864
      px      :     1.069929
      py      :     0.998001
      dz2     :     0.026559  d :     0.090177
      dxz     :     0.034448
      dyz     :     0.011111
      dx2y2   :     0.012757
      dxy     :     0.005302

  3 C s       :     2.898209  s :     2.898209
      pz      :     1.086384  p :     3.108333
      px      :     1.078282
      py      :     0.943667
      dz2     :     0.025243  d :     0.093393
      dxz     :     0.036846
      dyz     :     0.011507
      dx2y2   :     0.012346
      dxy     :     0.007452

  4 C s       :     2.905079  s :     2.905079
      pz      :     1.072894  p :     3.154298
      px      :     1.091779
      py      :     0.989625
      dz2     :     0.028023  d :     0.090431
      dxz     :     0.030329
      dyz     :     0.003995
      dx2y2   :     0.015760
      dxy     :     0.012325

  5 C s       :     2.898195  s :     2.898195
      pz      :     1.023511  p :     3.037396
      px      :     1.076816
      py      :     0.937068
      dz2     :     0.041395  d :     0.131197
      dxz     :     0.054640
      dyz     :     0.017607
      dx2y2   :     0.012049
      dxy     :     0.005506

  6 N s       :     3.229404  s :     3.229404
      pz      :     1.268103  p :     3.787435
      px      :     1.423031
      py      :     1.096301
      dz2     :     0.021099  d :     0.059010
      dxz     :     0.014097
      dyz     :     0.007944
      dx2y2   :     0.009698
      dxy     :     0.006172

  7 H s       :     0.866488  s :     0.866488

  8 H s       :     0.865885  s :     0.865885

  9 H s       :     0.865436  s :     0.865436

 10 H s       :     0.876415  s :     0.876415

 11 C s       :     2.849305  s :     2.849305
      pz      :     1.027973  p :     2.999673
      px      :     1.002576
      py      :     0.969124
      dz2     :     0.046005  d :     0.147859
      dxz     :     0.034348
      dyz     :     0.023707
      dx2y2   :     0.018996
      dxy     :     0.024802

 12 C s       :     2.899532  s :     2.899532
      pz      :     1.078882  p :     3.146899
      px      :     1.045725
      py      :     1.022292
      dz2     :     0.025566  d :     0.090178
      dxz     :     0.027792
      dyz     :     0.018336
      dx2y2   :     0.006531
      dxy     :     0.011954

 13 C s       :     2.898200  s :     2.898200
      pz      :     1.088060  p :     3.108385
      px      :     1.034715
      py      :     0.985610
      dz2     :     0.026267  d :     0.093392
      dxz     :     0.028282
      dyz     :     0.019767
      dx2y2   :     0.007196
      dxy     :     0.011880

 14 C s       :     2.898203  s :     2.898203
      pz      :     1.022397  p :     3.037436
      px      :     1.033354
      py      :     0.981685
      dz2     :     0.039262  d :     0.131194
      dxz     :     0.044282
      dyz     :     0.029762
      dx2y2   :     0.006727
      dxy     :     0.011162

 15 N s       :     3.229385  s :     3.229385
      pz      :     1.237694  p :     3.787388
      px      :     1.336319
      py      :     1.213374
      dz2     :     0.020262  d :     0.059013
      dxz     :     0.013608
      dyz     :     0.010470
      dx2y2   :     0.006176
      dxy     :     0.008497

 16 H s       :     0.866472  s :     0.866472

 17 H s       :     0.865870  s :     0.865870

 18 H s       :     0.865437  s :     0.865437

 19 H s       :     0.876400  s :     0.876400



                      *****************************
                      * MAYER POPULATION ANALYSIS *
                      *****************************

  NA   - Mulliken gross atomic population
  ZA   - Total nuclear charge
  QA   - Mulliken gross atomic charge
  VA   - Mayer's total valence
  BVA  - Mayer's bonded valence
  FA   - Mayer's free valence

  ATOM       NA         ZA         QA         VA         BVA        FA
  0 C      6.1289     6.0000    -0.1289     3.8503     3.8503    -0.0000
  1 C      5.9528     6.0000     0.0472     3.9855     3.9855     0.0000
  2 C      6.1300     6.0000    -0.1300     3.8729     3.8729     0.0000
  3 C      6.0449     6.0000    -0.0449     3.9028     3.9028    -0.0000
  4 C      6.1290     6.0000    -0.1290     3.8503     3.8503    -0.0000
  5 C      6.0250     6.0000    -0.0250     3.9728     3.9728    -0.0000
  6 N      7.1461     7.0000    -0.1461     3.1383     3.1383    -0.0000
  7 H      0.9012     1.0000     0.0988     0.9594     0.9594     0.0000
  8 H      0.8924     1.0000     0.1076     0.9505     0.9505    -0.0000
  9 H      0.8919     1.0000     0.1081     0.9526     0.9526    -0.0000
 10 H      0.8867     1.0000     0.1133     0.9532     0.9532    -0.0000
 11 C      5.9532     6.0000     0.0468     3.9860     3.9860     0.0000
 12 C      6.1299     6.0000    -0.1299     3.8732     3.8732     0.0000
 13 C      6.0450     6.0000    -0.0450     3.9029     3.9029    -0.0000
 14 C      6.0254     6.0000    -0.0254     3.9726     3.9726     0.0000
 15 N      7.1454     7.0000    -0.1454     3.1386     3.1386    -0.0000
 16 H      0.9011     1.0000     0.0989     0.9593     0.9593     0.0000
 17 H      0.8924     1.0000     0.1076     0.9504     0.9504     0.0000
 18 H      0.8919     1.0000     0.1081     0.9526     0.9526    -0.0000
 19 H      0.8866     1.0000     0.1134     0.9532     0.9532    -0.0000

  Mayer bond orders larger than 0.100000
B(  0-C , 13-C ) :   1.4233 B(  0-C , 14-C ) :   1.3784 B(  0-C , 18-H ) :   0.9490 
B(  1-C ,  2-C ) :   1.3929 B(  1-C ,  6-N ) :   1.5274 B(  1-C , 11-C ) :   0.9721 
B(  2-C ,  3-C ) :   1.4302 B(  2-C ,  7-H ) :   0.9416 B(  3-C ,  4-C ) :   1.4234 
B(  3-C ,  8-H ) :   0.9553 B(  4-C ,  5-C ) :   1.3784 B(  4-C ,  9-H ) :   0.9489 
B(  5-C ,  6-N ) :   1.5127 B(  5-C , 10-H ) :   0.9538 B( 11-C , 12-C ) :   1.3930 
B( 11-C , 15-N ) :   1.5277 B( 12-C , 13-C ) :   1.4305 B( 12-C , 16-H ) :   0.9415 
B( 13-C , 17-H ) :   0.9552 B( 14-C , 15-N ) :   1.5127 B( 14-C , 19-H ) :   0.9538 


-------
TIMINGS
-------

Total SCF time: 0 days 0 hours 1 min 19 sec 

Total time                  ....      79.073 sec
Sum of individual times     ....      76.821 sec  ( 97.2%)

SCF preparation             ....       1.631 sec  (  2.1%)
Fock matrix formation       ....      47.045 sec  ( 59.5%)
  Startup                   ....       5.207 sec  ( 11.1% of F)
  Split-RI-J                ....       9.157 sec  ( 19.5% of F)
  Chain of spheres X        ....      15.650 sec  ( 33.3% of F)
  XC integration            ....      11.141 sec  ( 23.7% of F)
    XC Preparation          ....       0.000 sec  (  0.0% of XC)
    Basis function eval.    ....       0.626 sec  (  5.6% of XC)
    Density eval.           ....       0.308 sec  (  2.8% of XC)
    XC-Functional eval.     ....       0.122 sec  (  1.1% of XC)
    XC-Potential eval.      ....       0.303 sec  (  2.7% of XC)
Diagonalization             ....       0.000 sec  (  0.0%)
Density matrix formation    ....       9.634 sec  ( 12.2%)
Total Energy calculation    ....       4.109 sec  (  5.2%)
Population analysis         ....       0.786 sec  (  1.0%)
Orbital Transformation      ....       0.612 sec  (  0.8%)
Orbital Orthonormalization  ....       0.000 sec  (  0.0%)
DIIS solution               ....      10.910 sec  ( 13.8%)
SOSCF solution              ....       2.095 sec  (  2.6%)
Finished LeanSCF after  79.5 sec

Maximum memory used throughout the entire LEANSCF-calculation: 20.1 MB


           ************************************************************
           *        Program running with 15 parallel MPI-processes    *
           *              working on a common directory               *
           ************************************************************

------------------------------------------------------------------------------
                         ORCA PROPERTY INTEGRAL CALCULATIONS
------------------------------------------------------------------------------

GBWName                                   ... cs_rporg_w01_ox_opt_01.gbw
Number of atoms                           ...     20
Number of basis functions                 ...    184
Max core memory                           ...   3500 MB

Dipole integrals                          ... YES
Quadrupole integrals                      ...  NO
Linear momentum integrals                 ...  NO
Angular momentum integrals                ...  NO
Higher moments length integrals           ...  NO
Higher moments velocity integrals         ...  NO
Kinetic energy integrals                  ...  NO
GIAO right hand sides                     ...  NO
GIAO dipole derivative integrals          ...  NO
SOC integrals                             ...  NO
EPR diamagnetic integrals (GIAO)          ...  NO
EPR gauge integrals                       ...  NO
Field gradient integrals                  ...  NO (   0 nuclei)
Spin-dipole/Fermi contact integrals       ...  NO (   0 nuclei)
Contact density integrals                 ...  NO (   0 nuclei)
Nucleus-orbit integrals                   ...  NO (   0 nuclei)
Geometric perturbations                   ...  NO (  20 nuclei)

Choice of electric origin   ... Center of mass
Position of electric origin ... ( -0.1319, -0.0642, -0.0070) 
Choice of magnetic origin   ... GIAO
Position of magnetic origin ... (  0.0000,  0.0000,  0.0000) 

Calculating integrals                     ... Electric Dipole (Length)     done (  0.1 sec)

Property integrals calculated in   0.1 sec

Maximum memory used throughout the entire PROPINT-calculation: 10.4 MB


-------------------------------------------------------------------------------
                          DFT DISPERSION CORRECTION                            
                                                                               
                              DFTD3 V3.1  Rev 1                                
                          USING Becke-Johnson damping                          
-------------------------------------------------------------------------------
The PBE0 functional is recognized
Active option DFTDOPT                   ...         4   

molecular C6(AA) [au] = 5321.140266 


            DFT-D V3
 parameters
 s6 scaling factor         :     1.0000 
 a1 scaling factor         :     0.4145 
 s8 scaling factor         :     1.2177 
 a2 scaling factor         :     4.8593 
 ad hoc parameters k1-k3   :    16.0000     1.3333    -4.0000 

 Edisp/kcal,au: -12.887256561631  -0.020537148393 
 E6   /kcal   :  -8.001301325 
 E8   /kcal   :  -4.885955237 
 % E8         :  37.913074930 

-------------------------   ----------------
Dispersion correction           -0.020537148
-------------------------   ----------------


-------------------------   --------------------
FINAL SINGLE POINT ENERGY      -494.441840585912
-------------------------   --------------------



           ************************************************************
           *        Program running with 15 parallel MPI-processes    *
           *              working on a common directory               *
           ************************************************************
------------------------------------------------------------------------------
                         ORCA SCF GRADIENT CALCULATION
------------------------------------------------------------------------------

Nuc. rep. gradient        (SHARK) ... done (  0.0 sec)
HCore & Overlap gradient  (SHARK) ... done (  0.1 sec)
Split-RIJ-J gradient      (SHARK) ... done (  0.7 sec)
COSX-gradient                     ... done (  3.6 sec)
XC gradient                       ... done (  1.0 sec)
Dispersion correction             ... done (  0.1 sec)

-------------------
DISPERSION GRADIENT
-------------------

   1   C   :   -0.000020806   -0.000012055   -0.000242920
   2   C   :   -0.000019663   -0.000010497    0.000137355
   3   C   :    0.000193027   -0.000041160    0.000199067
   4   C   :    0.000143904   -0.000034215    0.000251580
   5   C   :   -0.000042925   -0.000004275    0.000240265
   6   C   :   -0.000207312    0.000018762    0.000228805
   7   N   :   -0.000255025    0.000018507    0.000160826
   8   H   :    0.000187348   -0.000032054    0.000043340
   9   H   :    0.000121438   -0.000017127    0.000102626
  10   H   :   -0.000018361   -0.000002439    0.000148082
  11   H   :   -0.000145217    0.000013659    0.000074112
  12   C   :   -0.000011501    0.000002512   -0.000138653
  13   C   :    0.000164429    0.000132750   -0.000184178
  14   C   :    0.000128941    0.000104126   -0.000240215
  15   C   :   -0.000154271   -0.000111410   -0.000243865
  16   N   :   -0.000201387   -0.000135452   -0.000179837
  17   H   :    0.000151685    0.000118924   -0.000029219
  18   H   :    0.000105891    0.000075375   -0.000093158
  19   H   :   -0.000005656   -0.000003715   -0.000149083
  20   H   :   -0.000114539   -0.000080216   -0.000084932

Difference to translation invariance:
           :    0.0000000000    0.0000000000   -0.0000000000

Difference to rotation invariance:
           :   -0.0000000000   -0.0000000000   -0.0000000000

Norm of the Dispersion gradient    ...    0.0010413912
RMS gradient                       ...    0.0001344430
MAX gradient                       ...    0.0002550245

------------------
CARTESIAN GRADIENT
------------------

   1   C   :   -0.001158377   -0.001016141    0.003866638
   2   C   :    0.014889031   -0.001485135   -0.015633765
   3   C   :   -0.004804246   -0.001643076    0.000052672
   4   C   :    0.000356417   -0.000439542   -0.001655730
   5   C   :   -0.001208210    0.000397908   -0.003979887
   6   C   :   -0.004425967    0.000213246    0.019867147
   7   N   :   -0.005823673    0.001832170   -0.006588735
   8   H   :   -0.000249645    0.000915602    0.002557256
   9   H   :   -0.000184103    0.000338173   -0.000335493
  10   H   :    0.000096120    0.000035277   -0.000269138
  11   H   :    0.001684379   -0.000411382   -0.000417838
  12   C   :    0.011087646    0.008155967    0.016752224
  13   C   :   -0.005013872   -0.000856576   -0.000476247
  14   C   :   -0.000013280    0.000538899    0.001734664
  15   C   :   -0.002229621   -0.001929527   -0.020154605
  16   N   :   -0.004727400   -0.004555467    0.006104467
  17   H   :    0.000429758   -0.000874711   -0.002577706
  18   H   :   -0.000032846   -0.000392316    0.000330034
  19   H   :    0.000076950    0.000010299    0.000267941
  20   H   :    0.001250941    0.001166330    0.000556100

Difference to translation invariance:
           :   -0.0000000001   -0.0000000000    0.0000000000

Difference to rotation invariance:
           :   -0.0000201353   -0.0000960723    0.0000942399

Norm of the Cartesian gradient     ...    0.0452089330
RMS gradient                       ...    0.0058364482
MAX gradient                       ...    0.0201546047

-------
TIMINGS
-------

Total SCF gradient time     ....        5.371 sec

Densities                   ....       0.001 sec  (  0.0%)
One electron gradient       ....       0.061 sec  (  1.1%)
RI-J Coulomb gradient       ....       0.667 sec  ( 12.4%)
COSX gradient               ....       3.588 sec  ( 66.8%)
XC gradient                 ....       0.976 sec  ( 18.2%)

Maximum memory used throughout the entire SCFGRAD-calculation: 30.1 MB
------------------------------------------------------------------------------
                         ORCA GEOMETRY RELAXATION STEP
------------------------------------------------------------------------------

Reading the OPT-File                    .... done
Getting information on internals        .... done
Copying old internal coords+grads       .... done
Making the new internal coordinates     .... (2022 redundants) done
Validating the new internal coordinates .... (2022 redundants) done
Calculating the B-matrix                .... done
Calculating the G,G- and P matrices     .... done
Transforming gradient to internals      .... done
Projecting the internal gradient        .... done
Number of atoms                         ....  20
Number of internal coordinates          ....  97
Current Energy                          ....  -494.441840586 Eh
Current gradient norm                   ....     0.045208933 Eh/bohr
Maximum allowed component of the step   ....  0.300
Current trust radius                    ....  0.300
Evaluating the initial hessian          ....  (Almloef) done
Projecting the Hessian                  .... done
Forming the augmented Hessian           .... done
Diagonalizing the augmented Hessian     .... done
Last element of RFO vector              ....  0.993394262
Lowest eigenvalues of augmented Hessian:
 -0.002008469  0.014356476  0.022719905  0.022720927  0.026221579
Length of the computed step             ....  0.115514267
The final length of the internal step   ....  0.115514267
Converting the step to Cartesian space:
 Initial RMS(Int)=    0.0117286968
Transforming coordinates:
 Iter   0:  RMS(Cart)=    0.0297510332 RMS(Int)=    1.6859925071
done
Storing new coordinates                 .... done

                                .--------------------.
          ----------------------|Geometry convergence|-------------------------
          Item                value                   Tolerance       Converged
          ---------------------------------------------------------------------
          RMS gradient        0.0033006715            0.0001000000      NO
          MAX gradient        0.0145580511            0.0003000000      NO
          RMS step            0.0117286968            0.0020000000      NO
          MAX step            0.0465119273            0.0040000000      NO
          ........................................................
          Max(Bonds)      0.0118      Max(Angles)    0.59
          Max(Dihed)        2.66      Max(Improp)    0.00
          ---------------------------------------------------------------------

The optimization has not yet converged - more geometry cycles are needed


    ---------------------------------------------------------------------------
                         Redundant Internal Coordinates
                            (Angstroem and degrees)

        Definition                    Value    dE/dq     Step     New-Value
    ----------------------------------------------------------------------------
     1. B(C   2,C   1)                1.3977 -0.002965  0.0026    1.4003   
     2. B(C   3,C   2)                1.3888 -0.001133  0.0014    1.3902   
     3. B(C   4,C   3)                1.3909  0.000193  0.0002    1.3911   
     4. B(C   5,C   4)                1.3912 -0.004157  0.0035    1.3947   
     5. B(N   6,C   5)                1.3410  0.014558 -0.0118    1.3292   
     6. B(N   6,C   1)                1.3481  0.012343 -0.0103    1.3378   
     7. B(H   7,C   2)                1.0918 -0.001382  0.0020    1.0938   
     8. B(H   8,C   3)                1.0937 -0.000373  0.0006    1.0942   
     9. B(H   9,C   4)                1.0934 -0.000279  0.0004    1.0938   
    10. B(H  10,C   5)                1.0944 -0.001745  0.0026    1.0970   
    11. B(C  11,C   1)                1.4750 -0.006403  0.0074    1.4824   
    12. B(C  12,C  11)                1.3977 -0.002972  0.0026    1.4003   
    13. B(C  13,C  12)                1.3888 -0.001177  0.0014    1.3902   
    14. B(C  13,C   0)                1.3909  0.000207  0.0002    1.3910   
    15. B(C  14,C   0)                1.3912 -0.004151  0.0035    1.3947   
    16. B(N  15,C  14)                1.3410  0.014550 -0.0118    1.3292   
    17. B(N  15,C  11)                1.3481  0.012380 -0.0103    1.3378   
    18. B(H  16,C  12)                1.0918 -0.001392  0.0020    1.0938   
    19. B(H  17,C  13)                1.0937 -0.000381  0.0006    1.0942   
    20. B(H  18,C   0)                1.0934 -0.000270  0.0004    1.0938   
    21. B(H  19,C  14)                1.0944 -0.001761  0.0026    1.0970   
    22. A(C  14,C   0,H  18)          120.59 -0.000813    0.08    120.67   
    23. A(C  13,C   0,C  14)          118.23  0.001748   -0.18    118.05   
    24. A(C  13,C   0,H  18)          121.18 -0.000935    0.10    121.28   
    25. A(C   2,C   1,N   6)          121.37 -0.004720    0.59    121.96   
    26. A(N   6,C   1,C  11)          116.93  0.001085   -0.12    116.81   
    27. A(C   2,C   1,C  11)          121.70  0.003635   -0.47    121.23   
    28. A(C   1,C   2,C   3)          119.42  0.002614   -0.28    119.14   
    29. A(C   1,C   2,H   7)          121.28  0.000908   -0.22    121.06   
    30. A(C   3,C   2,H   7)          119.30 -0.003522    0.50    119.80   
    31. A(C   4,C   3,H   8)          120.78 -0.001561    0.15    120.93   
    32. A(C   2,C   3,C   4)          119.05  0.003458   -0.35    118.71   
    33. A(C   2,C   3,H   8)          120.17 -0.001897    0.20    120.37   
    34. A(C   5,C   4,H   9)          120.59 -0.000814    0.08    120.67   
    35. A(C   3,C   4,H   9)          121.18 -0.000945    0.10    121.28   
    36. A(C   3,C   4,C   5)          118.23  0.001759   -0.18    118.05   
    37. A(N   6,C   5,H  10)          116.08  0.002410   -0.31    115.77   
    38. A(C   4,C   5,H  10)          120.87  0.001850   -0.22    120.65   
    39. A(C   4,C   5,N   6)          123.05 -0.004260    0.53    123.58   
    40. A(C   1,N   6,C   5)          118.88  0.001149   -0.31    118.57   
    41. A(C  12,C  11,N  15)          121.37 -0.004742    0.59    121.96   
    42. A(C   1,C  11,N  15)          116.93  0.001104   -0.12    116.81   
    43. A(C   1,C  11,C  12)          121.70  0.003638   -0.47    121.23   
    44. A(C  13,C  12,H  16)          119.30 -0.003556    0.50    119.80   
    45. A(C  11,C  12,H  16)          121.28  0.000931   -0.22    121.06   
    46. A(C  11,C  12,C  13)          119.42  0.002625   -0.28    119.14   
    47. A(C  12,C  13,H  17)          120.17 -0.001904    0.20    120.37   
    48. A(C   0,C  13,H  17)          120.78 -0.001571    0.15    120.93   
[...]
     40       0.020743  -0.025582   0.005737   0.001933  -0.015846   0.015197
     41      -0.022414   0.028178  -0.010105   0.001885   0.016214  -0.016707
     42       0.005170  -0.006305   0.005064  -0.006698   0.007361  -0.006014
     43       0.003115  -0.003787   0.003034  -0.004024   0.004419  -0.003593
     44       0.002376  -0.002914   0.001406  -0.001586   0.001678  -0.001538
     45       0.000031   0.000028  -0.000335   0.000317  -0.000034  -0.000005
     46       0.000029   0.000039  -0.000220   0.000168  -0.000018   0.000014
     47       0.000141   0.000043  -0.000593   0.000346   0.000016   0.000113
     48       0.221563  -0.198914  -0.402420   0.350938   0.198304  -0.323438
     49       0.141303  -0.126570  -0.256400   0.223156   0.126348  -0.205548
     50       0.157259  -0.140483  -0.288515   0.250765   0.143513  -0.233129
     51      -0.388498   0.479256  -0.116941  -0.019134   0.271746  -0.264012
     52      -0.239366   0.295393  -0.072264  -0.011737   0.167539  -0.162744
     53       0.262246  -0.323973   0.082512   0.009190  -0.182508   0.178463
     54      -0.005444   0.007286  -0.012160   0.016978  -0.018820   0.014599
     55      -0.003345   0.004366  -0.007006   0.009981  -0.011139   0.008577
     56      -0.201904   0.269010  -0.386488   0.512267  -0.526563   0.400177
     57      -0.052119   0.063176  -0.044907   0.058080  -0.063088   0.052073
     58      -0.031337   0.037990  -0.026929   0.034864  -0.037899   0.031331
     59      -0.029856   0.036086  -0.024301   0.031084  -0.033655   0.028046


-----------
IR SPECTRUM
-----------

 Mode   freq       eps      Int      T**2         TX        TY        TZ
       cm**-1   L/(mol*cm) km/mol    a.u.
----------------------------------------------------------------------------
  6:     53.96   0.000010    0.05  0.000058  ( 0.007432  0.001543  0.000272)
  7:     92.20   0.000638    3.23  0.002160  ( 0.011637 -0.044466 -0.006874)
  8:    131.85   0.000387    1.95  0.000915  ( 0.029289  0.007492  0.001156)
  9:    249.56   0.000048    0.24  0.000059  ( 0.007470  0.001886  0.000281)
 10:    326.93   0.000001    0.00  0.000001  (-0.000763 -0.000200 -0.000011)
 11:    380.74   0.000292    1.47  0.000239  (-0.002918  0.009517  0.011830)
 12:    420.20   0.000909    4.59  0.000675  ( 0.005626 -0.025047 -0.004027)
 13:    421.50   0.000098    0.49  0.000072  (-0.008442  0.000988  0.000131)
 14:    500.60   0.000345    1.74  0.000215  ( 0.003404 -0.014033  0.002581)
 15:    573.78   0.000163    0.82  0.000089  ( 0.009120  0.002307  0.000354)
 16:    618.20   0.001026    5.18  0.000518  ( 0.001695 -0.009724  0.020504)
 17:    635.82   0.000973    4.92  0.000478  (-0.021155 -0.005427 -0.000877)
 18:    671.57   0.002351   11.88  0.001093  ( 0.001099  0.001090 -0.033020)
 19:    763.65   0.000991    5.01  0.000405  ( 0.019220  0.005914  0.000824)
 20:    768.34   0.011722   59.24  0.004761  (-0.017476  0.066735  0.001427)
 21:    783.76   0.005214   26.35  0.002076  (-0.011208  0.044098  0.002448)
 22:    792.32   0.000044    0.22  0.000017  (-0.004029 -0.000957 -0.000166)
 23:    851.80   0.000439    2.22  0.000161  (-0.012310 -0.002990 -0.000526)
 24:    915.05   0.000090    0.46  0.000031  ( 0.001281 -0.005364  0.000570)
 25:    920.60   0.000071    0.36  0.000024  (-0.004780 -0.001128 -0.000188)
 26:    989.40   0.000016    0.08  0.000005  (-0.000381  0.001645 -0.001440)
 27:    993.45   0.000035    0.17  0.000011  ( 0.003198  0.000785  0.000119)
 28:   1016.72   0.001040    5.26  0.000319  (-0.001597  0.007540 -0.016119)
 29:   1019.39   0.001360    6.87  0.000416  ( 0.019735  0.005137  0.000630)
 30:   1024.11   0.000170    0.86  0.000052  ( 0.006839  0.002242 -0.000202)
 31:   1024.41   0.000032    0.16  0.000010  ( 0.002859 -0.000425  0.001171)
 32:   1069.18   0.000805    4.07  0.000235  (-0.000315  0.003658 -0.014878)
 33:   1086.52   0.000893    4.51  0.000257  (-0.015505 -0.003962 -0.000673)
 34:   1105.35   0.000107    0.54  0.000030  ( 0.001012 -0.004631  0.002801)
 35:   1121.75   0.000932    4.71  0.000259  ( 0.015581  0.004027  0.000622)
 36:   1136.86   0.001214    6.14  0.000333  ( 0.000451  0.001286 -0.018206)
 37:   1164.09   0.000599    3.03  0.000160  (-0.000994  0.002012  0.012468)
 38:   1171.98   0.000629    3.18  0.000168  ( 0.012524  0.003220  0.000551)
 39:   1299.08   0.000025    0.13  0.000006  (-0.002376 -0.000604 -0.000086)
 40:   1334.24   0.000076    0.38  0.000018  (-0.000193  0.001345 -0.003989)
 41:   1348.57   0.000002    0.01  0.000000  ( 0.000587  0.000156  0.000029)
 42:   1366.81   0.000992    5.01  0.000226  (-0.000183 -0.001859  0.014932)
 43:   1379.35   0.000002    0.01  0.000000  ( 0.000570  0.000148 -0.000075)
 44:   1469.65   0.001581    7.99  0.000336  ( 0.017727  0.004559  0.000768)
 45:   1482.60   0.011559   58.41  0.002433  ( 0.003426 -0.005239 -0.048926)
 46:   1520.21   0.005375   27.16  0.001103  (-0.000875 -0.002079  0.033139)
 47:   1548.57   0.000683    3.45  0.000138  (-0.011359 -0.002903 -0.000520)
 48:   1655.26   0.009059   45.78  0.001708  (-0.040016 -0.010184 -0.001691)
 49:   1668.41   0.001253    6.33  0.000234  (-0.002455  0.012128 -0.009016)
 50:   1681.46   0.000034    0.17  0.000006  (-0.002210 -0.000567  0.001050)
 51:   1683.22   0.017110   86.46  0.003172  ( 0.001947  0.001233 -0.056274)
 52:   3169.65   0.005279   26.68  0.000520  (-0.003169  0.005532  0.021889)
 53:   3170.08   0.004752   24.02  0.000468  (-0.020832 -0.005586 -0.001627)
 54:   3200.55   0.000784    3.96  0.000076  (-0.001296  0.002759 -0.008196)
 55:   3201.79   0.001341    6.77  0.000131  (-0.011004 -0.003088  0.000141)
 56:   3216.68   0.002231   11.28  0.000216  (-0.001604  0.003547  0.014188)
 57:   3220.24   0.000887    4.48  0.000086  (-0.008947 -0.002311 -0.000718)
 58:   3224.74   0.002636   13.32  0.000255  (-0.000352 -0.001770  0.015868)
 59:   3226.17   0.000550    2.78  0.000053  ( 0.007039  0.001858  0.000395)

* The epsilon (eps) is given for a Dirac delta lineshape.
** The dipole moment derivative (T) already includes vibrational overlap.

The first frequency considered to be a vibration is 6
The total number of vibrations considered is 54


--------------------------
THERMOCHEMISTRY AT 298.15K
--------------------------

Temperature         ...   298.15 K
Pressure            ...     1.00 atm
Total Mass          ...   156.19 AMU
Quasi RRHO          ...     True
Cut-Off Frequency   ...     1.00 cm^-1

Throughout the following assumptions are being made:
  (1) The electronic state is orbitally nondegenerate
  (2) There are no thermally accessible electronically excited states
  (3) Hindered rotations indicated by low frequency modes are not
      treated as such but are treated as vibrations and this may
      cause some error
  (4) All equations used are the standard statistical mechanics
      equations for an ideal gas
  (5) All vibrations are strictly harmonic

freq.      53.96  E(vib)   ...       0.52 
freq.      92.20  E(vib)   ...       0.47 
freq.     131.85  E(vib)   ...       0.42 
freq.     249.56  E(vib)   ...       0.31 
freq.     326.93  E(vib)   ...       0.24 
freq.     380.74  E(vib)   ...       0.21 
freq.     420.20  E(vib)   ...       0.18 
freq.     421.50  E(vib)   ...       0.18 
freq.     500.60  E(vib)   ...       0.14 
freq.     573.78  E(vib)   ...       0.11 
freq.     618.20  E(vib)   ...       0.09 
freq.     635.82  E(vib)   ...       0.09 
freq.     671.57  E(vib)   ...       0.08 
freq.     763.65  E(vib)   ...       0.06 
freq.     768.34  E(vib)   ...       0.06 
freq.     783.76  E(vib)   ...       0.05 
freq.     792.32  E(vib)   ...       0.05 
freq.     851.80  E(vib)   ...       0.04 
freq.     915.05  E(vib)   ...       0.03 
freq.     920.60  E(vib)   ...       0.03 
freq.     989.40  E(vib)   ...       0.02 
freq.     993.45  E(vib)   ...       0.02 
freq.    1016.72  E(vib)   ...       0.02 
freq.    1019.39  E(vib)   ...       0.02 
freq.    1024.11  E(vib)   ...       0.02 
freq.    1024.41  E(vib)   ...       0.02 
freq.    1069.18  E(vib)   ...       0.02 
freq.    1086.52  E(vib)   ...       0.02 
freq.    1105.35  E(vib)   ...       0.02 
freq.    1121.75  E(vib)   ...       0.01 
freq.    1136.86  E(vib)   ...       0.01 
freq.    1164.09  E(vib)   ...       0.01 
freq.    1171.98  E(vib)   ...       0.01 
freq.    1299.08  E(vib)   ...       0.01 
freq.    1334.24  E(vib)   ...       0.01 
freq.    1348.57  E(vib)   ...       0.01 
freq.    1366.81  E(vib)   ...       0.01 
freq.    1379.35  E(vib)   ...       0.01 
freq.    1469.65  E(vib)   ...       0.00 
freq.    1482.60  E(vib)   ...       0.00 
freq.    1520.21  E(vib)   ...       0.00 
freq.    1548.57  E(vib)   ...       0.00 
freq.    1655.26  E(vib)   ...       0.00 
freq.    1668.41  E(vib)   ...       0.00 
freq.    1681.46  E(vib)   ...       0.00 
freq.    1683.22  E(vib)   ...       0.00 
freq.    3169.65  E(vib)   ...       0.00 
freq.    3170.08  E(vib)   ...       0.00 
freq.    3200.55  E(vib)   ...       0.00 
freq.    3201.79  E(vib)   ...       0.00 
freq.    3216.68  E(vib)   ...       0.00 
freq.    3220.24  E(vib)   ...       0.00 
freq.    3224.74  E(vib)   ...       0.00 
freq.    3226.17  E(vib)   ...       0.00 

------------
INNER ENERGY
------------

The inner energy is: U= E(el) + E(ZPE) + E(vib) + E(rot) + E(trans)
    E(el)   - is the total energy from the electronic structure calculation
              = E(kin-el) + E(nuc-el) + E(el-el) + E(nuc-nuc)
    E(ZPE)  - the the zero temperature vibrational energy from the frequency calculation
    E(vib)  - the the finite temperature correction to E(ZPE) due to population
              of excited vibrational states
    E(rot)  - is the rotational thermal energy
    E(trans)- is the translational thermal energy

Summary of contributions to the inner energy U:
Electronic energy                ...   -494.44334400 Eh
Zero point energy                ...      0.15915954 Eh      99.87 kcal/mol
Thermal vibrational correction   ...      0.00580542 Eh       3.64 kcal/mol
Thermal rotational correction    ...      0.00141627 Eh       0.89 kcal/mol
Thermal translational correction ...      0.00141627 Eh       0.89 kcal/mol
-----------------------------------------------------------------------
Total thermal energy                   -494.27554650 Eh


Summary of corrections to the electronic energy:
(perhaps to be used in another calculation)
Total thermal correction                  0.00863797 Eh       5.42 kcal/mol
Non-thermal (ZPE) correction              0.15915954 Eh      99.87 kcal/mol
-----------------------------------------------------------------------
Total correction                          0.16779750 Eh     105.29 kcal/mol


--------
ENTHALPY
--------

The enthalpy is H = U + kB*T
                kB is Boltzmann's constant
Total thermal energy              ...   -494.27554650 Eh 
Thermal Enthalpy correction       ...      0.00094421 Eh       0.59 kcal/mol
-----------------------------------------------------------------------
Total Enthalpy                    ...   -494.27460229 Eh


Note: Only C1 symmetry has been detected, increase convergence thresholds 
      if your molecule has a higher symmetry. Symmetry factor of 1.0 is   
      used for the rotational entropy correction. 
 

Note: Rotational entropy computed according to Herzberg 
Infrared and Raman Spectra, Chapter V,1, Van Nostrand Reinhold, 1945 
Point Group:  C1, Symmetry Number:   1  
Rotational constants in cm-1:     0.098656     0.019232     0.016535 

Vibrational entropy computed according to the QRRHO of S. Grimme
Chem.Eur.J. 2012 18 9955 using a reference frequency of 100.0 cm-1


-------
ENTROPY
-------

The entropy contributions are T*S = T*(S(el)+S(vib)+S(rot)+S(trans))
     S(el)   - electronic entropy
     S(vib)  - vibrational entropy
     S(rot)  - rotational entropy
     S(trans)- translational entropy
The entropies will be listed as multiplied by the temperature to get
units of energy

Electronic entropy                ...      0.00000000 Eh      0.00 kcal/mol
Vibrational entropy               ...      0.00960945 Eh      6.03 kcal/mol
Rotational entropy                ...      0.01440618 Eh      9.04 kcal/mol
Translational entropy             ...      0.01950274 Eh     12.24 kcal/mol
-----------------------------------------------------------------------
Final entropy term                ...      0.04351838 Eh     27.31 kcal/mol

In case the symmetry of your molecule has not been determined correctly
or in case you have a reason to use a different symmetry number we print 
out the resulting rotational entropy values for sn=1,12:

 non-linear molecules -----------------------------------
|  sn= 1 | S(rot)=       0.01440618 Eh      9.04 kcal/mol|
|  sn= 2 | S(rot)=       0.01375173 Eh      8.63 kcal/mol|
|  sn= 3 | S(rot)=       0.01336890 Eh      8.39 kcal/mol|
|  sn= 4 | S(rot)=       0.01309727 Eh      8.22 kcal/mol|
|  sn= 5 | S(rot)=       0.01288658 Eh      8.09 kcal/mol|
|  sn= 6 | S(rot)=       0.01271444 Eh      7.98 kcal/mol|
|  sn= 7 | S(rot)=       0.01256889 Eh      7.89 kcal/mol|
|  sn= 8 | S(rot)=       0.01244281 Eh      7.81 kcal/mol|
|  sn= 9 | S(rot)=       0.01233161 Eh      7.74 kcal/mol|
|  sn=10 | S(rot)=       0.01223213 Eh      7.68 kcal/mol|
|  sn=11 | S(rot)=       0.01214214 Eh      7.62 kcal/mol|
|  sn=12 | S(rot)=       0.01205998 Eh      7.57 kcal/mol|
 linear molecules ---------------------------------------
|  Dinfh | S(rot)=       0.00919910 Eh      5.77 kcal/mol|
|  Cinfv | S(rot)=       0.00985356 Eh      6.18 kcal/mol|
 --------------------------------------------------------


-------------------
GIBBS FREE ENERGY
-------------------

The Gibbs free energy is G = H - T*S

Total enthalpy                    ...   -494.27460229 Eh 
Total entropy correction          ...     -0.04351838 Eh    -27.31 kcal/mol
-----------------------------------------------------------------------
Final Gibbs free energy         ...   -494.31812067 Eh

For completeness - the Gibbs free energy minus the electronic energy
G-E(el)                           ...      0.12522333 Eh     78.58 kcal/mol


Maximum memory used throughout the entire PROP-calculation: 66.1 MB

--------------------------------
SUGGESTED CITATIONS FOR THIS RUN
--------------------------------

Below you find a list of papers that are relevant to this ORCA run
We neither can nor want to force you to cite these papers, but we appreciate if you do
You receive ORCA, which is the product of decades of hard work by many enthusiastic individuals, for free
The only thing we kindly ask in return is that you cite our papers,
We deeply appreciate it, if you show your appreciation for ORCA by not just citing the generic ORCA reference.

Please note that relegating all ORCA citations to the supporting information does *not* help us.
SI sections are not indexed - citations you put there will not count into any citation statistics
But we need these citations in order to attract the funding resources that allow us to do what we are doing

Therefore, if you are a happy ORCA user, please consider citing a few of the papers listed below in the main body of your paper

In addition to the list printed below, the program has created the file cs_rporg_w01_ox_opt_01.bibtex that contains the list in bibtex format
You can import this file easily into all common literature databanks and citation aid programs


List of essential papers. We consider these as the minimum necessary citations

  1. Neese,F.
     Software update: the ORCA program system, version 5.0
     WIRES Comput. Molec. Sci., 2022 12(1)e1606
     doi.org/10.1002/wcms.1606

List of papers to cite with high priority. The work reported in these papers was absolutely
necessary for this run to complete.
Our perspective: the developers of density functionals and basis sets usually get cited in chemistry papers
Good! But without the algorithms to do something with them, the functionals or basis sets would not do anything.
Hence, in our opinion, the algorithm design and method developments papers are equally worthy of getting cited

  1. Neese,F.
     An improvement of the resolution of the identity approximation for the formation of the Coulomb matrix
     J. Comp. Chem., 2003 24(14)1740-1747
     doi.org/10.1002/jcc.10318
  2. Neese,F.; Wennmohs,F.; Hansen,A.; Becker,U.
     Efficient, approximate and parallel Hartree-Fock and hybrid DFT calculations. A 'chain-of-spheres' algorithm for the Hartree-Fock exchange
     Chem. Phys., 2009 356(1-3)98-109
     doi.org/10.1016/j.chemphys.2008.10.036
  3. Bykov,D.; Petrenko,T.; Izsak,R.; Kossmann,S.; Becker,U.; Valeev,E.; Neese,F.
     Efficient implementation of the analytic second derivatives of Hartree-Fock and hybrid DFT energies: a detailed analysis of different approximations
     Molec. Phys., 2015 113 1961-1977
     doi.org/10.1080/00268976.2015.1025114
  4. Helmich-Paris,B.; de Souza,B.; Neese,F.; Izsák,R.
     An improved chain of spheres for exchange algorithm
     J. Chem. Phys., 2021 155 104109
     doi.org/doi: 10.1063/5.0058766.
  5. Neese,F.
     The SHARK Integral Generation and Digestion System
     J. Comp. Chem., 2022  1-16
     doi.org/10.1002/jcc.26942
  6. Grimme,S.; Antony,J.; Ehrlich,S.; Krieg,H.
     A consistent and accurate ab initio parametrization of density functional dispersion correction (DFT-D) for the 94 elements H-Pu
     J. Chem. Phys., 2010 132 154104-XXXX
     doi.org/10.1063/1.3382344
  7. Grimme,S.; Ehrlich,S.; Goerigk,L.
     Effect of the damping function in dispersion corrected density functional theory
     J. Comput. Chem., 2011 32(7)1456-1465
     doi.org/10.1002/jcc.21759

List of suggested additional citations. These are papers that are important in the 'surrounding' of 
of this run, or papers that preceded the highly important papers. If you like your results we are grateful for a citation.

  1. Izsak,R.; Neese,F.
     An overlap fitted chain of spheres exchange method
     J. Chem. Phys., 2011 135 144105
     doi.org/10.1063/1.3646921
  2. Izsak,R.; Hansen,A.; Neese,F.
     The resolution of identity and chain of spheres approximations for the LPNO-CCSD singles Fock term
     Molec. Phys., 2012 110 2413-2417
     doi.org/10.1080/00268976.2012.687466
  3. Neese,F.
     The ORCA program system
     WIRES Comput. Molec. Sci., 2012 2(1)73-78
     doi.org/10.1002/wcms.81
  4. Izsak,R.; Neese,F.; Klopper,W.
     Robust fitting techniques in the chain of spheres approximation to the Fock exchange: The role of the complementary space
     J. Chem. Phys., 2013 139 
     doi.org/10.1063/1.4819264
  5. Neese,F.
     Software update: the ORCA program system, version 4.0
     WIRES Comput. Molec. Sci., 2018 8(1)1-6
     doi.org/10.1002/wcms.1327
  6. Neese,F.; Wennmohs,F.; Becker,U.; Riplinger,C.
     The ORCA quantum chemistry program package
     J. Chem. Phys., 2020 152 Art. No. L224108
     doi.org/10.1063/5.0004608

List of optional additional citations

  1. Neese,F.
     Approximate second-order SCF convergence for spin unrestricted wavefunctions
     Chem. Phys. Lett., 2000 325(1-3)93-98
     doi.org/10.1016/s0009-2614(00)00662-x

Timings for individual modules:

Sum of individual times          ...      748.375 sec (=  12.473 min)
Startup calculation              ...       34.141 sec (=   0.569 min)   4.6 %
SCF iterations                   ...      343.748 sec (=   5.729 min)  45.9 %
Property integrals               ...       48.470 sec (=   0.808 min)   6.5 %
SCF Response                     ...      217.033 sec (=   3.617 min)  29.0 %
Property calculations            ...       65.813 sec (=   1.097 min)   8.8 %
SCF Gradient evaluation          ...       38.531 sec (=   0.642 min)   5.1 %
Geometry relaxation              ...        0.640 sec (=   0.011 min)   0.1 %
                             ****ORCA TERMINATED NORMALLY****
TOTAL RUN TIME: 0 days 0 hours 12 minutes 57 seconds 514 msec
