
                                 *****************
                                 * O   R   C   A *
                                 *****************

                                            #,                                       
                                            ###                                      
                                            ####                                     
                                            #####                                    
                                            ######                                   
                                           ########,                                 
                                     ,,################,,,,,                         
                               ,,#################################,,                 
                          ,,##########################################,,             
                       ,#########################################, ''#####,          
                    ,#############################################,,   '####,        
                  ,##################################################,,,,####,       
                ,###########''''           ''''###############################       
              ,#####''   ,,,,##########,,,,          '''####'''          '####       
            ,##' ,,,,###########################,,,                        '##       
           ' ,,###''''                  '''############,,,                           
         ,,##''                                '''############,,,,        ,,,,,,###''
      ,#''                                            '''#######################'''  
     '                                                          ''''####''''         
             ,#######,   #######,   ,#######,      ##                                
            ,#'     '#,  ##    ##  ,#'     '#,    #''#        ,####,   ,####,        
            ##       ##  ##   ,#'  ##            #'  '#       #'       #'  '#        
            ##       ##  #######   ##           ,######,      #####,   #    #        
            '#,     ,#'  ##    ##  '#,     ,#' ,#      #,     #,   #   #,  ,#        
             '#######'   ##     ##  '#######'  #'      '#     '####' # '####'        



                #########################################################
                #                        -***-                          #
                #          Department of theory and spectroscopy        #
                #                                                       #
                #                      Frank Neese                      #
                #                                                       #
                #     Directorship, Architecture, Infrastructure        #
                #                    SHARK, DRIVERS                     #
                #        Core code/Algorithms in most modules           #
                #                                                       #
                #        Max Planck Institute fuer Kohlenforschung      #
                #                Kaiser Wilhelm Platz 1                 #
                #                 D-45470 Muelheim/Ruhr                 #
                #                      Germany                          #
                #                                                       #
                #                  All rights reserved                  #
                #                        -***-                          #
                #########################################################


                         Program Version 6.0.0  -   RELEASE  -


 With contributions from (in alphabetic order):
   Daniel Aravena         : Magnetic Suceptibility
   Michael Atanasov       : Ab Initio Ligand Field Theory (pilot matlab implementation)
   Alexander A. Auer      : GIAO ZORA, VPT2 properties, NMR spectrum
   Ute Becker             : All parallelization in ORCA, NUMFREQ, NUMCALC
   Giovanni Bistoni       : ED, misc. LED, open-shell LED, HFLD
   Martin Brehm           : Molecular dynamics
   Dmytro Bykov           : pre 5.0 version of the SCF Hessian
   Marcos Casanova-Páez   : Triplet and SCS-CIS(D). UHF-(DLPNO)-IP/EA/STEOM-CCSD. UHF-CVS-IP/STEOM-CCSD
   Vijay G. Chilkuri      : MRCI spin determinant printing, contributions to CSF-ICE
   Pauline Colinet        : FMM embedding
   Dipayan Datta          : RHF DLPNO-CCSD density
   Achintya Kumar Dutta   : EOM-CC, STEOM-CC
   Nicolas Foglia         : Exact transition moments, OPA infrastructure, MCD improvements
   Dmitry Ganyushin       : Spin-Orbit,Spin-Spin,Magnetic field MRCI
   Miquel Garcia          : C-PCM and meta-GGA Hessian, CCSD/C-PCM, Gaussian charge scheme
   Tiago L. C. Gouveia    : GS-ROHF, GS-ROCIS
   Yang Guo               : DLPNO-NEVPT2, F12-NEVPT2, CIM, IAO-localization
   Andreas Hansen         : Spin unrestricted coupled pair/coupled cluster methods
   Ingolf Harden          : AUTO-CI MPn and infrastructure 
   Benjamin Helmich-Paris : MC-RPA, TRAH-(SCF,CASSCF), AVAS, COSX integrals, SCF dyn. polar.
   Lee Huntington         : MR-EOM, pCC
   Robert Izsak           : Overlap fitted RIJCOSX, COSX-SCS-MP3, EOM
   Riya Kayal             : Wick's Theorem for AUTO-CI, AUTO-CI UHF-CCSDT
   Emily Kempfer          : AUTO-CI, RHF CISDT and CCSDT
   Christian Kollmar      : KDIIS, OOCD, Brueckner-CCSD(T), CCSD density, CASPT2, CASPT2-K, improved NEVPT2
   Axel Koslowski         : Symmetry handling
   Simone Kossmann        : Meta GGA functionals, TD-DFT gradient, OOMP2, (MP2 Hessian; deprecated post 5.0)
   Lucas Lang             : DCDCAS
   Marvin Lechner         : AUTO-CI (C++ implementation), FIC-MRCC
   Spencer Leger          : CASSCF response
   Dagmar Lenk            : GEPOL surface, SMD, ORCA-2-JSON
   Dimitrios Liakos       : Extrapolation schemes; Compound Job, initial MDCI parallelization
   Dimitrios Manganas     : Further ROCIS development; embedding schemes. LFT, Crystal Embedding
   Dimitrios Pantazis     : SARC Basis sets
   Anastasios Papadopoulos: AUTO-CI, single reference methods and gradients
   Taras Petrenko         : pre 6.0 DFT Hessian and TD-DFT gradient, (ASA, deprecated), ECA, 1-Electron XAS/XES, NRVS
   Peter Pinski           : DLPNO-MP2, DLPNO-MP2 Gradient
   Christoph Reimann      : Effective Core Potentials
   Marius Retegan         : Local ZFS, SOC
   Christoph Riplinger    : Optimizer, TS searches, QM/MM, DLPNO-CCSD(T), (RO)-DLPNO pert. Triples
   Michael Roemelt        : Original ROCIS implementation
   Masaaki Saitow         : Open-shell DLPNO-CCSD energy and density
   Barbara Sandhoefer     : DKH picture change effects
   Kantharuban Sivalingam : CASSCF convergence/infrastructure, NEVPT2 and variants, FIC-MRCI
   Bernardo de Souza      : ESD, SOC TD-DFT
   Georgi Stoychev        : AutoAux, RI-MP2 NMR, DLPNO-MP2 response, X2C
   Van Anh Tran           : RI-MP2 g-tensors
   Willem Van den Heuvel  : Paramagnetic NMR
   Zikuan Wang            : NOTCH, Electric field optimization 
   Frank Wennmohs         : Technical directorship and infrastructure
   Hang Xu                : AUTO-CI-Response properties 


 We gratefully acknowledge several colleagues who have allowed us to
 interface, adapt or use parts of their codes:
   Stefan Grimme, W. Hujo, H. Kruse, P. Pracht,  : VdW corrections, initial TS optimization,
                  C. Bannwarth, S. Ehlert,         DFT functionals, gCP, sTDA/sTD-DF
                  L. Wittmann, M. Mueller
   Ed Valeev, F. Pavosevic, A. Kumar             : LibInt (2-el integral package), F12 methods
   Garnet Chan, S. Sharma, J. Yang, R. Olivares  : DMRG
   Ulf Ekstrom                                   : XCFun DFT Library
   Mihaly Kallay                                 : mrcc  (arbitrary order and MRCC methods)
   Frank Weinhold                                : gennbo (NPA and NBO analysis)
   Simon Mueller                                 : openCOSMO-RS
   Christopher J. Cramer and Donald G. Truhlar   : smd solvation model
   Lars Goerigk                                  : TD-DFT with DH, B97 family of functionals
   V. Asgeirsson, H. Jonsson                     : NEB implementation
   FAccTs GmbH                                   : IRC, NEB, NEB-TS, DLPNO-Multilevel, CI-OPT
                                                   MM, QMMM, 2- and 3-layer-ONIOM, Crystal-QMMM,
                                                   LR-CPCM, SF, NACMEs, symmetry and pop. for TD-DFT,
                                                   nearIR, NL-DFT gradient (VV10), updates on ESD,
                                                   ML-optimized integration grids, MBIS, APM,
                                                   GOAT, DOCKER, SOLVATOR, interface openCOSMO-RS
   S Lehtola, MJT Oliveira, MAL Marques          : LibXC Library
   Liviu Ungur et al                             : ANISO software


 Your calculation uses the libint2 library for the computation of 2-el integrals
 For citations please refer to: http://libint.valeyev.net

 Your ORCA version has been built with support for libXC version: 6.2.2
 For citations please refer to: https://libxc.gitlab.io

 This ORCA versions uses:
   CBLAS   interface :  Fast vector & matrix operations
   LAPACKE interface :  Fast linear algebra routines
   SCALAPACK package :  Parallel linear algebra routines
   Shared memory     :  Shared parallel matrices
   BLAS/LAPACK       :  OpenBLAS 0.3.27  USE64BITINT DYNAMIC_ARCH NO_AFFINITY Sandybridge SINGLE_THREADED
        Core in use  :  Sandybridge
   Copyright (c) 2011-2014, The OpenBLAS Project


NOTE: MaxCore=3000 MB was set to SCF,MP2,MDCI,CIPSI,MRCI and CIS
      => If you want to overwrite this, your respective input block should be placed after the MaxCore statement
Your calculation utilizes the atom-pairwise dispersion correction
with the Becke-Johnson damping scheme (D3BJ)


Warning: RI is on but no J-basis has been assigned. Assigning Def2/J (nothing to worry about!)
================================================================================

----- Orbital basis set information -----
Your calculation utilizes the basis: def2-SV(P)
   F. Weigend and R. Ahlrichs, Phys. Chem. Chem. Phys. 7, 3297 (2005).

----- AuxJ basis set information -----
Your calculation utilizes the auxiliary basis: def2/J
   F. Weigend, Phys. Chem. Chem. Phys. 8, 1057 (2006).

================================================================================
                                        WARNINGS
                       Please study these warnings very carefully!
================================================================================

WARNING: Old DensityContainer found on disk!
         Will remove this file - 
         If you want to keep old densities, please start your calculation with a different basename. 


WARNING: your system is open-shell and RHF/RKS was chosen
  ===> : WILL SWITCH to UHF/UKS


WARNING: Geometry Optimization
  ===> : Switching off AutoStart
         For restart on a previous wavefunction, please use MOREAD

================================================================================
                                       INPUT FILE
================================================================================
NAME = cs_rporg_072_ox_opt_01.inp
|  1> !PBE0 def2-SV(p) Opt Freq d3 TightSCF SlowConv RIJCOSX defgrid2
|  2>  
|  3> %pal
|  4> nprocs 8
|  5> end
|  6>  
|  7> %scf
|  8> MaxIter 1500
|  9> end
| 10>  
| 11> %maxcore 3000
| 12>  
| 13> * xyz 1 2
| 14> 6        0.344812600     -1.208415600     -0.131816400
| 15> 7        1.105470000      0.000014400     -0.033919600
| 16> 1        2.131129800      0.000038600     -0.060807800
| 17> 6        0.350975200      1.208584800      0.102643000
| 18> 6       -1.123761800      0.772835400     -0.161957600
| 19> 6       -1.113438000     -0.772958200      0.212247800
| 20> 1       -1.323175400     -0.952929200      1.362613200
| 21> 1       -1.921184000     -1.394748800     -0.382697400
| 22> 1       -1.898024400      1.394138800      0.476374200
| 23> 1       -1.395750400      0.952829600     -1.299148600
| 24> 1        0.781098600      2.016466200     -0.592317400
| 25> 1        0.554418800      1.611454400      1.169594800
| 26> 1        0.490416800     -1.608933000     -1.209185200
| 27> 1        0.811605400     -2.017793600      0.537173600
| 28> *
| 29> 
| 30>                          ****END OF INPUT****
================================================================================

                       *****************************
                       * Geometry Optimization Run *
                       *****************************

Geometry optimization settings:
Update method            Update   .... BFGS
Choice of coordinates    CoordSys .... (2022) Redundant Internals
Initial Hessian          InHess   .... Almloef's Model
Max. no of cycles        MaxIter  .... 50

Convergence Tolerances:
Energy Change            TolE     ....  5.0000e-06 Eh
Max. Gradient            TolMAXG  ....  3.0000e-04 Eh/bohr
RMS Gradient             TolRMSG  ....  1.0000e-04 Eh/bohr
Max. Displacement        TolMAXD  ....  4.0000e-03 bohr
RMS Displacement         TolRMSD  ....  2.0000e-03 bohr
Strict Convergence                .... False

------------------------------------------------------------------------------
                        ORCA OPTIMIZATION COORDINATE SETUP
------------------------------------------------------------------------------

The optimization will be done in redundant internal coordinates (2022)
Making redundant internal coordinates   ...  (2022 redundants) done
Evaluating the initial hessian          ...  (Almloef) done
Evaluating the coordinates              ...  done
Calculating the B-matrix                .... done
Calculating the G-matrix                .... done
Diagonalizing the G-matrix              .... done
The first mode is                       ....   33
The number of degrees of freedom        ....   36

    -----------------------------------------------------------------
                    Redundant Internal Coordinates


    -----------------------------------------------------------------
         Definition                    Initial Value    Approx d2E/dq
    -----------------------------------------------------------------
      1. B(N   1,C   0)                  1.4313         0.480904   
      2. B(H   2,N   1)                  1.0260         0.407989   
      3. B(C   3,N   1)                  1.4313         0.480862   
      4. B(C   4,C   3)                  1.5604         0.334142   
      5. B(C   5,C   4)                  1.5905         0.299152   
      6. B(C   5,C   0)                  1.5603         0.334237   
      7. B(H   6,C   5)                  1.1831         0.255795   
      8. B(H   7,C   5)                  1.1803         0.258466   
      9. B(H   8,C   4)                  1.1802         0.258494   
     10. B(H   9,C   4)                  1.1830         0.255851   
     11. B(H  10,C   3)                  1.1492         0.289722   
     12. B(H  11,C   3)                  1.1585         0.280005   
     13. B(H  12,C   0)                  1.1586         0.279890   
     14. B(H  13,C   0)                  1.1491         0.289774   
     15. A(C   5,C   0,H  12)          114.7707         0.305745   
     16. A(C   5,C   0,H  13)          116.6051         0.307455   
     17. A(N   1,C   0,H  12)          106.7794         0.322412   
     18. A(N   1,C   0,C   5)          104.2401         0.369935   
     19. A(H  12,C   0,H  13)          104.2893         0.270501   
     20. A(N   1,C   0,H  13)          109.8143         0.324253   
     21. A(C   0,N   1,C   3)          116.0597         0.391532   
     22. A(H   2,N   1,C   3)          121.9681         0.340227   
     23. A(C   0,N   1,H   2)          121.9722         0.340232   
     24. A(H  10,C   3,H  11)          104.2857         0.270510   
     25. A(C   4,C   3,H  11)          114.7884         0.305752   
     26. A(N   1,C   3,H  11)          106.7949         0.322429   
     27. A(C   4,C   3,H  10)          116.5843         0.307432   
     28. A(N   1,C   3,H  10)          109.7922         0.324239   
     29. A(N   1,C   3,C   4)          104.2546         0.369912   
     30. A(C   3,C   4,H   9)          109.7433         0.301371   
     31. A(C   5,C   4,H   8)          112.8699         0.296602   
     32. A(C   3,C   4,H   8)          112.4140         0.301865   
     33. A(C   3,C   4,C   5)          103.0254         0.343392   
     34. A(H   8,C   4,H   9)          106.7965         0.262310   
     35. A(C   5,C   4,H   9)          112.0567         0.296120   
     36. A(C   0,C   5,C   4)          103.0283         0.343409   
     37. A(H   6,C   5,H   7)          106.7781         0.262297   
     38. A(C   4,C   5,H   7)          112.8910         0.296597   
     39. A(C   0,C   5,H   7)          112.4225         0.301874   
     40. A(C   4,C   5,H   6)          112.0530         0.296110   
     41. A(C   0,C   5,H   6)          109.7333         0.301374   
     42. D(H   2,N   1,C   0,H  12)    -68.1063         0.019783   
     43. D(C   3,N   1,C   0,H  12)    111.8462         0.019783   
     44. D(C   3,N   1,C   0,C   5)    -10.0252         0.019783   
     45. D(H   2,N   1,C   0,H  13)     44.3921         0.019783   
     46. D(H   2,N   1,C   0,C   5)    170.0223         0.019783   
     47. D(H  11,C   3,N   1,C   0)    112.0602         0.019780   
     48. D(C   4,C   3,N   1,C   0)     -9.8466         0.019780   
     49. D(H  10,C   3,N   1,H   2)     44.5044         0.019780   
     50. D(H  10,C   3,N   1,C   0)   -135.4481         0.019780   
     51. D(C   4,C   3,N   1,H   2)    170.1059         0.019780   
     52. D(H   8,C   4,C   3,N   1)    146.6037         0.009070   
     53. D(C   5,C   4,C   3,H  10)    145.9912         0.009070   
     54. D(C   5,C   4,C   3,N   1)     24.8062         0.009070   
     55. D(H   8,C   4,C   3,H  10)    -92.2114         0.009070   
     56. D(C   5,C   4,C   3,H  11)    -91.6625         0.009070   
     57. D(H   8,C   4,C   3,H  11)     30.1350         0.009070   
     58. D(H   6,C   5,C   4,H   9)   -154.6115         0.007463   
     59. D(H   6,C   5,C   4,C   3)     87.4943         0.007463   
     60. D(C   0,C   5,C   4,H   9)     87.5062         0.007463   
     61. D(C   0,C   5,C   4,H   8)   -151.8768         0.007463   
     62. D(C   0,C   5,C   4,C   3)    -30.3880         0.007463   
     63. D(H   6,C   5,C   0,H  13)     26.6198         0.009074   
     64. D(H   6,C   5,C   0,H  12)    148.9736         0.009074   
     65. D(H   6,C   5,C   0,N   1)    -94.5950         0.009074   
     66. D(C   4,C   5,C   0,H  13)    146.1201         0.009074   
     67. D(H   6,C   5,C   4,H   8)    -33.9946         0.007463   
     68. D(C   4,C   5,C   0,H  12)    -91.5261         0.009074   
     69. D(C   4,C   5,C   0,N   1)     24.9053         0.009074   
    -----------------------------------------------------------------

Number of atoms                         .... 14
Number of degrees of freedom            .... 69


         *************************************************************
         *                GEOMETRY OPTIMIZATION CYCLE   1            *
         *************************************************************
---------------------------------
CARTESIAN COORDINATES (ANGSTROEM)
---------------------------------
  C      0.344813   -1.208416   -0.131816
  N      1.105470    0.000014   -0.033920
  H      2.131130    0.000039   -0.060808
  C      0.350975    1.208585    0.102643
  C     -1.123762    0.772835   -0.161958
  C     -1.113438   -0.772958    0.212248
  H     -1.323175   -0.952929    1.362613
  H     -1.921184   -1.394749   -0.382697
  H     -1.898024    1.394139    0.476374
  H     -1.395750    0.952830   -1.299149
  H      0.781099    2.016466   -0.592317
  H      0.554419    1.611454    1.169595
  H      0.490417   -1.608933   -1.209185
  H      0.811605   -2.017794    0.537174

----------------------------
CARTESIAN COORDINATES (A.U.)
----------------------------
  NO LB      ZA    FRAG     MASS         X           Y           Z
   0 C     6.0000    0    12.011    0.651601   -2.283575   -0.249097
   1 N     7.0000    0    14.007    2.089036    0.000027   -0.064099
   2 H     1.0000    0     1.008    4.027252    0.000073   -0.114910
   3 C     6.0000    0    12.011    0.663247    2.283894    0.193967
   4 C     6.0000    0    12.011   -2.123602    1.460447   -0.306056
   5 C     6.0000    0    12.011   -2.104093   -1.460679    0.401090
   6 H     1.0000    0     1.008   -2.500439   -1.800775    2.574966
   7 H     1.0000    0     1.008   -3.630512   -2.635693   -0.723193
   8 H     1.0000    0     1.008   -3.586746    2.634541    0.900217
   9 H     1.0000    0     1.008   -2.637586    1.800587   -2.455035
  10 H     1.0000    0     1.008    1.476062    3.810569   -1.119318
  11 H     1.0000    0     1.008    1.047700    3.045207    2.210214
  12 H     1.0000    0     1.008    0.926753   -3.040443   -2.285029
  13 H     1.0000    0     1.008    1.533712   -3.813077    1.015111

--------------------------------
INTERNAL COORDINATES (ANGSTROEM)
--------------------------------
 C      0   0   0     0.000000000000     0.00000000     0.00000000
 N      1   0   0     1.431253481577     0.00000000     0.00000000
 H      2   1   0     1.026012183759   121.97216898     0.00000000
 C      2   1   3     1.431277107587   116.05968553   179.95247743
 C      4   2   1     1.560365417551   104.25463510   350.15337068
 C      1   2   3     1.560287836694   104.24007432   170.02231223
 H      6   1   2     1.183097583176   109.73332966   265.40498492
 H      6   1   2     1.180269859722   112.42252144   146.73450199
 H      5   4   2     1.180240643048   112.41401265   146.60366648
 H      5   4   2     1.183038072525   109.74327296   265.29839919
 H      4   2   1     1.149194697717   109.79217009   224.55187960
 H      4   2   1     1.158481487340   106.79490711   112.06022720
 H      1   2   3     1.158593242676   106.77939309   291.89371633
 H      1   2   3     1.149145719705   109.81431636    44.39214551

---------------------------
INTERNAL COORDINATES (A.U.)
---------------------------
 C      0   0   0     0.000000000000     0.00000000     0.00000000
 N      1   0   0     2.704677108401     0.00000000     0.00000000
 H      2   1   0     1.938882037370   121.97216898     0.00000000
 C      2   1   3     2.704721755090   116.05968553   179.95247743
 C      4   2   1     2.948663308013   104.25463510   350.15337068
 C      1   2   3     2.948516701441   104.24007432   170.02231223
 H      6   1   2     2.235730421907   109.73332966   265.40498492
 H      6   1   2     2.230386798996   112.42252144   146.73450199
 H      5   4   2     2.230331587483   112.41401265   146.60366648
 H      5   4   2     2.235617963075   109.74327296   265.29839919
 H      4   2   1     2.171663253240   109.79217009   224.55187960
 H      4   2   1     2.189212742289   106.79490711   112.06022720
 H      1   2   3     2.189423929269   106.77939309   291.89371633
 H      1   2   3     2.171570698210   109.81431636    44.39214551

---------------------
BASIS SET INFORMATION
---------------------
There are 3 groups of distinct atoms

 Group   1 Type C   : 7s4p1d contracted to 3s2p1d pattern {511/31/1}
 Group   2 Type N   : 7s4p1d contracted to 3s2p1d pattern {511/31/1}
 Group   3 Type H   : 4s contracted to 2s pattern {31}

Atom   0C    basis set group =>   1
Atom   1N    basis set group =>   2
Atom   2H    basis set group =>   3
Atom   3C    basis set group =>   1
Atom   4C    basis set group =>   1
Atom   5C    basis set group =>   1
Atom   6H    basis set group =>   3
Atom   7H    basis set group =>   3
Atom   8H    basis set group =>   3
Atom   9H    basis set group =>   3
Atom  10H    basis set group =>   3
Atom  11H    basis set group =>   3
Atom  12H    basis set group =>   3
Atom  13H    basis set group =>   3
---------------------------------
AUXILIARY/J BASIS SET INFORMATION
---------------------------------
There are 3 groups of distinct atoms

 Group   1 Type C   : 12s5p4d2f1g contracted to 6s4p3d1f1g pattern {711111/2111/211/2/1}
 Group   2 Type N   : 12s5p4d2f1g contracted to 6s4p3d1f1g pattern {711111/2111/211/2/1}
 Group   3 Type H   : 5s2p1d contracted to 3s1p1d pattern {311/2/1}

Atom   0C    basis set group =>   1
Atom   1N    basis set group =>   2
Atom   2H    basis set group =>   3
Atom   3C    basis set group =>   1
Atom   4C    basis set group =>   1
Atom   5C    basis set group =>   1
Atom   6H    basis set group =>   3
Atom   7H    basis set group =>   3
Atom   8H    basis set group =>   3
Atom   9H    basis set group =>   3
Atom  10H    basis set group =>   3
Atom  11H    basis set group =>   3
Atom  12H    basis set group =>   3
Atom  13H    basis set group =>   3


           ************************************************************
           *        Program running with 8 parallel MPI-processes     *
           *              working on a common directory               *
           ************************************************************
------------------------------------------------------------------------------
                             ORCA STARTUP CALCULATIONS
                           -- RI-GTO INTEGRALS CHOSEN --
------------------------------------------------------------------------------
------------------------------------------------------------------------------
                   ___                                                        
                  /   \      - P O W E R E D   B Y -                         
                 /     \                                                     
                 |  |  |   _    _      __       _____    __    __             
                 |  |  |  | |  | |    /  \     |  _  \  |  |  /  |          
                  \  \/   | |  | |   /    \    | | | |  |  | /  /          
                 / \  \   | |__| |  /  /\  \   | |_| |  |  |/  /          
                |  |  |   |  __  | /  /__\  \  |    /   |      \           
                |  |  |   | |  | | |   __   |  |    \   |  |\   \          
                \     /   | |  | | |  |  |  |  | |\  \  |  | \   \       
                 \___/    |_|  |_| |__|  |__|  |_| \__\ |__|  \__/        
                                                                              
                      - O R C A' S   B I G   F R I E N D -                    
                                      &                                       
                       - I N T E G R A L  F E E D E R -                       
                                                                              
 v1 FN, 2020, v2 2021, v3 2022-2024                                           
------------------------------------------------------------------------------


----------------------
SHARK INTEGRAL PACKAGE
----------------------

Number of atoms                             ...     14
Number of basis functions                   ...     88
Number of shells                            ...     48
Maximum angular momentum                    ...      2
Integral batch strategy                     ... SHARK/LIBINT Hybrid
RI-J (if used) integral strategy            ... SPLIT-RIJ (Revised 2003 algorithm where possible)
Printlevel                                  ...      1
Contraction scheme used                     ... SEGMENTED contraction
Prescreening option                         ... SCHWARTZ
   Thresh                                   ... 2.500e-11
   Tcut                                     ... 2.500e-12
   Tpresel                                  ... 2.500e-12 
Coulomb Range Separation                    ... NOT USED
Exchange Range Separation                   ... NOT USED
Multipole approximations                    ... NOT USED
Finite Nucleus Model                        ... NOT USED
CABS basis                                  ... NOT available
Auxiliary Coulomb fitting basis             ... AVAILABLE
   # of basis functions in Aux-J            ...    344
   # of shells in Aux-J                     ...    120
   Maximum angular momentum in Aux-J        ...      4
Auxiliary J/K fitting basis                 ... NOT available
Auxiliary Correlation fitting basis         ... NOT available
Auxiliary 'external' fitting basis          ... NOT available

Checking pre-screening integrals            ... done (  0.0 sec) Dimension = 48
Check shell pair data                       ... done (  0.0 sec)
Shell pair information
Shell pair cut-off parameter TPreSel        ...   2.5e-12
Total number of shell pairs                 ...      1176
Shell pairs after pre-screening             ...      1171
Total number of primitive shell pairs       ...      4748
Primitive shell pairs kept                  ...      3730
          la=0 lb=0:    556 shell pairs
          la=1 lb=0:    330 shell pairs
          la=1 lb=1:     55 shell pairs
          la=2 lb=0:    165 shell pairs
          la=2 lb=1:     50 shell pairs
          la=2 lb=2:     15 shell pairs

Calculating one electron integrals          ... done (  0.0 sec)
Calculating RI/J V-Matrix + Cholesky decomp.... done (  0.0 sec)
Calculating Nuclear repulsion               ... done (  0.0 sec) ENN=    186.320095959315 Eh

Diagonalization of the overlap matrix:
Smallest eigenvalue                        ... 2.320e-03
Time for diagonalization                   ...    0.002 sec
Threshold for overlap eigenvalues          ... 1.000e-07
Number of eigenvalues below threshold      ... 0
Time for construction of square roots      ...    0.015 sec
Total time needed                          ...    0.039 sec

-------------------
DFT GRID GENERATION
-------------------

General Integration Accuracy     IntAcc      ... 4.388
Radial Grid Type                 RadialGrid  ... OptM3 with GC (2021)
Angular Grid (max. ang.)         AngularGrid ... 4 (Lebedev-302)
Angular grid pruning method      GridPruning ... 4 (adaptive)
Weight generation scheme         WeightScheme... mBecke (2022)
Basis function cutoff            BFCut       ... 1.0000e-11
Integration weight cutoff        WCut        ... 1.0000e-14
Partially contracted basis set               ... off
Rotationally invariant grid construction     ... off
Angular grids for H and He will be reduced by one unit

Total number of grid points                  ...    59133
Total number of batches                      ...      929
Average number of points per batch           ...       63
Average number of grid points per atom       ...     4224

--------------------
COSX GRID GENERATION
--------------------

GRIDX 1
-------
General Integration Accuracy     IntAcc      ... 3.816
Radial Grid Type                 RadialGrid  ... OptM3 with GC (2021)
Angular Grid (max. ang.)         AngularGrid ... 1 (Lebedev-50)
Angular grid pruning method      GridPruning ... 4 (adaptive)
Weight generation scheme         WeightScheme... mBecke (2022)
Basis function cutoff            BFCut       ... 1.0000e-11
Integration weight cutoff        WCut        ... 1.0000e-14
Partially contracted basis set               ... on
Rotationally invariant grid construction     ... off
Angular grids for H and He will be reduced by one unit

Total number of grid points                  ...     7623
Total number of batches                      ...       70
Average number of points per batch           ...      108
Average number of grid points per atom       ...      544
UseSFitting                                  ... on

GRIDX 2
-------
General Integration Accuracy     IntAcc      ... 4.020
Radial Grid Type                 RadialGrid  ... OptM3 with GC (2021)
Angular Grid (max. ang.)         AngularGrid ... 2 (Lebedev-110)
Angular grid pruning method      GridPruning ... 4 (adaptive)
Weight generation scheme         WeightScheme... mBecke (2022)
Basis function cutoff            BFCut       ... 1.0000e-11
Integration weight cutoff        WCut        ... 1.0000e-14
Partially contracted basis set               ... on
Rotationally invariant grid construction     ... off
Angular grids for H and He will be reduced by one unit

Total number of grid points                  ...    15919
Total number of batches                      ...      129
Average number of points per batch           ...      123
Average number of grid points per atom       ...     1137
UseSFitting                                  ... on

GRIDX 3
-------
General Integration Accuracy     IntAcc      ... 4.338
Radial Grid Type                 RadialGrid  ... OptM3 with GC (2021)
Angular Grid (max. ang.)         AngularGrid ... 3 (Lebedev-194)
Angular grid pruning method      GridPruning ... 4 (adaptive)
Weight generation scheme         WeightScheme... mBecke (2022)
Basis function cutoff            BFCut       ... 1.0000e-11
Integration weight cutoff        WCut        ... 1.0000e-14
Partially contracted basis set               ... on
Rotationally invariant grid construction     ... off
Angular grids for H and He will be reduced by one unit

Total number of grid points                  ...    34801
Total number of batches                      ...      278
Average number of points per batch           ...      125
Average number of grid points per atom       ...     2486
UseSFitting                                  ... on
Initializing property integral containers    ... done (  0.1 sec)

SHARK setup successfully completed in   1.5 seconds

Maximum memory used throughout the entire STARTUP-calculation: 15.3 MB


           ************************************************************
           *        Program running with 8 parallel MPI-processes     *
           *              working on a common directory               *
           ************************************************************
-------------------------------------------------------------------------------
                                 ORCA GUESS
                   Start orbitals & Density for SCF / CASSCF
-------------------------------------------------------------------------------

------------
SCF SETTINGS
------------
Hamiltonian:
 Density Functional     Method          .... DFT(GTOs)
 Exchange Functional    Exchange        .... PBE
   PBE kappa parameter   XKappa         ....  0.804000
   PBE mue parameter    XMuePBE         ....  0.219520
 Correlation Functional Correlation     .... PBE
   PBE beta parameter  CBetaPBE         ....  0.066725
 LDA part of GGA corr.  LDAOpt          .... PW91-LDA
 Gradients option       PostSCFGGA      .... off
 Hybrid DFT is turned on
   Fraction HF Exchange ScalHFX         ....  0.250000
   Scaling of DF-GGA-X  ScalDFX         ....  0.750000
   Scaling of DF-GGA-C  ScalDFC         ....  1.000000
   Scaling of DF-LDA-C  ScalLDAC        ....  1.000000
   Perturbative correction              ....  0.000000
   NL short-range parameter             ....  6.900000
 RI-approximation to the Coulomb term is turned on
   Number of AuxJ basis functions       .... 344
   RIJ-COSX (HFX calculated with COS-X)).... on


General Settings:
 Integral files         IntName         .... cs_rporg_072_ox_opt_01
 Hartree-Fock type      HFTyp           .... UHF
 Total Charge           Charge          ....    1
 Multiplicity           Mult            ....    2
 Number of Electrons    NEL             ....   39
 Basis Dimension        Dim             ....   88
 Nuclear Repulsion      ENuc            ....    186.3200959593 Eh

Convergence Acceleration:
 AO-DIIS                CNVDIIS         .... on
   Start iteration      DIISMaxIt       ....     0
   Startup error        DIISStart       ....  0.200000
   # of expansion vecs  DIISMaxEq       ....     5
   Bias factor          DIISBfac        ....   1.050
   Max. coefficient     DIISMaxC        ....  10.000
 MO-DIIS                CNVKDIIS        .... off
 Trust-Rad. Augm. Hess. CNVTRAH         .... auto
   Auto Start mean grad. ratio tolernc. ....  1.125000
   Auto Start start iteration           ....    50
   Auto Start num. interpolation iter.  ....    10
   Max. Number of Micro iterations      ....    24
   Max. Number of Macro iterations      .... Maxiter - #DIIS iter
   Number of Davidson start vectors     ....     2
   Converg. threshold    (grad. norm)   ....   1.000e-05
   Grad. Scal. Fac. for Micro threshold ....   0.100
   Minimum threshold for Micro iter.    ....   1.000e-02
   NR start threshold (gradient norm)   ....   1.000e-04
   Initial trust radius                 ....   0.400
   Minimum AH scaling param. (alpha)    ....   1.000
   Maximum AH scaling param. (alpha)    .... 1000.000
   Quad. conv. algorithm                .... NR
   White noise on init. David. guess    .... on
   Maximum white noise                  ....   0.010
   Pseudo random numbers                .... off
   Inactive MOs                         .... canonical
   Orbital update algorithm             .... Taylor
   Preconditioner                       .... Diag
   Full preconditioner red. dimension   ....   250
 SOSCF                  CNVSOSCF        .... on
   Start iteration      SOSCFMaxIt      ....   150
   Startup grad/error   SOSCFStart      ....  0.001000
   Hessian update       SOSCFHessUp     .... L-BFGS
 Level Shifting         CNVShift        .... on
   Level shift para.    LevelShift      ....    0.2500
   Turn off err/grad.   ShiftErr        ....    0.0000
 Zerner damping         CNVZerner       .... off
 Static damping         CNVDamp         .... on
   Fraction old density DampFac         ....    0.8500
   Max. Damping (<1)    DampMax         ....    0.9800
   Min. Damping (>=0)   DampMin         ....    0.0000
   Turn off err/grad.   DampErr         ....    0.0300

SCF Procedure:
 Maximum # iterations   MaxIter         ....  1500
 SCF integral mode      SCFMode         .... Direct
   Integral package                     .... SHARK and LIBINT hybrid scheme
 Reset frequency        DirectResetFreq ....    20
 Integral Threshold     Thresh          ....  2.500e-11 Eh
 Primitive CutOff       TCut            ....  2.500e-12 Eh

Convergence Tolerance:
 Convergence Check Mode ConvCheckMode   .... Total+1el-Energy
 Convergence forced     ConvForced      .... 0
 Energy Change          TolE            ....  1.000e-08 Eh
 1-El. energy change                    ....  1.000e-05 Eh
 Orbital Gradient       TolG            ....  1.000e-05
 Orbital Rotation angle TolX            ....  1.000e-05
 DIIS Error             TolErr          ....  5.000e-07

------------------------------
INITIAL GUESS: MODEL POTENTIAL
------------------------------
Loading Hartree-Fock densities                     ... done
Calculating cut-offs                               ... done
Initializing the effective Hamiltonian             ... done
Setting up the integral package (SHARK)            ... done
Starting the Coulomb interaction                   ... done (   0.0 sec)
Making the grid                                    ... done (   0.1 sec)
Mapping shells                                     ... done
Starting the XC term evaluation                    ... done (   0.0 sec)
  promolecular density results
     # of electrons  =     39.994622306
     EX              =    -29.561899732
     EC              =     -1.296929777
     EX+EC           =    -30.858829510
Transforming the Hamiltonian                       ... done (   0.0 sec)
Diagonalizing the Hamiltonian                      ... done (   0.0 sec)
Back transforming the eigenvectors                 ... done (   0.0 sec)
Now organizing SCF variables                       ... done
                      ------------------
                      INITIAL GUESS DONE (   0.4 sec)
                      ------------------
             **** ENERGY FILE WAS UPDATED (cs_rporg_072_ox_opt_01.en.tmp) ****
Finished Guess after   1.0 sec
Maximum memory used throughout the entire GUESS-calculation: 8.3 MB


           ************************************************************
           *        Program running with 8 parallel MPI-processes     *
           *              working on a common directory               *
           ************************************************************

-------------------------------------------------------------------------------------------
                                      ORCA LEAN-SCF
                              memory conserving SCF solver
-------------------------------------------------------------------------------------------

----------------------------------------D-I-I-S--------------------------------------------
Iteration    Energy (Eh)           Delta-E    RMSDP     MaxDP     DIISErr   Damp  Time(sec)
-------------------------------------------------------------------------------------------
               ***  Starting incremental Fock matrix formation  ***
    1    -211.7983038312670487     0.00e+00  7.85e-04  1.25e-02  4.73e-02  0.850   1.8
    2    -211.8105887195827108    -1.23e-02  7.65e-04  1.12e-02  3.59e-02  0.850   1.9
                               ***Turning on AO-DIIS***
    3    -211.8190942184958772    -8.51e-03  5.14e-04  5.83e-03  2.51e-02  0.850   1.6
    4    -211.8248576357873389    -5.76e-03  2.70e-03  3.10e-02  2.06e-02  0.000   1.6
    5    -211.8497643310856802    -2.49e-02  2.52e-04  4.57e-03  4.13e-03  0.000   1.7
    6    -211.8500714033201007    -3.07e-04  1.14e-04  2.56e-03  2.06e-03  0.000   1.7
    7    -211.8501444139360501    -7.30e-05  7.21e-05  1.60e-03  1.05e-03  0.000   1.6
                              *** Initializing SOSCF ***
---------------------------------------S-O-S-C-F--------------------------------------
Iteration    Energy (Eh)           Delta-E    RMSDP     MaxDP     MaxGrad    Time(sec)
--------------------------------------------------------------------------------------
    8    -211.8501714393586894    -2.70e-05  3.54e-05  1.01e-03  6.75e-04     1.6
               *** Restarting incremental Fock matrix formation ***
    9    -211.8501700520267264     1.39e-06  2.69e-05  5.64e-04  5.38e-04     1.4
   10    -211.8501728887151216    -2.84e-06  2.03e-05  5.41e-04  1.92e-04     1.5
   11    -211.8501731516194582    -2.63e-07  7.31e-06  1.37e-04  1.35e-04     1.5
   12    -211.8501734281313702    -2.77e-07  1.95e-06  3.39e-05  2.13e-05     1.4
   13    -211.8501734311225277    -2.99e-09  7.97e-07  1.69e-05  1.31e-05     1.3
                 **** Energy Check signals convergence ****

               *****************************************************
               *                     SUCCESS                       *
               *           SCF CONVERGED AFTER  13 CYCLES          *
               *****************************************************

Recomputing exchange energy using gridx3       ... done (    0.549 sec)
Old exchange energy                            :     -7.497855382 Eh
New exchange energy                            :     -7.497897111 Eh
Exchange energy change after final integration :     -0.000041729 Eh
Total energy after final integration           :   -211.850215160 Eh
             **** ENERGY FILE WAS UPDATED (cs_rporg_072_ox_opt_01.en.tmp) ****

----------------
TOTAL SCF ENERGY
----------------

Total Energy       :       -211.85021515995749 Eh           -5764.73743 eV

Components:
Nuclear Repulsion  :        186.32009595931493 Eh            5070.02757 eV
Electronic Energy  :       -398.17026939043740 Eh          -10834.76386 eV
One Electron Energy:       -644.93422325606480 Eh          -17549.55242 eV
Two Electron Energy:        246.76395386562737 Eh            6714.78856 eV

Virial components:
Potential Energy   :       -420.91887985228345 Eh          -11453.78502 eV
Kinetic Energy     :        209.06866469232597 Eh            5689.04759 eV
Virial Ratio       :          2.01330448286798

DFT components:
N(Alpha)           :       19.999966334781 electrons
N(Beta)            :       18.999960392422 electrons
N(Total)           :       38.999926727203 electrons
E(X)               :      -22.406058401307 Eh       
E(C)               :       -1.275241188948 Eh       
E(XC)              :      -23.681299590255 Eh       

---------------
SCF CONVERGENCE
---------------

  Last Energy change         ...    2.9912e-09  Tolerance :   1.0000e-08
  Last MAX-Density change    ...    1.6881e-05  Tolerance :   1.0000e-07
  Last RMS-Density change    ...    7.9710e-07  Tolerance :   5.0000e-09
  Last DIIS Error            ...    6.7538e-04  Tolerance :   5.0000e-07
  Last Orbital Gradient      ...    1.3097e-05  Tolerance :   1.0000e-05
  Last Orbital Rotation      ...    8.3430e-06  Tolerance :   1.0000e-05


----------------------
UHF SPIN CONTAMINATION
----------------------

Warning: in a DFT calculation there is little theoretical justification to 
         calculate <S**2> as in Hartree-Fock theory. We will do it anyways
         but you should keep in mind that the values have only limited relevance

Expectation value of <S**2>     :     0.755418
Ideal value S*(S+1) for S=0.5   :     0.750000
Deviation                       :     0.005418

----------------
ORBITAL ENERGIES
----------------
                 SPIN UP ORBITALS
  NO   OCC          E(Eh)            E(eV) 
   0   1.0000     -14.719086      -400.5267 
   1   1.0000     -10.491066      -285.4764 
   2   1.0000     -10.491056      -285.4762 
   3   1.0000     -10.440255      -284.0938 
   4   1.0000     -10.440236      -284.0933 
   5   1.0000      -1.232308       -33.5328 
   6   1.0000      -0.984935       -26.8014 
   7   1.0000      -0.975377       -26.5414 
   8   1.0000      -0.831226       -22.6188 
   9   1.0000      -0.799627       -21.7590 
  10   1.0000      -0.775837       -21.1116 
  11   1.0000      -0.737019       -20.0553 
  12   1.0000      -0.664352       -18.0779 
  13   1.0000      -0.642406       -17.4807 
  14   1.0000      -0.612167       -16.6579 
  15   1.0000      -0.611635       -16.6434 
  16   1.0000      -0.562695       -15.3117 
  17   1.0000      -0.552213       -15.0265 
  18   1.0000      -0.518601       -14.1118 
  19   1.0000      -0.512847       -13.9553 
  20   0.0000      -0.141635        -3.8541 
  21   0.0000      -0.101325        -2.7572 
  22   0.0000      -0.095478        -2.5981 
  23   0.0000      -0.076219        -2.0740 
  24   0.0000      -0.063516        -1.7284 
  25   0.0000      -0.051659        -1.4057 
  26   0.0000      -0.044082        -1.1995 
  27   0.0000      -0.040605        -1.1049 
  28   0.0000      -0.025413        -0.6915 
  29   0.0000      -0.006762        -0.1840 
  30   0.0000       0.013918         0.3787 

                 SPIN DOWN ORBITALS
  NO   OCC          E(Eh)            E(eV) 
   0   1.0000     -14.700031      -400.0082 
   1   1.0000     -10.491665      -285.4927 
   2   1.0000     -10.491656      -285.4925 
   3   1.0000     -10.440166      -284.0914 
   4   1.0000     -10.440147      -284.0908 
   5   1.0000      -1.198260       -32.6063 
   6   1.0000      -0.975789       -26.5526 
   7   1.0000      -0.969765       -26.3886 
   8   1.0000      -0.822758       -22.3884 
   9   1.0000      -0.795819       -21.6553 
  10   1.0000      -0.763386       -20.7728 
  11   1.0000      -0.699472       -19.0336 
  12   1.0000      -0.649254       -17.6671 
  13   1.0000      -0.626910       -17.0591 
  14   1.0000      -0.609267       -16.5790 
  15   1.0000      -0.593213       -16.1422 
  16   1.0000      -0.561353       -15.2752 
  17   1.0000      -0.550716       -14.9857 
  18   1.0000      -0.515038       -14.0149 
  19   0.0000      -0.353471        -9.6184 
  20   0.0000      -0.136154        -3.7049 
  21   0.0000      -0.095991        -2.6121 
  22   0.0000      -0.089479        -2.4349 
  23   0.0000      -0.071817        -1.9542 
  24   0.0000      -0.057862        -1.5745 
  25   0.0000      -0.045627        -1.2416 
  26   0.0000      -0.041870        -1.1393 
  27   0.0000      -0.038625        -1.0510 
  28   0.0000      -0.022768        -0.6195 
  29   0.0000      -0.002163        -0.0589 
*Only the first 10 virtual orbitals were printed.

                    ********************************
                    * MULLIKEN POPULATION ANALYSIS *
                    ********************************

--------------------------------------------
MULLIKEN ATOMIC CHARGES AND SPIN POPULATIONS
--------------------------------------------
   0 C :   -0.145773   -0.042826
   1 N :   -0.216324    0.817999
   2 H :    0.336395   -0.033132
   3 C :   -0.145577   -0.042827
   4 C :   -0.331006    0.005471
   5 C :   -0.331023    0.005569
   6 H :    0.207653    0.000263
   7 H :    0.222601   -0.001706
   8 H :    0.222584   -0.001704
   9 H :    0.207645    0.000265
  10 H :    0.239857    0.052782
  11 H :    0.246534    0.093572
  12 H :    0.246558    0.093767
  13 H :    0.239876    0.052507
Sum of atomic charges         :    1.0000000
Sum of atomic spin populations:    1.0000000

-----------------------------------------------------
MULLIKEN REDUCED ORBITAL CHARGES AND SPIN POPULATIONS
-----------------------------------------------------
CHARGE
  0 C s       :     3.176047  s :     3.176047
      pz      :     1.103275  p :     2.920793
      px      :     0.969220
      py      :     0.848298
      dz2     :     0.009512  d :     0.048933
      dxz     :     0.007106
      dyz     :     0.008048
      dx2y2   :     0.007862
      dxy     :     0.016404

  1 N s       :     3.518776  s :     3.518776
      pz      :     1.224943  p :     3.670870
      px      :     1.225425
      py      :     1.220501
      dz2     :     0.002924  d :     0.026678
      dxz     :     0.001244
      dyz     :     0.004845
      dx2y2   :     0.011555
      dxy     :     0.006110

  2 H s       :     0.663605  s :     0.663605

  3 C s       :     3.175818  s :     3.175818
      pz      :     1.103578  p :     2.920832
      px      :     0.969139
      py      :     0.848115
      dz2     :     0.009017  d :     0.048926
      dxz     :     0.007458
      dyz     :     0.008315
      dx2y2   :     0.007985
      dxy     :     0.016150

  4 C s       :     3.273769  s :     3.273769
      pz      :     1.116168  p :     3.024436
      px      :     0.949256
      py      :     0.959013
      dz2     :     0.008491  d :     0.032800
      dxz     :     0.004853
      dyz     :     0.005050
      dx2y2   :     0.007826
      dxy     :     0.006581

  5 C s       :     3.273884  s :     3.273884
      pz      :     1.110953  p :     3.024333
      px      :     0.954340
      py      :     0.959040
      dz2     :     0.008734  d :     0.032805
      dxz     :     0.004725
      dyz     :     0.004954
      dx2y2   :     0.007712
      dxy     :     0.006680

  6 H s       :     0.792347  s :     0.792347

  7 H s       :     0.777399  s :     0.777399

  8 H s       :     0.777416  s :     0.777416

  9 H s       :     0.792355  s :     0.792355

 10 H s       :     0.760143  s :     0.760143

 11 H s       :     0.753466  s :     0.753466

 12 H s       :     0.753442  s :     0.753442

 13 H s       :     0.760124  s :     0.760124


SPIN
  0 C s       :    -0.015781  s :    -0.015781
      pz      :     0.004625  p :    -0.033952
      px      :    -0.013080
      py      :    -0.025496
      dz2     :     0.001159  d :     0.006907
      dxz     :     0.000146
      dyz     :     0.005678
      dx2y2   :     0.000050
      dxy     :    -0.000126

  1 N s       :     0.045553  s :     0.045553
      pz      :     0.714251  p :     0.774352
      px      :     0.027990
      py      :     0.032110
      dz2     :    -0.001600  d :    -0.001906
      dxz     :     0.000075
      dyz     :    -0.000143
      dx2y2   :    -0.000125
      dxy     :    -0.000113

  2 H s       :    -0.033132  s :    -0.033132

  3 C s       :    -0.015779  s :    -0.015779
      pz      :     0.004286  p :    -0.033956
      px      :    -0.012711
      py      :    -0.025530
      dz2     :     0.001232  d :     0.006908
      dxz     :     0.000050
      dyz     :     0.005746
      dx2y2   :     0.000051
      dxy     :    -0.000171

  4 C s       :     0.000028  s :     0.000028
      pz      :     0.001696  p :     0.005468
      px      :     0.002020
      py      :     0.001752
      dz2     :     0.000020  d :    -0.000025
      dxz     :    -0.000056
      dyz     :     0.000052
      dx2y2   :    -0.000057
      dxy     :     0.000017

  5 C s       :     0.000045  s :     0.000045
      pz      :     0.001819  p :     0.005550
      px      :     0.001952
      py      :     0.001779
      dz2     :     0.000019  d :    -0.000025
      dxz     :    -0.000056
      dyz     :     0.000046
      dx2y2   :    -0.000058
      dxy     :     0.000023

  6 H s       :     0.000263  s :     0.000263

  7 H s       :    -0.001706  s :    -0.001706

  8 H s       :    -0.001704  s :    -0.001704

  9 H s       :     0.000265  s :     0.000265

 10 H s       :     0.052782  s :     0.052782

 11 H s       :     0.093572  s :     0.093572

 12 H s       :     0.093767  s :     0.093767

 13 H s       :     0.052507  s :     0.052507



                     *******************************
                     * LOEWDIN POPULATION ANALYSIS *
                     *******************************

-------------------------------------------
LOEWDIN ATOMIC CHARGES AND SPIN POPULATIONS
-------------------------------------------
   0 C :   -0.154981    0.000811
   1 N :    0.084486    0.761757
   2 H :    0.288640   -0.021203
   3 C :   -0.154968    0.000810
   4 C :   -0.228043    0.004770
   5 C :   -0.228027    0.004840
   6 H :    0.156629    0.000518
   7 H :    0.166880   -0.001557
   8 H :    0.166885   -0.001556
   9 H :    0.156644    0.000523
  10 H :    0.182049    0.045166
  11 H :    0.190896    0.080011
  12 H :    0.190915    0.080180
  13 H :    0.181995    0.044930

----------------------------------------------------
LOEWDIN REDUCED ORBITAL CHARGES AND SPIN POPULATIONS
----------------------------------------------------
CHARGE
  0 C s       :     2.945836  s :     2.945836
      pz      :     1.106464  p :     3.099564
      px      :     1.036697
      py      :     0.956404
      dz2     :     0.020831  d :     0.109581
      dxz     :     0.013182
      dyz     :     0.019030
      dx2y2   :     0.019339
      dxy     :     0.037199

  1 N s       :     3.174084  s :     3.174084
      pz      :     1.199207  p :     3.686131
      px      :     1.241903
      py      :     1.245021
      dz2     :     0.004415  d :     0.055300
      dxz     :     0.002236
      dyz     :     0.008298
      dx2y2   :     0.023504
      dxy     :     0.016848

  2 H s       :     0.711360  s :     0.711360

  3 C s       :     2.945830  s :     2.945830
      pz      :     1.105989  p :     3.099575
      px      :     1.037313
      py      :     0.956274
      dz2     :     0.019964  d :     0.109563
      dxz     :     0.013569
      dyz     :     0.019668
      dx2y2   :     0.019764
      dxy     :     0.036599

  4 C s       :     2.968067  s :     2.968067
      pz      :     1.128060  p :     3.185664
      px      :     1.021984
      py      :     1.035620
      dz2     :     0.017894  d :     0.074312
      dxz     :     0.010764
      dyz     :     0.010198
      dx2y2   :     0.020964
      dxy     :     0.014491

  5 C s       :     2.968078  s :     2.968078
      pz      :     1.125212  p :     3.185625
      px      :     1.024785
      py      :     1.035628
      dz2     :     0.018559  d :     0.074324
      dxz     :     0.010443
      dyz     :     0.010009
      dx2y2   :     0.020626
      dxy     :     0.014687

  6 H s       :     0.843371  s :     0.843371

  7 H s       :     0.833120  s :     0.833120

  8 H s       :     0.833115  s :     0.833115

  9 H s       :     0.843356  s :     0.843356

 10 H s       :     0.817951  s :     0.817951

 11 H s       :     0.809104  s :     0.809104

 12 H s       :     0.809085  s :     0.809085

 13 H s       :     0.818005  s :     0.818005


SPIN
  0 C s       :    -0.005977  s :    -0.005977
      pz      :     0.014378  p :    -0.011144
      px      :    -0.007930
      py      :    -0.017591
      dz2     :     0.002742  d :     0.017932
      dxz     :     0.000850
      dyz     :     0.013255
      dx2y2   :     0.000396
      dxy     :     0.000689

  1 N s       :     0.027625  s :     0.027625
      pz      :     0.696286  p :     0.736700
      px      :     0.017911
      py      :     0.022503
      dz2     :    -0.001343  d :    -0.002568
      dxz     :     0.000362
      dyz     :    -0.000352
      dx2y2   :    -0.000667
      dxy     :    -0.000568

  2 H s       :    -0.021203  s :    -0.021203

  3 C s       :    -0.005979  s :    -0.005979
      pz      :     0.014136  p :    -0.011142
      px      :    -0.007660
      py      :    -0.017619
      dz2     :     0.002886  d :     0.017932
      dxz     :     0.000664
      dyz     :     0.013395
      dx2y2   :     0.000391
      dxy     :     0.000596

  4 C s       :     0.000014  s :     0.000014
      pz      :     0.001193  p :     0.004791
      px      :     0.002481
      py      :     0.001117
      dz2     :     0.000080  d :    -0.000034
      dxz     :    -0.000123
      dyz     :     0.000140
      dx2y2   :    -0.000152
      dxy     :     0.000021

  5 C s       :     0.000019  s :     0.000019
      pz      :     0.001326  p :     0.004857
      px      :     0.002398
      py      :     0.001133
      dz2     :     0.000085  d :    -0.000035
      dxz     :    -0.000125
      dyz     :     0.000128
      dx2y2   :    -0.000158
      dxy     :     0.000034

  6 H s       :     0.000518  s :     0.000518

  7 H s       :    -0.001557  s :    -0.001557

  8 H s       :    -0.001556  s :    -0.001556

  9 H s       :     0.000523  s :     0.000523

 10 H s       :     0.045166  s :     0.045166

 11 H s       :     0.080011  s :     0.080011

 12 H s       :     0.080180  s :     0.080180

 13 H s       :     0.044930  s :     0.044930



                      *****************************
                      * MAYER POPULATION ANALYSIS *
                      *****************************

  NA   - Mulliken gross atomic population
  ZA   - Total nuclear charge
  QA   - Mulliken gross atomic charge
  VA   - Mayer's total valence
  BVA  - Mayer's bonded valence
  FA   - Mayer's free valence

  ATOM       NA         ZA         QA         VA         BVA        FA
  0 C      6.1458     6.0000    -0.1458     3.7582     3.7552     0.0030
  1 N      7.2163     7.0000    -0.2163     3.5426     3.0063     0.5362
  2 H      0.6636     1.0000     0.3364     0.8610     0.8599     0.0011
  3 C      6.1456     6.0000    -0.1456     3.7582     3.7552     0.0030
  4 C      6.3310     6.0000    -0.3310     3.8779     3.8779     0.0000
  5 C      6.3310     6.0000    -0.3310     3.8779     3.8778     0.0000
  6 H      0.7923     1.0000     0.2077     0.9230     0.9230     0.0000
  7 H      0.7774     1.0000     0.2226     0.9233     0.9233     0.0000
  8 H      0.7774     1.0000     0.2226     0.9233     0.9233     0.0000
  9 H      0.7924     1.0000     0.2076     0.9231     0.9231     0.0000
 10 H      0.7601     1.0000     0.2399     0.9183     0.9155     0.0028
 11 H      0.7535     1.0000     0.2465     0.9131     0.9044     0.0087
 12 H      0.7534     1.0000     0.2466     0.9131     0.9044     0.0087
 13 H      0.7601     1.0000     0.2399     0.9183     0.9156     0.0027

  Mayer bond orders larger than 0.100000
B(  0-C ,  1-N ) :   1.0145 B(  0-C ,  5-C ) :   1.0110 B(  0-C , 12-H ) :   0.8545 
B(  0-C , 13-H ) :   0.8814 B(  1-N ,  2-H ) :   0.8250 B(  1-N ,  3-C ) :   1.0146 
B(  3-C ,  4-C ) :   1.0110 B(  3-C , 10-H ) :   0.8812 B(  3-C , 11-H ) :   0.8547 
B(  4-C ,  5-C ) :   1.0380 B(  4-C ,  8-H ) :   0.9187 B(  4-C ,  9-H ) :   0.9149 
B(  5-C ,  6-H ) :   0.9149 B(  5-C ,  7-H ) :   0.9187 

-------
TIMINGS
-------

Total SCF time: 0 days 0 hours 0 min 22 sec 

Total time                  ....      22.688 sec
Sum of individual times     ....      21.812 sec  ( 96.1%)

SCF preparation             ....       0.708 sec  (  3.1%)
Fock matrix formation       ....      14.403 sec  ( 63.5%)
  Startup                   ....       1.669 sec  ( 11.6% of F)
  Split-RI-J                ....       1.606 sec  ( 11.2% of F)
  Chain of spheres X        ....       5.019 sec  ( 34.8% of F)
  XC integration            ....       3.629 sec  ( 25.2% of F)
    XC Preparation          ....       0.000 sec  (  0.0% of XC)
    Basis function eval.    ....       0.362 sec  ( 10.0% of XC)
    Density eval.           ....       0.270 sec  (  7.4% of XC)
    XC-Functional eval.     ....       0.125 sec  (  3.5% of XC)
    XC-Potential eval.      ....       0.284 sec  (  7.8% of XC)
Diagonalization             ....       0.000 sec  (  0.0%)
Density matrix formation    ....       2.226 sec  (  9.8%)
Total Energy calculation    ....       0.904 sec  (  4.0%)
Population analysis         ....       0.291 sec  (  1.3%)
Orbital Transformation      ....       0.314 sec  (  1.4%)
Orbital Orthonormalization  ....       0.000 sec  (  0.0%)
DIIS solution               ....       2.229 sec  (  9.8%)
SOSCF solution              ....       0.735 sec  (  3.2%)
Finished LeanSCF after  22.9 sec

Maximum memory used throughout the entire LEANSCF-calculation: 11.2 MB


           ************************************************************
           *        Program running with 8 parallel MPI-processes     *
           *              working on a common directory               *
           ************************************************************

------------------------------------------------------------------------------
                         ORCA PROPERTY INTEGRAL CALCULATIONS
------------------------------------------------------------------------------

GBWName                                   ... cs_rporg_072_ox_opt_01.gbw
Number of atoms                           ...     14
Number of basis functions                 ...     88
Max core memory                           ...   3000 MB

Dipole integrals                          ... YES
Quadrupole integrals                      ...  NO
Linear momentum integrals                 ...  NO
Angular momentum integrals                ...  NO
Higher moments length integrals           ...  NO
Higher moments velocity integrals         ...  NO
Kinetic energy integrals                  ...  NO
GIAO right hand sides                     ...  NO
GIAO dipole derivative integrals          ...  NO
SOC integrals                             ...  NO
EPR diamagnetic integrals (GIAO)          ...  NO
EPR gauge integrals                       ...  NO
Field gradient integrals                  ...  NO (   0 nuclei)
Spin-dipole/Fermi contact integrals       ...  NO (   0 nuclei)
Contact density integrals                 ...  NO (   0 nuclei)
Nucleus-orbit integrals                   ...  NO (   0 nuclei)
Geometric perturbations                   ...  NO (  14 nuclei)

Choice of electric origin   ... Center of mass
Position of electric origin ... ( -0.1279,  0.0000, -0.0058) 
Choice of magnetic origin   ... GIAO
Position of magnetic origin ... (  0.0000,  0.0000,  0.0000) 

Calculating integrals                     ... Electric Dipole (Length)     done (  0.0 sec)

Property integrals calculated in   0.0 sec

Maximum memory used throughout the entire PROPINT-calculation: 7.2 MB


-------------------------------------------------------------------------------
                          DFT DISPERSION CORRECTION                            
                                                                               
                              DFTD3 V3.1  Rev 1                                
                          USING Becke-Johnson damping                          
-------------------------------------------------------------------------------
The PBE0 functional is recognized
Active option DFTDOPT                   ...         4   

molecular C6(AA) [au] = 1355.947501 


            DFT-D V3
 parameters
 s6 scaling factor         :     1.0000 
 a1 scaling factor         :     0.4145 
 s8 scaling factor         :     1.2177 
 a2 scaling factor         :     4.8593 
 ad hoc parameters k1-k3   :    16.0000     1.3333    -4.0000 

 Edisp/kcal,au: -5.427035289128  -0.008648530316 
 E6   /kcal   :  -3.529320074 
 E8   /kcal   :  -1.897715215 
 % E8         :  34.967806809 

-------------------------   ----------------
Dispersion correction           -0.008648530
-------------------------   ----------------


-------------------------   --------------------
FINAL SINGLE POINT ENERGY      -211.858863690274
-------------------------   --------------------



           ************************************************************
           *        Program running with 8 parallel MPI-processes     *
           *              working on a common directory               *
           ************************************************************
------------------------------------------------------------------------------
                         ORCA SCF GRADIENT CALCULATION
------------------------------------------------------------------------------

Nuc. rep. gradient        (SHARK) ... done (  0.0 sec)
HCore & Overlap gradient  (SHARK) ... done (  0.0 sec)
Split-RIJ-J gradient      (SHARK) ... done (  0.3 sec)
COSX-gradient                     ... done (  2.4 sec)
XC gradient                       ... done (  0.8 sec)
Dispersion correction             ... done (  0.1 sec)

-------------------
DISPERSION GRADIENT
-------------------

   1   C   :    0.000050290   -0.000141384   -0.000013185
   2   N   :    0.000137143   -0.000000007   -0.000003630
   3   H   :    0.000138943    0.000000007   -0.000003648
   4   C   :    0.000050904    0.000141379    0.000010402
   5   C   :   -0.000120739    0.000094290   -0.000020576
   6   C   :   -0.000119443   -0.000094341    0.000027093
   7   H   :   -0.000083757   -0.000068306    0.000057106
   8   H   :   -0.000090856   -0.000070055   -0.000003581
   9   H   :   -0.000090557    0.000070037    0.000008513
  10   H   :   -0.000086746    0.000068297   -0.000052524
  11   H   :    0.000056682    0.000117914   -0.000024012
  12   H   :    0.000051754    0.000111781    0.000059231
  13   H   :    0.000048494   -0.000111703   -0.000062005
  14   H   :    0.000057888   -0.000117908    0.000020815

Difference to translation invariance:
           :   -0.0000000000    0.0000000000    0.0000000000

Difference to rotation invariance:
           :    0.0000000000    0.0000000000   -0.0000000000

Norm of the Dispersion gradient    ...    0.0005101871
RMS gradient                       ...    0.0000787236
MAX gradient                       ...    0.0001413837

------------------
CARTESIAN GRADIENT
------------------

   1   C   :    0.001268989    0.016076647    0.001955781
   2   N   :    0.001602173   -0.000012450   -0.000009810
   3   H   :    0.000173356   -0.000000976   -0.000004693
   4   C   :    0.001167660   -0.016087039   -0.001948394
   5   C   :    0.021260634   -0.008411533    0.003960141
   6   C   :    0.021059296    0.008485887   -0.005206523
   7   H   :   -0.008201435   -0.008300006    0.040691657
   8   H   :   -0.030109631   -0.022949824   -0.021151104
   9   H   :   -0.028903932    0.022908956    0.022794510
  10   H   :   -0.010367172    0.008289729   -0.040159628
  11   H   :    0.009224805    0.016611952   -0.013760544
  12   H   :    0.006474765    0.008105991    0.020050441
  13   H   :    0.005400951   -0.008061805   -0.020409582
  14   H   :    0.009949541   -0.016655529    0.013197748

Difference to translation invariance:
           :   -0.0000000000   -0.0000000000   -0.0000000000

Difference to rotation invariance:
           :   -0.0001480852   -0.0001591216   -0.0000602053

Norm of the Cartesian gradient     ...    0.1052345799
RMS gradient                       ...    0.0162380482
MAX gradient                       ...    0.0406916568

-------
TIMINGS
-------

Total SCF gradient time     ....        3.607 sec

Densities                   ....       0.000 sec  (  0.0%)
One electron gradient       ....       0.035 sec  (  1.0%)
RI-J Coulomb gradient       ....       0.251 sec  (  7.0%)
COSX gradient               ....       2.434 sec  ( 67.5%)
XC gradient                 ....       0.812 sec  ( 22.5%)

Maximum memory used throughout the entire SCFGRAD-calculation: 26.9 MB
------------------------------------------------------------------------------
                         ORCA GEOMETRY RELAXATION STEP
------------------------------------------------------------------------------

Reading the OPT-File                    .... done
Getting information on internals        .... done
Copying old internal coords+grads       .... done
Making the new internal coordinates     .... (2022 redundants) done
Validating the new internal coordinates .... (2022 redundants) done
Calculating the B-matrix                .... done
Calculating the G,G- and P matrices     .... done
Transforming gradient to internals      .... done
Projecting the internal gradient        .... done
Number of atoms                         ....  14
Number of internal coordinates          ....  69
Current Energy                          ....  -211.858863690 Eh
Current gradient norm                   ....     0.105234580 Eh/bohr
Maximum allowed component of the step   ....  0.300
Current trust radius                    ....  0.300
Evaluating the initial hessian          ....  (Almloef) done
Projecting the Hessian                  .... done
Forming the augmented Hessian           .... done
Diagonalizing the augmented Hessian     .... done
Last element of RFO vector              ....  0.945335128
Lowest eigenvalues of augmented Hessian:
 -0.036165774  0.011366802  0.015616653  0.019781967  0.061464551
Length of the computed step             ....  0.344957497
Warning: the length of the step is outside the trust region - taking restricted step instead
The input lambda is                     ....     0.010361
   iter:   5  x=   -0.064575  g=    0.964022 f(x)=     0.044230
   iter:  10  x=   -0.081431  g=    0.517036 f(x)=    -0.000000
The output lambda is                    ....    -0.081431 (10 iterations)
The final length of the internal step   ....  0.300000000
Converting the step to Cartesian space:
 Initial RMS(Int)=    0.0361157559
Transforming coordinates:
 Iter   0:  RMS(Cart)=    0.0572254690 RMS(Int)=    0.0361042978
done
Storing new coordinates                 .... done

                                .--------------------.
          ----------------------|Geometry convergence|-------------------------
          Item                value                   Tolerance       Converged
          ---------------------------------------------------------------------
          RMS gradient        0.0126617363            0.0001000000      NO
          MAX gradient        0.0433578462            0.0003000000      NO
          RMS step            0.0361157559            0.0020000000      NO
          MAX step            0.1275617782            0.0040000000      NO
          ........................................................
          Max(Bonds)      0.0675      Max(Angles)    0.76
          Max(Dihed)        0.40      Max(Improp)    0.00
          ---------------------------------------------------------------------

The optimization has not yet converged - more geometry cycles are needed


    ---------------------------------------------------------------------------
                         Redundant Internal Coordinates
                            (Angstroem and degrees)

        Definition                    Value    dE/dq     Step     New-Value
    ----------------------------------------------------------------------------
     1. B(N   1,C   0)                1.4313  0.004934 -0.0049    1.4264   
     2. B(H   2,N   1)                1.0260  0.000173 -0.0002    1.0258   
     3. B(C   3,N   1)                1.4313  0.004880 -0.0049    1.4264   
     4. B(C   4,C   3)                1.5604  0.018400 -0.0234    1.5370   
     5. B(C   5,C   4)                1.5905  0.027556 -0.0378    1.5527   
     6. B(C   5,C   0)                1.5603  0.018528 -0.0235    1.5368   
     7. B(H   6,C   5)                1.1831  0.042283 -0.0664    1.1167   
     8. B(H   7,C   5)                1.1803  0.043358 -0.0675    1.1128   
     9. B(H   8,C   4)                1.1802  0.043353 -0.0675    1.1128   
    10. B(H   9,C   4)                1.1830  0.042244 -0.0663    1.1168   
    11. B(H  10,C   3)                1.1492  0.023451 -0.0334    1.1158   
    12. B(H  11,C   3)                1.1585  0.022424 -0.0328    1.1257   
    13. B(H  12,C   0)                1.1586  0.022448 -0.0329    1.1257   
    14. B(H  13,C   0)                1.1491  0.023453 -0.0334    1.1157   
    15. A(C   5,C   0,H  12)          114.77  0.002245   -0.44    114.33   
    16. A(C   5,C   0,H  13)          116.61 -0.000387    0.04    116.65   
    17. A(N   1,C   0,H  12)          106.78 -0.001696    0.31    107.09   
    18. A(N   1,C   0,C   5)          104.24  0.000930   -0.20    104.04   
    19. A(H  12,C   0,H  13)          104.29 -0.000912    0.24    104.53   
    20. A(N   1,C   0,H  13)          109.81 -0.000400    0.10    109.92   
    21. A(C   0,N   1,C   3)          116.06  0.005410   -0.76    115.30   
    22. A(H   2,N   1,C   3)          121.97 -0.002705    0.38    122.35   
    23. A(C   0,N   1,H   2)          121.97 -0.002704    0.38    122.35   
    24. A(H  10,C   3,H  11)          104.29 -0.001112    0.25    104.54   
    25. A(C   4,C   3,H  11)          114.79  0.002630   -0.48    114.31   
    26. A(N   1,C   3,H  11)          106.79 -0.001601    0.29    107.09   
    27. A(C   4,C   3,H  10)          116.58 -0.000429    0.05    116.64   
    28. A(N   1,C   3,H  10)          109.79 -0.000469    0.11    109.90   
    29. A(N   1,C   3,C   4)          104.25  0.000769   -0.19    104.07   
    30. A(C   3,C   4,H   9)          109.74  0.000115   -0.05    109.70   
    31. A(C   5,C   4,H   8)          112.87  0.000804   -0.12    112.75   
    32. A(C   3,C   4,H   8)          112.41  0.001616   -0.21    112.21   
    33. A(C   3,C   4,C   5)          103.03 -0.003603    0.59    103.61   
    34. A(H   8,C   4,H   9)          106.80 -0.001889    0.27    107.06   
    35. A(C   5,C   4,H   9)          112.06  0.003113   -0.51    111.55   
    36. A(C   0,C   5,C   4)          103.03 -0.003966    0.63    103.66   
    37. A(H   6,C   5,H   7)          106.78 -0.000796    0.15    106.93   
    38. A(C   4,C   5,H   7)          112.89  0.000742   -0.10    112.79   
    39. A(C   0,C   5,H   7)          112.42  0.001211   -0.17    112.25   
    40. A(C   4,C   5,H   6)          112.05  0.002458   -0.46    111.59   
    41. A(C   0,C   5,H   6)          109.73  0.000433   -0.06    109.67   
    42. D(H   2,N   1,C   0,H  12)    -68.11  0.001113   -0.27    -68.37   
    43. D(C   3,N   1,C   0,H  12)    111.85  0.001245   -0.29    111.55   
    44. D(C   3,N   1,C   0,C   5)    -10.03 -0.000993    0.18     -9.85   
    45. D(H   2,N   1,C   0,H  13)     44.39 -0.001013    0.22     44.61   
    46. D(H   2,N   1,C   0,C   5)    170.02 -0.001126    0.20    170.22   
    47. D(H  11,C   3,N   1,C   0)    112.06  0.001843   -0.40    111.66   
    48. D(C   4,C   3,N   1,C   0)     -9.85 -0.000803    0.11     -9.74   
    49. D(H  10,C   3,N   1,H   2)     44.50 -0.000365    0.08     44.58   
    50. D(H  10,C   3,N   1,C   0)   -135.45 -0.000498    0.10   -135.34   
    51. D(C   4,C   3,N   1,H   2)    170.11 -0.000670    0.08    170.19   
    52. D(H   8,C   4,C   3,N   1)    146.60 -0.000133    0.09    146.70   
    53. D(C   5,C   4,C   3,H  10)    145.99  0.000027    0.01    146.00   
    54. D(C   5,C   4,C   3,N   1)     24.81  0.000312   -0.03     24.78   
    55. D(H   8,C   4,C   3,H  10)    -92.21 -0.000418    0.13    -92.09   
    56. D(C   5,C   4,C   3,H  11)    -91.66  0.000413   -0.01    -91.68   
    57. D(H   8,C   4,C   3,H  11)     30.13 -0.000032    0.10     30.24   
    58. D(H   6,C   5,C   4,H   9)   -154.61 -0.000210   -0.05   -154.66   
    59. D(H   6,C   5,C   4,C   3)     87.49  0.000265   -0.09     87.40   
    60. D(C   0,C   5,C   4,H   9)     87.51  0.000412   -0.12     87.39   
    61. D(C   0,C   5,C   4,H   8)   -151.88  0.000802   -0.23   -152.10   
    62. D(C   0,C   5,C   4,C   3)    -30.39  0.000887   -0.16    -30.55   
    63. D(H   6,C   5,C   0,H  13)     26.62 -0.000623    0.17     26.79   
    64. D(H   6,C   5,C   0,H  12)    148.97 -0.000258    0.16    149.13   
    65. D(H   6,C   5,C   0,N   1)    -94.60 -0.000571    0.17    -94.43   
    66. D(C   4,C   5,C   0,H  13)    146.12  0.000281   -0.05    146.07   
    67. D(H   6,C   5,C   4,H   8)    -33.99  0.000180   -0.15    -34.15   
    68. D(C   4,C   5,C   0,H  12)    -91.53  0.000646   -0.07    -91.59   
    69. D(C   4,C   5,C   0,N   1)     24.91  0.000333   -0.05     24.85   
    ----------------------------------------------------------------------------

Geometry step timings:
Preparation and reading OPT file:      0.002 s ( 8.143 %)
Internal coordinates            :      0.000 s ( 0.154 %)
B/P matrices and projection     :      0.001 s ( 2.984 %)
Hessian update/contruction      :      0.015 s (51.795 %)
Making the step                 :      0.001 s ( 3.978 %)
Converting the step to Cartesian:      0.000 s ( 0.458 %)
Storing new data                :      0.005 s (15.557 %)
Checking convergence            :      0.000 s ( 0.033 %)
Final printing                  :      0.005 s (16.858 %)
Total time                      :      0.030 s

Time for energy+gradient        :     37.397 s
Time for complete geometry iter :     39.642 s

         *************************************************************
         *                GEOMETRY OPTIMIZATION CYCLE   2            *
         *************************************************************
---------------------------------
CARTESIAN COORDINATES (ANGSTROEM)
---------------------------------
  C      0.330320   -1.199130   -0.130972
  N      1.096435    0.000052   -0.033925
  H      2.121887    0.000168   -0.061595
  C      0.336406    1.199320    0.102662
  C     -1.112021    0.755106   -0.156514
  C     -1.101802   -0.754710    0.205734
  H     -1.300372   -0.917880    1.292504
  H     -1.866551   -1.337544   -0.354366
  H     -1.844580    1.337184    0.445779
  H     -1.368915    0.917339   -1.231148
  H      0.746203    1.987696   -0.572205
  H      0.521894    1.591974    1.141174
  H      0.460186   -1.590683   -1.178378
  H      0.775504   -1.988308    0.520045

----------------------------
CARTESIAN COORDINATES (A.U.)
----------------------------
  NO LB      ZA    FRAG     MASS         X           Y           Z
   0 C     6.0000    0    12.011    0.624213   -2.266028   -0.247502
   1 N     7.0000    0    14.007    2.071962    0.000098   -0.064110
   2 H     1.0000    0     1.008    4.009784    0.000317   -0.116398
   3 C     6.0000    0    12.011    0.635714    2.266386    0.194004
   4 C     6.0000    0    12.011   -2.101415    1.426944   -0.295768
   5 C     6.0000    0    12.011   -2.082103   -1.426194    0.388782
   6 H     1.0000    0     1.008   -2.457347   -1.734542    2.442478
   7 H     1.0000    0     1.008   -3.527271   -2.527592   -0.669654
   8 H     1.0000    0     1.008   -3.485751    2.526912    0.842401
   9 H     1.0000    0     1.008   -2.586875    1.733519   -2.326533
  10 H     1.0000    0     1.008    1.410120    3.756202   -1.081310
[...]
     38       0.065611  -0.021347  -0.019062   0.643765  -0.670086  -0.090737
     39      -0.082177   0.039640  -0.019985  -0.050045   0.044200  -0.303541
     40      -0.230899   0.089236   0.019662   0.092888  -0.068951   0.557002
     41      -0.177364   0.046779   0.058002  -0.094910   0.074355  -0.428466
                 36         37         38         39         40         41    
      0      -0.018691  -0.007897   0.004812   0.000683   0.000141  -0.001016
      1       0.031101   0.011495  -0.006343  -0.000840  -0.000193  -0.002495
      2      -0.035447  -0.012925   0.009172  -0.001489   0.001704  -0.000495
      3      -0.000227   0.000304  -0.000002   0.001123  -0.000004   0.075190
      4       0.000092   0.000006   0.000237  -0.000002  -0.000325   0.000010
      5      -0.000049  -0.000013  -0.000184  -0.000031   0.000053  -0.002119
      6       0.001696  -0.006372   0.000031   0.000830   0.000018  -0.996658
      7       0.004994  -0.000073  -0.000551  -0.000009  -0.001766  -0.000155
      8       0.007973   0.000071  -0.000688  -0.000022   0.000693   0.028134
      9       0.023216  -0.007819  -0.004316   0.000760  -0.000061  -0.000990
     10       0.043603  -0.012635  -0.006437   0.000831  -0.000213   0.002495
     11      -0.048343   0.014653   0.009423   0.001472   0.001703   0.000550
     12       0.006283   0.025465   0.029532  -0.034565  -0.030749  -0.000614
     13      -0.005398  -0.017996  -0.019411   0.028635   0.025232   0.000316
     14       0.010905   0.041126   0.034809   0.048960   0.052913  -0.000279
     15      -0.002999   0.022480  -0.028447  -0.036763   0.033896  -0.000599
     16      -0.002992   0.017501  -0.020062  -0.028365   0.025516  -0.000316
     17       0.005314  -0.041427   0.037789  -0.046537   0.051710   0.000311
     18       0.008865  -0.084310   0.083642  -0.036574   0.048605   0.000262
     19       0.008466  -0.059516   0.062534  -0.025669   0.037360   0.000611
     20      -0.080884   0.602226  -0.610009   0.245606  -0.322385  -0.001823
     21       0.026125  -0.168519   0.233966   0.459060  -0.439265  -0.000012
     22       0.019406  -0.131220   0.175743   0.350526  -0.335930   0.000397
     23       0.019057  -0.122042   0.163828   0.307054  -0.294701  -0.000345
     24      -0.046278  -0.167437  -0.218684   0.446495   0.418450   0.000003
     25       0.036856   0.135625   0.170702  -0.354041  -0.332361  -0.000395
     26       0.037994   0.135387   0.171208  -0.334736  -0.314627   0.000344
     27      -0.028945  -0.119608  -0.112137  -0.050248  -0.065172   0.000358
     28       0.016811   0.061249   0.060492   0.026022   0.037057  -0.000611
     29      -0.164203  -0.612780  -0.583512  -0.245960  -0.316101   0.001792
     30      -0.285566   0.086385   0.049352   0.001389   0.002791  -0.003686
     31      -0.564738   0.165957   0.091383   0.002500   0.006535  -0.007337
     32       0.451306  -0.132578  -0.074379  -0.002432  -0.005972   0.003018
     33       0.022479  -0.008404  -0.008155  -0.003073  -0.003663  -0.001570
     34       0.054001  -0.021154  -0.015650  -0.005979  -0.006308  -0.001288
     35       0.120066  -0.050189  -0.039219  -0.015657  -0.014411  -0.004393
     36      -0.013111  -0.005172   0.006109  -0.002204   0.002906  -0.001336
     37       0.041524   0.019570  -0.015842   0.005937  -0.006378   0.001314
     38       0.098371   0.046683  -0.040214   0.015649  -0.014734   0.004489
     39       0.224850   0.085160  -0.052944   0.001456  -0.003060  -0.003837
     40      -0.408777  -0.151029   0.090524  -0.002368   0.006438   0.007319
     41       0.316169   0.116394  -0.071092   0.002248  -0.005751  -0.002810


-----------
IR SPECTRUM
-----------

 Mode   freq       eps      Int      T**2         TX        TY        TZ
       cm**-1   L/(mol*cm) km/mol    a.u.
----------------------------------------------------------------------------
  6:    213.76   0.000177    0.89  0.000258  ( 0.000233 -0.016009  0.001315)
  7:    217.85   0.000164    0.83  0.000235  (-0.015332 -0.000235  0.000420)
  8:    555.35   0.010880   54.98  0.006113  ( 0.002230 -0.004120  0.078048)
  9:    616.30   0.003179   16.07  0.001610  (-0.001222  0.003303 -0.039966)
 10:    674.14   0.000221    1.12  0.000102  (-0.010104  0.000006  0.000304)
 11:    816.95   0.000466    2.35  0.000178  ( 0.013334 -0.000018 -0.000373)
 12:    856.40   0.000997    5.04  0.000363  ( 0.000459  0.004763  0.018454)
 13:    894.70   0.000905    4.57  0.000316  ( 0.000132 -0.017517  0.002970)
 14:    935.94   0.000768    3.88  0.000256  ( 0.015994 -0.000088 -0.000442)
 15:    942.50   0.000001    0.00  0.000000  ( 0.000540  0.000011 -0.000012)
 16:    950.63   0.003881   19.61  0.001274  ( 0.000104  0.035632  0.002067)
 17:   1028.85   0.000027    0.14  0.000008  ( 0.002870 -0.000013 -0.000065)
 18:   1063.27   0.000003    0.02  0.000001  ( 0.000894 -0.000416 -0.000123)
 19:   1070.50   0.008051   40.68  0.002347  ( 0.000312  0.046899  0.012132)
 20:   1162.82   0.001164    5.88  0.000312  (-0.000414  0.010733 -0.014036)
 21:   1184.52   0.000561    2.84  0.000148  ( 0.012157 -0.000001 -0.000356)
 22:   1223.72   0.000535    2.71  0.000137  ( 0.011678  0.000038 -0.000363)
 23:   1248.32   0.000778    3.93  0.000195  (-0.000316  0.007680 -0.011640)
 24:   1290.69   0.000927    4.68  0.000224  ( 0.000042  0.014667  0.002988)
 25:   1320.43   0.001388    7.02  0.000328  (-0.000109 -0.017480 -0.004751)
 26:   1349.84   0.000508    2.57  0.000117  (-0.010834 -0.000169  0.000215)
 27:   1378.18   0.000381    1.92  0.000086  (-0.009277 -0.000371  0.000093)
 28:   1387.11   0.009885   49.95  0.002224  (-0.000534 -0.043232 -0.018831)
 29:   1394.88   0.001288    6.51  0.000288  (-0.016963  0.000305  0.000560)
 30:   1455.74   0.009200   46.49  0.001972  (-0.000006 -0.044406 -0.000420)
 31:   1477.31   0.001908    9.64  0.000403  ( 0.000555 -0.004570  0.019543)
 32:   1488.75   0.001801    9.10  0.000378  ( 0.019422  0.000030 -0.000564)
 33:   2944.27   0.016317   82.46  0.001729  ( 0.000258  0.037899  0.017118)
 34:   2952.85   0.001493    7.54  0.000158  (-0.012545 -0.000603  0.000080)
 35:   3078.81   0.000125    0.63  0.000013  (-0.000091  0.002775 -0.002228)
 36:   3080.05   0.004379   22.13  0.000444  ( 0.000349 -0.016298  0.013341)
 37:   3088.99   0.000001    0.00  0.000000  (-0.000167  0.000232 -0.000098)
 38:   3094.27   0.000209    1.06  0.000021  ( 0.000124  0.002103  0.004081)
 39:   3167.82   0.000141    0.71  0.000014  ( 0.003728 -0.000009 -0.000115)
 40:   3172.13   0.000124    0.62  0.000012  (-0.000099 -0.002312 -0.002608)
 41:   3493.61   0.024209  122.34  0.002162  (-0.046483 -0.000013  0.001316)

* The epsilon (eps) is given for a Dirac delta lineshape.
** The dipole moment derivative (T) already includes vibrational overlap.

The first frequency considered to be a vibration is 6
The total number of vibrations considered is 36


--------------------------
THERMOCHEMISTRY AT 298.15K
--------------------------

Temperature         ...   298.15 K
Pressure            ...     1.00 atm
Total Mass          ...    71.12 AMU
Quasi RRHO          ...     True
Cut-Off Frequency   ...     1.00 cm^-1

Throughout the following assumptions are being made:
  (1) The electronic state is orbitally nondegenerate
      but the spin degeneracy is treated
  (2) There are no thermally accessible electronically excited states
  (3) Hindered rotations indicated by low frequency modes are not
      treated as such but are treated as vibrations and this may
      cause some error
  (4) All equations used are the standard statistical mechanics
      equations for an ideal gas
  (5) All vibrations are strictly harmonic

freq.     213.76  E(vib)   ...       0.34 
freq.     217.85  E(vib)   ...       0.33 
freq.     555.35  E(vib)   ...       0.12 
freq.     616.30  E(vib)   ...       0.09 
freq.     674.14  E(vib)   ...       0.08 
freq.     816.95  E(vib)   ...       0.05 
freq.     856.40  E(vib)   ...       0.04 
freq.     894.70  E(vib)   ...       0.03 
freq.     935.94  E(vib)   ...       0.03 
freq.     942.50  E(vib)   ...       0.03 
freq.     950.63  E(vib)   ...       0.03 
freq.    1028.85  E(vib)   ...       0.02 
freq.    1063.27  E(vib)   ...       0.02 
freq.    1070.50  E(vib)   ...       0.02 
freq.    1162.82  E(vib)   ...       0.01 
freq.    1184.52  E(vib)   ...       0.01 
freq.    1223.72  E(vib)   ...       0.01 
freq.    1248.32  E(vib)   ...       0.01 
freq.    1290.69  E(vib)   ...       0.01 
freq.    1320.43  E(vib)   ...       0.01 
freq.    1349.84  E(vib)   ...       0.01 
freq.    1378.18  E(vib)   ...       0.01 
freq.    1387.11  E(vib)   ...       0.00 
freq.    1394.88  E(vib)   ...       0.00 
freq.    1455.74  E(vib)   ...       0.00 
freq.    1477.31  E(vib)   ...       0.00 
freq.    1488.75  E(vib)   ...       0.00 
freq.    2944.27  E(vib)   ...       0.00 
freq.    2952.85  E(vib)   ...       0.00 
freq.    3078.81  E(vib)   ...       0.00 
freq.    3080.05  E(vib)   ...       0.00 
freq.    3088.99  E(vib)   ...       0.00 
freq.    3094.27  E(vib)   ...       0.00 
freq.    3167.82  E(vib)   ...       0.00 
freq.    3172.13  E(vib)   ...       0.00 
freq.    3493.61  E(vib)   ...       0.00 

------------
INNER ENERGY
------------

The inner energy is: U= E(el) + E(ZPE) + E(vib) + E(rot) + E(trans)
    E(el)   - is the total energy from the electronic structure calculation
              = E(kin-el) + E(nuc-el) + E(el-el) + E(nuc-nuc)
    E(ZPE)  - the the zero temperature vibrational energy from the frequency calculation
    E(vib)  - the the finite temperature correction to E(ZPE) due to population
              of excited vibrational states
    E(rot)  - is the rotational thermal energy
    E(trans)- is the translational thermal energy

Summary of contributions to the inner energy U:
Electronic energy                ...   -211.87985985 Eh
Zero point energy                ...      0.12819757 Eh      80.45 kcal/mol
Thermal vibrational correction   ...      0.00209100 Eh       1.31 kcal/mol
Thermal rotational correction    ...      0.00141627 Eh       0.89 kcal/mol
Thermal translational correction ...      0.00141627 Eh       0.89 kcal/mol
-----------------------------------------------------------------------
Total thermal energy                   -211.74673873 Eh


Summary of corrections to the electronic energy:
(perhaps to be used in another calculation)
Total thermal correction                  0.00492354 Eh       3.09 kcal/mol
Non-thermal (ZPE) correction              0.12819757 Eh      80.45 kcal/mol
-----------------------------------------------------------------------
Total correction                          0.13312111 Eh      83.53 kcal/mol


--------
ENTHALPY
--------

The enthalpy is H = U + kB*T
                kB is Boltzmann's constant
Total thermal energy              ...   -211.74673873 Eh 
Thermal Enthalpy correction       ...      0.00094421 Eh       0.59 kcal/mol
-----------------------------------------------------------------------
Total Enthalpy                    ...   -211.74579453 Eh


Note: Only C1 symmetry has been detected, increase convergence thresholds 
      if your molecule has a higher symmetry. Symmetry factor of 1.0 is   
      used for the rotational entropy correction. 
 

Note: Rotational entropy computed according to Herzberg 
Infrared and Raman Spectra, Chapter V,1, Van Nostrand Reinhold, 1945 
Point Group:  C1, Symmetry Number:   1  
Rotational constants in cm-1:     0.231930     0.228924     0.129807 

Vibrational entropy computed according to the QRRHO of S. Grimme
Chem.Eur.J. 2012 18 9955 using a reference frequency of 100.0 cm-1


-------
ENTROPY
-------

The entropy contributions are T*S = T*(S(el)+S(vib)+S(rot)+S(trans))
     S(el)   - electronic entropy
     S(vib)  - vibrational entropy
     S(rot)  - rotational entropy
     S(trans)- translational entropy
The entropies will be listed as multiplied by the temperature to get
units of energy

Electronic entropy                ...      0.00065446 Eh      0.41 kcal/mol
Vibrational entropy               ...      0.00318827 Eh      2.00 kcal/mol
Rotational entropy                ...      0.01186059 Eh      7.44 kcal/mol
Translational entropy             ...      0.01838863 Eh     11.54 kcal/mol
-----------------------------------------------------------------------
Final entropy term                ...      0.03409195 Eh     21.39 kcal/mol

In case the symmetry of your molecule has not been determined correctly
or in case you have a reason to use a different symmetry number we print 
out the resulting rotational entropy values for sn=1,12:

 non-linear molecules -----------------------------------
|  sn= 1 | S(rot)=       0.01186059 Eh      7.44 kcal/mol|
|  sn= 2 | S(rot)=       0.01120613 Eh      7.03 kcal/mol|
|  sn= 3 | S(rot)=       0.01082330 Eh      6.79 kcal/mol|
|  sn= 4 | S(rot)=       0.01055168 Eh      6.62 kcal/mol|
|  sn= 5 | S(rot)=       0.01034099 Eh      6.49 kcal/mol|
|  sn= 6 | S(rot)=       0.01016885 Eh      6.38 kcal/mol|
|  sn= 7 | S(rot)=       0.01002330 Eh      6.29 kcal/mol|
|  sn= 8 | S(rot)=       0.00989722 Eh      6.21 kcal/mol|
|  sn= 9 | S(rot)=       0.00978601 Eh      6.14 kcal/mol|
|  sn=10 | S(rot)=       0.00968653 Eh      6.08 kcal/mol|
|  sn=11 | S(rot)=       0.00959654 Eh      6.02 kcal/mol|
|  sn=12 | S(rot)=       0.00951439 Eh      5.97 kcal/mol|
 linear molecules ---------------------------------------
|  Dinfh | S(rot)=       0.00725355 Eh      4.55 kcal/mol|
|  Cinfv | S(rot)=       0.00790800 Eh      4.96 kcal/mol|
 --------------------------------------------------------


-------------------
GIBBS FREE ENERGY
-------------------

The Gibbs free energy is G = H - T*S

Total enthalpy                    ...   -211.74579453 Eh 
Total entropy correction          ...     -0.03409195 Eh    -21.39 kcal/mol
-----------------------------------------------------------------------
Final Gibbs free energy         ...   -211.77988648 Eh

For completeness - the Gibbs free energy minus the electronic energy
G-E(el)                           ...      0.09997337 Eh     62.73 kcal/mol


Maximum memory used throughout the entire PROP-calculation: 41.5 MB

--------------------------------
SUGGESTED CITATIONS FOR THIS RUN
--------------------------------

Below you find a list of papers that are relevant to this ORCA run
We neither can nor want to force you to cite these papers, but we appreciate if you do
You receive ORCA, which is the product of decades of hard work by many enthusiastic individuals, for free
The only thing we kindly ask in return is that you cite our papers,
We deeply appreciate it, if you show your appreciation for ORCA by not just citing the generic ORCA reference.

Please note that relegating all ORCA citations to the supporting information does *not* help us.
SI sections are not indexed - citations you put there will not count into any citation statistics
But we need these citations in order to attract the funding resources that allow us to do what we are doing

Therefore, if you are a happy ORCA user, please consider citing a few of the papers listed below in the main body of your paper

In addition to the list printed below, the program has created the file cs_rporg_072_ox_opt_01.bibtex that contains the list in bibtex format
You can import this file easily into all common literature databanks and citation aid programs


List of essential papers. We consider these as the minimum necessary citations

  1. Neese,F.
     Software update: the ORCA program system, version 5.0
     WIRES Comput. Molec. Sci., 2022 12(1)e1606
     doi.org/10.1002/wcms.1606

List of papers to cite with high priority. The work reported in these papers was absolutely
necessary for this run to complete.
Our perspective: the developers of density functionals and basis sets usually get cited in chemistry papers
Good! But without the algorithms to do something with them, the functionals or basis sets would not do anything.
Hence, in our opinion, the algorithm design and method developments papers are equally worthy of getting cited

  1. Neese,F.
     An improvement of the resolution of the identity approximation for the formation of the Coulomb matrix
     J. Comp. Chem., 2003 24(14)1740-1747
     doi.org/10.1002/jcc.10318
  2. Neese,F.; Wennmohs,F.; Hansen,A.; Becker,U.
     Efficient, approximate and parallel Hartree-Fock and hybrid DFT calculations. A 'chain-of-spheres' algorithm for the Hartree-Fock exchange
     Chem. Phys., 2009 356(1-3)98-109
     doi.org/10.1016/j.chemphys.2008.10.036
  3. Bykov,D.; Petrenko,T.; Izsak,R.; Kossmann,S.; Becker,U.; Valeev,E.; Neese,F.
     Efficient implementation of the analytic second derivatives of Hartree-Fock and hybrid DFT energies: a detailed analysis of different approximations
     Molec. Phys., 2015 113 1961-1977
     doi.org/10.1080/00268976.2015.1025114
  4. Helmich-Paris,B.; de Souza,B.; Neese,F.; Izsák,R.
     An improved chain of spheres for exchange algorithm
     J. Chem. Phys., 2021 155 104109
     doi.org/doi: 10.1063/5.0058766.
  5. Neese,F.
     The SHARK Integral Generation and Digestion System
     J. Comp. Chem., 2022  1-16
     doi.org/10.1002/jcc.26942
  6. Grimme,S.; Antony,J.; Ehrlich,S.; Krieg,H.
     A consistent and accurate ab initio parametrization of density functional dispersion correction (DFT-D) for the 94 elements H-Pu
     J. Chem. Phys., 2010 132 154104-XXXX
     doi.org/10.1063/1.3382344
  7. Grimme,S.; Ehrlich,S.; Goerigk,L.
     Effect of the damping function in dispersion corrected density functional theory
     J. Comput. Chem., 2011 32(7)1456-1465
     doi.org/10.1002/jcc.21759

List of suggested additional citations. These are papers that are important in the 'surrounding' of 
of this run, or papers that preceded the highly important papers. If you like your results we are grateful for a citation.

  1. Izsak,R.; Neese,F.
     An overlap fitted chain of spheres exchange method
     J. Chem. Phys., 2011 135 144105
     doi.org/10.1063/1.3646921
  2. Izsak,R.; Hansen,A.; Neese,F.
     The resolution of identity and chain of spheres approximations for the LPNO-CCSD singles Fock term
     Molec. Phys., 2012 110 2413-2417
     doi.org/10.1080/00268976.2012.687466
  3. Neese,F.
     The ORCA program system
     WIRES Comput. Molec. Sci., 2012 2(1)73-78
     doi.org/10.1002/wcms.81
  4. Izsak,R.; Neese,F.; Klopper,W.
     Robust fitting techniques in the chain of spheres approximation to the Fock exchange: The role of the complementary space
     J. Chem. Phys., 2013 139 
     doi.org/10.1063/1.4819264
  5. Neese,F.
     Software update: the ORCA program system, version 4.0
     WIRES Comput. Molec. Sci., 2018 8(1)1-6
     doi.org/10.1002/wcms.1327
  6. Neese,F.; Wennmohs,F.; Becker,U.; Riplinger,C.
     The ORCA quantum chemistry program package
     J. Chem. Phys., 2020 152 Art. No. L224108
     doi.org/10.1063/5.0004608

List of optional additional citations

  1. Neese,F.
     Approximate second-order SCF convergence for spin unrestricted wavefunctions
     Chem. Phys. Lett., 2000 325(1-3)93-98
     doi.org/10.1016/s0009-2614(00)00662-x

Timings for individual modules:

Sum of individual times          ...      294.099 sec (=   4.902 min)
Startup calculation              ...       23.641 sec (=   0.394 min)   8.0 %
SCF iterations                   ...      135.805 sec (=   2.263 min)  46.2 %
Property integrals               ...       27.662 sec (=   0.461 min)   9.4 %
SCF Response                     ...       37.851 sec (=   0.631 min)  12.9 %
Property calculations            ...       31.393 sec (=   0.523 min)  10.7 %
SCF Gradient evaluation          ...       37.422 sec (=   0.624 min)  12.7 %
Geometry relaxation              ...        0.324 sec (=   0.005 min)   0.1 %
                             ****ORCA TERMINATED NORMALLY****
TOTAL RUN TIME: 0 days 0 hours 5 minutes 16 seconds 73 msec
