 vasp.5.4.4.18Apr17-6-g9f103f2a35 (build Nov 09 2017 14:00:25) complex          
  
 executed on             LinuxIFC date 2024.09.30  10:29:04
 running on   48 total cores
 distrk:  each k-point on   48 cores,    1 groups
 distr:  one band on NCORES_PER_BAND=  24 cores,    2 groups


--------------------------------------------------------------------------------------------------------


 INCAR:
 POTCAR:    PAW_PBE C 08Apr2002                   
 POTCAR:    PAW_PBE N 08Apr2002                   
 POTCAR:    PAW_PBE S 06Sep2000                   
 POTCAR:    PAW_PBE H 15Jun2001                   

 ----------------------------------------------------------------------------- 
|                                                                             |
|           W    W    AA    RRRRR   N    N  II  N    N   GGGG   !!!           |
|           W    W   A  A   R    R  NN   N  II  NN   N  G    G  !!!           |
|           W    W  A    A  R    R  N N  N  II  N N  N  G       !!!           |
|           W WW W  AAAAAA  RRRRR   N  N N  II  N  N N  G  GGG   !            |
|           WW  WW  A    A  R   R   N   NN  II  N   NN  G    G                |
|           W    W  A    A  R    R  N    N  II  N    N   GGGG   !!!           |
|                                                                             |
|      For optimal performance we recommend to set                            |
|        NCORE= 4 - approx SQRT( number of cores)                             |
|      NCORE specifies how many cores store one orbital (NPAR=cpu/NCORE).     |
|      This setting can  greatly improve the performance of VASP for DFT.     |
|      The default,   NCORE=1            might be grossly inefficient         |
|      on modern multi-core architectures or massively parallel machines.     |
|      Do your own testing !!!!                                               |
|      Unfortunately you need to use the default for GW and RPA calculations. |
|      (for HF NCORE is supported but not extensively tested yet)             |
|                                                                             |
 ----------------------------------------------------------------------------- 

 POTCAR:    PAW_PBE C 08Apr2002                   
   VRHFIN =C: s2p2                                                              
   LEXCH  = PE                                                                  
   EATOM  =   147.1560 eV,   10.8157 Ry                                         
                                                                                
   TITEL  = PAW_PBE C 08Apr2002                                                 
   LULTRA =        F    use ultrasoft PP ?                                      
   IUNSCR =        1    unscreen: 0-lin 1-nonlin 2-no                           
   RPACOR =    1.200    partial core radius                                     
   POMASS =   12.011; ZVAL   =    4.000    mass and valenz                      
   RCORE  =    1.500    outmost cutoff radius                                   
   RWIGS  =    1.630; RWIGS  =    0.863    wigner-seitz radius (au A)           
   ENMAX  =  400.000; ENMIN  =  300.000 eV                                      
   ICORE  =        2    local potential                                         
   LCOR   =        T    correct aug charges                                     
   LPAW   =        T    paw PP                                                  
   EAUG   =  644.873                                                            
   DEXC   =    0.000                                                            
   RMAX   =    1.529    core radius for proj-oper                               
   RAUG   =    1.300    factor for augmentation sphere                          
   RDEP   =    1.501    radius for radial grids                                 
   RDEPT  =    1.300    core radius for aug-charge                              
                                                                                
   Atomic configuration                                                         
    4 entries                                                                   
     n  l   j            E        occ.                                          
     1  0  0.50      -273.3789   2.0000                                         
     2  0  0.50       -13.7508   2.0000                                         
     2  1  0.50        -5.2854   2.0000                                         
     3  2  1.50        -5.4423   0.0000                                         
   Description                                                                  
     l       E           TYP  RCUT    TYP  RCUT                                 
     0    -13.7508458     23  1.200                                             
     0     -8.2022199     23  1.200                                             
     1     -5.2854383     23  1.500                                             
     1     34.0145650     23  1.500                                             
     2     -5.4423304      7  1.500                                             
  local pseudopotential read in
  partial core-charges read in
  partial kinetic energy density read in
  atomic valenz-charges read in
  non local Contribution for L=           0  read in
    real space projection operators read in
  non local Contribution for L=           0  read in
    real space projection operators read in
  non local Contribution for L=           1  read in
    real space projection operators read in
  non local Contribution for L=           1  read in
    real space projection operators read in
    PAW grid and wavefunctions read in
 
   number of l-projection  operators is LMAX  =           4
   number of lm-projection operators is LMMAX =           8
 
 POTCAR:    PAW_PBE N 08Apr2002                   
   VRHFIN =N: s2p3                                                              
   LEXCH  = PE                                                                  
   EATOM  =   264.5486 eV,   19.4438 Ry                                         
                                                                                
   TITEL  = PAW_PBE N 08Apr2002                                                 
   LULTRA =        F    use ultrasoft PP ?                                      
   IUNSCR =        1    unscreen: 0-lin 1-nonlin 2-no                           
   RPACOR =    1.200    partial core radius                                     
   POMASS =   14.001; ZVAL   =    5.000    mass and valenz                      
   RCORE  =    1.500    outmost cutoff radius                                   
   RWIGS  =    1.400; RWIGS  =    0.741    wigner-seitz radius (au A)           
   ENMAX  =  400.000; ENMIN  =  300.000 eV                                      
   ICORE  =        2    local potential                                         
   LCOR   =        T    correct aug charges                                     
   LPAW   =        T    paw PP                                                  
   EAUG   =  627.112                                                            
   DEXC   =    0.000                                                            
   RMAX   =    1.529    core radius for proj-oper                               
   RAUG   =    1.300    factor for augmentation sphere                          
   RDEP   =    1.514    radius for radial grids                                 
   RDEPT  =    1.338    core radius for aug-charge                              
                                                                                
   Atomic configuration                                                         
    4 entries                                                                   
     n  l   j            E        occ.                                          
     1  0  0.50      -384.7179   2.0000                                         
     2  0  0.50       -18.5828   2.0000                                         
     2  1  0.50        -7.0898   3.0000                                         
     3  2  1.50        -6.8029   0.0000                                         
   Description                                                                  
     l       E           TYP  RCUT    TYP  RCUT                                 
     0    -18.5828119     23  1.200                                             
     0    -13.5018863     23  1.200                                             
     1     -7.0897853     23  1.500                                             
     1      9.5240782     23  1.500                                             
     2     -6.8029130      7  1.500                                             
  local pseudopotential read in
  partial core-charges read in
  partial kinetic energy density read in
  atomic valenz-charges read in
  non local Contribution for L=           0  read in
    real space projection operators read in
  non local Contribution for L=           0  read in
    real space projection operators read in
  non local Contribution for L=           1  read in
    real space projection operators read in
  non local Contribution for L=           1  read in
    real space projection operators read in
    PAW grid and wavefunctions read in
 
   number of l-projection  operators is LMAX  =           4
   number of lm-projection operators is LMMAX =           8
 
 POTCAR:    PAW_PBE S 06Sep2000                   
   VRHFIN =S : s2p4                                                             
   LEXCH  = PE                                                                  
   EATOM  =   276.8230 eV,   20.3459 Ry                                         
                                                                                
   TITEL  = PAW_PBE S 06Sep2000                                                 
   LULTRA =        F    use ultrasoft PP ?                                      
   IUNSCR =        1    unscreen: 0-lin 1-nonlin 2-no                           
   RPACOR =    1.500    partial core radius                                     
   POMASS =   32.066; ZVAL   =    6.000    mass and valenz                      
   RCORE  =    1.900    outmost cutoff radius                                   
   RWIGS  =    2.200; RWIGS  =    1.164    wigner-seitz radius (au A)           
   ENMAX  =  258.689; ENMIN  =  194.016 eV                                      
   ICORE  =        2    local potential                                         
   LCOR   =        T    correct aug charges                                     
   LPAW   =        T    paw PP                                                  
   EAUG   =  335.092                                                            
   DEXC   =    0.000                                                            
   RMAX   =    1.942    core radius for proj-oper                               
   RAUG   =    1.300    factor for augmentation sphere                          
   RDEP   =    1.954    radius for radial grids                                 
   RDEPT  =    1.744    core radius for aug-charge                              
                                                                                
   Atomic configuration                                                         
    6 entries                                                                   
     n  l   j            E        occ.                                          
     1  0  0.50     -2405.8406   2.0000                                         
     2  0  0.50      -211.7007   2.0000                                         
     2  1  1.50      -156.4958   6.0000                                         
     3  0  0.50       -17.2562   2.0000                                         
     3  1  0.50        -7.0085   4.0000                                         
     3  2  1.50        -6.8029   0.0000                                         
   Description                                                                  
     l       E           TYP  RCUT    TYP  RCUT                                 
     0    -17.2561641     23  1.900                                             
     0    -15.8743224     23  1.900                                             
     1     -7.0085400     23  1.900                                             
     1     -2.7779785     23  1.900                                             
     2     -6.8029130     23  1.900                                             
  local pseudopotential read in
  partial core-charges read in
  partial kinetic energy density read in
  atomic valenz-charges read in
  non local Contribution for L=           0  read in
    real space projection operators read in
  non local Contribution for L=           0  read in
    real space projection operators read in
  non local Contribution for L=           1  read in
    real space projection operators read in
  non local Contribution for L=           1  read in
    real space projection operators read in
    PAW grid and wavefunctions read in
 
   number of l-projection  operators is LMAX  =           4
   number of lm-projection operators is LMMAX =           8
 
 POTCAR:    PAW_PBE H 15Jun2001                   
   VRHFIN =H: ultrasoft test                                                    
   LEXCH  = PE                                                                  
   EATOM  =    12.4884 eV,    0.9179 Ry                                         
                                                                                
   TITEL  = PAW_PBE H 15Jun2001                                                 
   LULTRA =        F    use ultrasoft PP ?                                      
   IUNSCR =        0    unscreen: 0-lin 1-nonlin 2-no                           
   RPACOR =    0.000    partial core radius                                     
   POMASS =    1.000; ZVAL   =    1.000    mass and valenz                      
   RCORE  =    1.100    outmost cutoff radius                                   
   RWIGS  =    0.700; RWIGS  =    0.370    wigner-seitz radius (au A)           
   ENMAX  =  250.000; ENMIN  =  200.000 eV                                      
   RCLOC  =    0.701    cutoff for local pot                                    
   LCOR   =        T    correct aug charges                                     
   LPAW   =        T    paw PP                                                  
   EAUG   =  400.000                                                            
   RMAX   =    1.123    core radius for proj-oper                               
   RAUG   =    1.200    factor for augmentation sphere                          
   RDEP   =    1.112    radius for radial grids                                 
   RDEPT  =    0.926    core radius for aug-charge                              
                                                                                
   Atomic configuration                                                         
    2 entries                                                                   
     n  l   j            E        occ.                                          
     1  0  0.50        -6.4927   1.0000                                         
     2  1  0.50        -3.4015   0.0000                                         
   Description                                                                  
     l       E           TYP  RCUT    TYP  RCUT                                 
     0     -6.4927494     23  1.100                                             
     0      6.8029130     23  1.100                                             
     1     -4.0817478     23  1.100                                             
  local pseudopotential read in
  atomic valenz-charges read in
  non local Contribution for L=           0  read in
    real space projection operators read in
  non local Contribution for L=           0  read in
    real space projection operators read in
  non local Contribution for L=           1  read in
    real space projection operators read in
    PAW grid and wavefunctions read in
 
   number of l-projection  operators is LMAX  =           3
   number of lm-projection operators is LMMAX =           5
 
 Optimization of the real space projectors (new method)

 maximal supplied QI-value         = 25.13
 optimisation between [QCUT,QGAM] = [ 11.31, 22.87] = [ 35.82,146.48] Ry 
 Optimized for a Real-space Cutoff    1.03 Angstroem

   l    n(q)    QCUT    max X(q) W(low)/X(q) W(high)/X(q)  e(spline) 
   0      7    11.310   115.676    0.20E-03    0.90E-03    0.20E-06
   0      7    11.310    87.132    0.20E-03    0.89E-03    0.19E-06
   1      6    11.310     4.429    0.16E-03    0.28E-03    0.12E-06
   1      6    11.310     2.733    0.12E-03    0.21E-03    0.99E-07
 Optimization of the real space projectors (new method)

 maximal supplied QI-value         = 25.13
 optimisation between [QCUT,QGAM] = [ 11.31, 22.87] = [ 35.82,146.48] Ry 
 Optimized for a Real-space Cutoff    1.43 Angstroem

   l    n(q)    QCUT    max X(q) W(low)/X(q) W(high)/X(q)  e(spline) 
   0     10    11.310    79.467    0.42E-04    0.81E-04    0.60E-06
   0     10    11.310    66.151    0.40E-04    0.81E-04    0.60E-06
   1      9    11.310    17.416    0.14E-03    0.88E-04    0.14E-05
   1      9    11.310    12.382    0.15E-03    0.93E-04    0.14E-05
 Optimization of the real space projectors (new method)

 maximal supplied QI-value         = 19.84
 optimisation between [QCUT,QGAM] = [ 11.31, 22.82] = [ 35.82,145.81] Ry 
 Optimized for a Real-space Cutoff    1.20 Angstroem

   l    n(q)    QCUT    max X(q) W(low)/X(q) W(high)/X(q)  e(spline) 
   0      8    11.310   187.594    0.16E-03    0.19E-03    0.53E-07
   0      8    11.310   164.243    0.16E-03    0.19E-03    0.53E-07
   1      8    11.310    67.533    0.18E-03    0.19E-03    0.92E-07
   1      8    11.310    50.729    0.18E-03    0.19E-03    0.90E-07
 Optimization of the real space projectors (new method)

 maximal supplied QI-value         = 34.20
 optimisation between [QCUT,QGAM] = [ 11.29, 22.57] = [ 35.68,142.71] Ry 
 Optimized for a Real-space Cutoff    1.20 Angstroem

   l    n(q)    QCUT    max X(q) W(low)/X(q) W(high)/X(q)  e(spline) 
   0      8    11.287    19.460    0.22E-03    0.50E-03    0.19E-06
   0      8    11.287    12.209    0.21E-03    0.48E-03    0.18E-06
   1      8    11.287     4.655    0.21E-03    0.11E-04    0.26E-06
  PAW_PBE C 08Apr2002                   :
 energy of atom  1       EATOM= -147.1560
 kinetic energy error for atom=    0.0076 (will be added to EATOM!!)
  PAW_PBE N 08Apr2002                   :
 energy of atom  2       EATOM= -264.5486
 kinetic energy error for atom=    0.0138 (will be added to EATOM!!)
  PAW_PBE S 06Sep2000                   :
 energy of atom  3       EATOM= -276.8230
 kinetic energy error for atom=    0.0020 (will be added to EATOM!!)
  PAW_PBE H 15Jun2001                   :
 energy of atom  4       EATOM=  -12.4884
 kinetic energy error for atom=    0.0020 (will be added to EATOM!!)
 
 
 POSCAR: C N S H                                 
  positions in direct lattice
  No initial velocities read in
 exchange correlation table for  LEXCH =        8
   RHO(1)=    0.500       N(1)  =     2000
   RHO(2)=  100.500       N(2)  =     4000
 


--------------------------------------------------------------------------------------------------------


 ion  position               nearest neighbor table
   1  0.466  0.504  0.500-   2 1.39   6 1.42  20 1.75
   2  0.434  0.519  0.500-  38 1.09   1 1.39   3 1.41
   3  0.405  0.499  0.500-  19 1.37   2 1.41   4 1.42
   4  0.409  0.464  0.500-  31 1.09   5 1.38   3 1.42
   5  0.441  0.450  0.500-  21 1.09   4 1.38   6 1.42
   6  0.471  0.469  0.500-  17 1.35   5 1.42   1 1.42
   7  0.529  0.469  0.500-  17 1.35   8 1.42  12 1.42
   8  0.559  0.450  0.500-  30 1.09   9 1.38   7 1.42
   9  0.591  0.464  0.500-  29 1.09   8 1.38  10 1.42
  10  0.595  0.499  0.500-  18 1.37  11 1.41   9 1.42
  11  0.566  0.519  0.500-  22 1.09  12 1.39  10 1.41
  12  0.534  0.504  0.500-  11 1.39   7 1.42  20 1.75
  13  0.630  0.549  0.500-  25 1.10  23 1.11  24 1.11  18 1.44
  14  0.655  0.492  0.501-  26 1.10  27 1.11  28 1.11  18 1.44
  15  0.345  0.492  0.499-  34 1.10  33 1.11  32 1.11  19 1.44
  16  0.370  0.549  0.500-  37 1.10  36 1.11  35 1.11  19 1.44
  17  0.500  0.452  0.500-   6 1.35   7 1.35
  18  0.626  0.513  0.500-  10 1.37  13 1.44  14 1.44
  19  0.374  0.513  0.500-   3 1.37  16 1.44  15 1.44
  20  0.500  0.532  0.500-   1 1.75  12 1.75
  21  0.444  0.422  0.500-   5 1.09
  22  0.568  0.546  0.500-  11 1.09
  23  0.618  0.560  0.478-  13 1.11
  24  0.618  0.560  0.523-  13 1.11
  25  0.656  0.555  0.501-  13 1.10
  26  0.678  0.508  0.501-  14 1.10
  27  0.657  0.476  0.523-  14 1.11
  28  0.657  0.476  0.478-  14 1.11
  29  0.612  0.447  0.500-   9 1.09
  30  0.556  0.422  0.500-   8 1.09
  31  0.388  0.447  0.500-   4 1.09
  32  0.343  0.476  0.522-  15 1.11
  33  0.343  0.476  0.477-  15 1.11
  34  0.322  0.508  0.499-  15 1.10
  35  0.382  0.560  0.522-  16 1.11
  36  0.382  0.560  0.477-  16 1.11
  37  0.344  0.555  0.499-  16 1.10
  38  0.432  0.546  0.500-   2 1.09
 
  LATTYP: Found a simple cubic cell.
 ALAT       =    40.0000000000
  
  Lattice vectors:
  
 A1 = (  40.0000000000,   0.0000000000,   0.0000000000)
 A2 = (   0.0000000000,  40.0000000000,   0.0000000000)
 A3 = (   0.0000000000,   0.0000000000,  40.0000000000)


Analysis of symmetry for initial positions (statically):
=====================================================================
 Subroutine PRICEL returns:
 Original cell was already a primitive cell.
 

 Routine SETGRP: Setting up the symmetry group for a 
 simple cubic supercell.


 Subroutine GETGRP returns: Found  1 space group operations
 (whereof  1 operations were pure point group operations)
 out of a pool of 48 trial point group operations.


The static configuration has the point symmetry C_1 .


Analysis of symmetry for dynamics (positions and initial velocities):
=====================================================================
 Subroutine PRICEL returns:
 Original cell was already a primitive cell.
 

 Routine SETGRP: Setting up the symmetry group for a 
 simple cubic supercell.


 Subroutine GETGRP returns: Found  1 space group operations
 (whereof  1 operations were pure point group operations)
 out of a pool of 48 trial point group operations.


The dynamic configuration has the point symmetry C_1 .


Analysis of constrained symmetry for selective dynamics:
=====================================================================
 Subroutine PRICEL returns:
 Original cell was already a primitive cell.
 

 Routine SETGRP: Setting up the symmetry group for a 
 simple cubic supercell.


 Subroutine GETGRP returns: Found  1 space group operations
 (whereof  1 operations were pure point group operations)
 out of a pool of 48 trial point group operations.


The constrained configuration has the point symmetry C_1 .


Analysis of structural, dynamic, and magnetic symmetry:
=====================================================================
 Subroutine PRICEL returns:
 Original cell was already a primitive cell.
 

 Routine SETGRP: Setting up the symmetry group for a 
 simple cubic supercell.


 Subroutine GETGRP returns: Found  1 space group operations
 (whereof  1 operations were pure point group operations)
 out of a pool of 48 trial point group operations.


The magnetic configuration has the point symmetry C_1 .


 Subroutine INISYM returns: Found  1 space group operations
 (whereof  1 operations are pure point group operations),
 and found     1 'primitive' translations

 
 
 KPOINTS: K-Point Grid                            

Automatic generation of k-mesh.
Space group operators:
 irot       det(A)        alpha          n_x          n_y          n_z        tau_x        tau_y        tau_z
    1     1.000000     0.000000     1.000000     0.000000     0.000000     0.000000     0.000000     0.000000
 
 Subroutine IBZKPT returns following result:
 ===========================================
 
 Found      1 irreducible k-points:
 
 Following reciprocal coordinates:
            Coordinates               Weight
  0.000000  0.000000  0.000000      1.000000
 
 Following cartesian coordinates:
            Coordinates               Weight
  0.000000  0.000000  0.000000      1.000000
 


--------------------------------------------------------------------------------------------------------




 Dimension of arrays:
   k-points           NKPTS =      1   k-points in BZ     NKDIM =      1   number of bands    NBANDS=     90
   number of dos      NEDOS =    301   number of ions     NIONS =     38
   non local maximal  LDIM  =      4   non local SUM 2l+1 LMDIM =      8
   total plane-waves  NPLWV = ******
   max r-space proj   IRMAX =   4928   max aug-charges    IRDMAX=  12708
   dimension x,y,z NGX =   294 NGY =  294 NGZ =  294
   dimension x,y,z NGXF=   588 NGYF=  588 NGZF=  588
   support grid    NGXF=   588 NGYF=  588 NGZF=  588
   ions per type =              16   3   1  18
   NGX,Y,Z   is equivalent  to a cutoff of  12.22, 12.22, 12.22 a.u.
   NGXF,Y,Z  is equivalent  to a cutoff of  24.44, 24.44, 24.44 a.u.

 SYSTEM =  184_red                                 
 POSCAR =  C N S H                                 

 Startparameter for this run:
   NWRITE =      2    write-flag & timer
   PREC   = accura    normal or accurate (medium, high low for compatibility)
   ISTART =      0    job   : 0-new  1-cont  2-samecut
   ICHARG =      2    charge: 1-file 2-atom 10-const
   ISPIN  =      2    spin polarized calculation?
   LNONCOLLINEAR =      F non collinear calculations
   LSORBIT =      F    spin-orbit coupling
   INIWAV =      1    electr: 0-lowe 1-rand  2-diag
   LASPH  =      F    aspherical Exc in radial PAW
   METAGGA=      F    non-selfconsistent MetaGGA calc.

 Electronic Relaxation 1
   ENCUT  =  500.0 eV  36.75 Ry    6.06 a.u.  72.93 72.93 72.93*2*pi/ulx,y,z
   ENINI  =  500.0     initial cutoff
   ENAUG  =  644.9 eV  augmentation charge cutoff
   NELM   =    100;   NELMIN=  2; NELMDL= -5     # of ELM steps 
   EDIFF  = 0.1E-04   stopping-criterion for ELM
   LREAL  =      T    real-space projection
   NLSPLINE    = F    spline interpolate recip. space projectors
   LCOMPAT=      F    compatible to vasp.4.4
   GGA_COMPAT  = T    GGA compatible to vasp.4.4-vasp.4.6
   LMAXPAW     = -100 max onsite density
   LMAXMIX     =    2 max onsite mixed and CHGCAR
   VOSKOWN=      0    Vosko Wilk Nusair interpolation
   ROPT   =   -0.00025  -0.00025  -0.00025  -0.00025
 Ionic relaxation
   EDIFFG = -.2E-01   stopping-criterion for IOM
   NSW    =    500    number of steps for IOM
   NBLOCK =      1;   KBLOCK =    500    inner block; outer block 
   IBRION =      2    ionic relax: 0-MD 1-quasi-New 2-CG
   NFREE  =      1    steps in history (QN), initial steepest desc. (CG)
   ISIF   =      2    stress and relaxation
   IWAVPR =     11    prediction:  0-non 1-charg 2-wave 3-comb
   ISYM   =      2    0-nonsym 1-usesym 2-fastsym
   LCORR  =      T    Harris-Foulkes like correction to forces

   POTIM  = 0.5000    time-step for ionic-motion
   TEIN   =    0.0    initial temperature
   TEBEG  =    0.0;   TEEND  =   0.0 temperature during run
   SMASS  =  -3.00    Nose mass-parameter (am)
   estimated Nose-frequenzy (Omega)   =  0.10E-29 period in steps =****** mass=  -0.366E-25a.u.
   SCALEE = 1.0000    scale energy and forces
   NPACO  =    256;   APACO  = 16.0  distance and # of slots for P.C.
   PSTRESS=    0.0 pullay stress

  Mass of Ions in am
   POMASS =  12.01 14.00 32.07  1.00
  Ionic Valenz
   ZVAL   =   4.00  5.00  6.00  1.00
  Atomic Wigner-Seitz radii
   RWIGS  =  -1.00 -1.00 -1.00 -1.00
  virtual crystal weights 
   VCA    =   1.00  1.00  1.00  1.00
   NELECT =     103.0000    total number of electrons
   NUPDOWN=      -1.0000    fix difference up-down

 DOS related values:
   EMIN   =  10.00;   EMAX   =-10.00  energy-range for DOS
   EFERMI =   0.00
   ISMEAR =     0;   SIGMA  =   0.05  broadening in eV -4-tet -1-fermi 0-gaus

 Electronic relaxation 2 (details)
   IALGO  =     68    algorithm
   LDIAG  =      T    sub-space diagonalisation (order eigenvalues)
   LSUBROT=      F    optimize rotation matrix (better conditioning)
   TURBO    =      0    0=normal 1=particle mesh
   IRESTART =      0    0=no restart 2=restart with 2 vectors
   NREBOOT  =      0    no. of reboots
   NMIN     =      0    reboot dimension
   EREF     =   0.00    reference energy to select bands
   IMIX   =      4    mixing-type and parameters
     AMIX     =   0.40;   BMIX     =  1.00
     AMIX_MAG =   1.60;   BMIX_MAG =  1.00
     AMIN     =   0.10
     WC   =   100.;   INIMIX=   1;  MIXPRE=   1;  MAXMIX= -45

 Intra band minimization:
   WEIMIN = 0.0010     energy-eigenvalue tresh-hold
   EBREAK =  0.28E-07  absolut break condition
   DEPER  =   0.30     relativ break condition  

   TIME   =   0.40     timestep for ELM

  volume/ion in A,a.u.               =    1684.21     11365.61
  Fermi-wavevector in a.u.,A,eV,Ry     =   0.191849  0.362543  0.500779  0.036806
  Thomas-Fermi vector in A             =   0.933973
 
 Write flags
   LWAVE        =      T    write WAVECAR
   LDOWNSAMPLE  =      F    k-point downsampling of WAVECAR
   LCHARG       =      F    write CHGCAR
   LVTOT        =      F    write LOCPOT, total local potential
   LVHAR        =      F    write LOCPOT, Hartree potential only
   LELF         =      F    write electronic localiz. function (ELF)
   LORBIT       =      0    0 simple, 1 ext, 2 COOP (PROOUT), +10 PAW based schemes


 Dipole corrections
   LMONO  =      F    monopole corrections only (constant potential shift)
   LDIPOL =      F    correct potential (dipole corrections)
   IDIPOL =      0    1-x, 2-y, 3-z, 4-all directions 
   EPSILON=  1.0000000 bulk dielectric constant

 Exchange correlation treatment:
   GGA     =    --    GGA type
   LEXCH   =     8    internal setting for exchange type
   VOSKOWN=      0    Vosko Wilk Nusair interpolation
   LHFCALC =     F    Hartree Fock is set to
   LHFONE  =     F    Hartree Fock one center treatment
   AEXX    =    0.0000 exact exchange contribution

 Linear response parameters
   LEPSILON=     F    determine dielectric tensor
   LRPA    =     F    only Hartree local field effects (RPA)
   LNABLA  =     F    use nabla operator in PAW spheres
   LVEL    =     F    velocity operator in full k-point grid
   LINTERFAST=   F  fast interpolation
   KINTER  =     0    interpolate to denser k-point grid
   CSHIFT  =0.1000    complex shift for real part using Kramers Kronig
   OMEGAMAX=  -1.0    maximum frequency
   DEG_THRESHOLD= 0.2000000E-02 threshold for treating states as degnerate
   RTIME   =   -0.100 relaxation time in fs
  (WPLASMAI=    0.000 imaginary part of plasma frequency in eV, 0.658/RTIME)
   DFIELD  = 0.0000000 0.0000000 0.0000000 field for delta impulse in time
 
 Orbital magnetization related:
   ORBITALMAG=     F  switch on orbital magnetization
   LCHIMAG   =     F  perturbation theory with respect to B field
   DQ        =  0.001000  dq finite difference perturbation B field
   LLRAUG    =     F  two centre corrections for induced B field

 Solvation model:
   LSOL    =     T         switch on solvation model
   EB_K    = 35.688000     relative permittivity of the bulk solvent
   SIGMA_K =  0.600000     width of the dielectric cavity
   NC_K    =  0.002500     cutoff charge density
   TAU     =  0.000000     cavity surface tension
   LAMBDA_D_K    =  3.040000     Debye length in Angstroms
   LRHOB     =     F     write boundcharge  density
   LRHOION     =     F     write ioniccharge density



--------------------------------------------------------------------------------------------------------


 conjugate gradient relaxation of ions
   using selective dynamics as specified on POSCAR
 charge density and potential will be updated during run
 spin polarized calculation
 RMM-DIIS sequential band-by-band and
  variant of blocked Davidson during initial phase
 perform sub-space diagonalisation
    before iterative eigenvector-optimisation
 modified Broyden-mixing scheme, WC =      100.0
 initial mixing is a Kerker type mixing with AMIX =  0.4000 and BMIX =      1.0000
 Hartree-type preconditioning will be used
 using additional bands           38
 real space projection scheme for non local part
 use partial core corrections
 calculate Harris-corrections to forces 
   (improved forces if not selfconsistent)
 use gradient corrections 
 use of overlap-Matrix (Vanderbilt PP)
 Gauss-broadening in eV      SIGMA  =   0.05


--------------------------------------------------------------------------------------------------------


  energy-cutoff  :      500.00
  volume of cell :    64000.00
      direct lattice vectors                 reciprocal lattice vectors
    40.000000000  0.000000000  0.000000000     0.025000000  0.000000000  0.000000000
     0.000000000 40.000000000  0.000000000     0.000000000  0.025000000  0.000000000
     0.000000000  0.000000000 40.000000000     0.000000000  0.000000000  0.025000000

  length of vectors
    40.000000000 40.000000000 40.000000000     0.025000000  0.025000000  0.025000000


 
 k-points in units of 2pi/SCALE and weight: K-Point Grid                            
   0.00000000  0.00000000  0.00000000       1.000
 
 k-points in reciprocal lattice and weights: K-Point Grid                            
   0.00000000  0.00000000  0.00000000       1.000
 
 position of ions in fractional coordinates (direct lattice) 
   0.46591000  0.50415700  0.49989000
   0.43422400  0.51852100  0.49978400
   0.40506400  0.49872800  0.49967800
   0.40932900  0.46351400  0.49969300
   0.44082400  0.44955700  0.49979800
   0.47054700  0.46887400  0.49989800
   0.52945500  0.46887500  0.50009700
   0.55917800  0.44956000  0.50018300
   0.59067300  0.46351800  0.50029800
   0.59493600  0.49873300  0.50034000
   0.56577500  0.51852400  0.50024400
   0.53409000  0.50415900  0.50012800
   0.62954500  0.54877300  0.50047600
   0.65547400  0.49210000  0.50051300
   0.34452600  0.49209300  0.49949100
   0.37045300  0.54876700  0.49951700
   0.50000100  0.45242900  0.49999200
   0.62619100  0.51298600  0.50046400
   0.37380800  0.51298000  0.49957000
   0.49999900  0.53159900  0.50001700
   0.44408100  0.42242600  0.49980700
   0.56757500  0.54574800  0.50025500
   0.61809300  0.56031300  0.47804600
   0.61784200  0.56030400  0.52278100
   0.65621300  0.55545200  0.50063400
   0.67793800  0.50795100  0.50066000
   0.65657000  0.47574400  0.52283400
   0.65675900  0.47589000  0.47809300
   0.61234400  0.44697000  0.50035300
   0.55592300  0.42242900  0.50015300
   0.38765900  0.44696500  0.49962100
   0.34326500  0.47583000  0.52187200
   0.34340600  0.47579100  0.47713100
   0.32206100  0.50794300  0.49940900
   0.38191400  0.56033100  0.52193100
   0.38214700  0.56027500  0.47719600
   0.34378500  0.55544600  0.49936500
   0.43242300  0.54574500  0.49979100
 
 position of ions in cartesian coordinates  (Angst):
  18.63640000 20.16628000 19.99560000
  17.36896000 20.74084000 19.99136000
  16.20256000 19.94912000 19.98712000
  16.37316000 18.54056000 19.98772000
  17.63296000 17.98228000 19.99192000
  18.82188000 18.75496000 19.99592000
  21.17820000 18.75500000 20.00388000
  22.36712000 17.98240000 20.00732000
  23.62692000 18.54072000 20.01192000
  23.79744000 19.94932000 20.01360000
  22.63100000 20.74096000 20.00976000
  21.36360000 20.16636000 20.00512000
  25.18180000 21.95092000 20.01904000
  26.21896000 19.68400000 20.02052000
  13.78104000 19.68372000 19.97964000
  14.81812000 21.95068000 19.98068000
  20.00004000 18.09716000 19.99968000
  25.04764000 20.51944000 20.01856000
  14.95232000 20.51920000 19.98280000
  19.99996000 21.26396000 20.00068000
  17.76324000 16.89704000 19.99228000
  22.70300000 21.82992000 20.01020000
  24.72372000 22.41252000 19.12184000
  24.71368000 22.41216000 20.91124000
  26.24852000 22.21808000 20.02536000
  27.11752000 20.31804000 20.02640000
  26.26280000 19.02976000 20.91336000
  26.27036000 19.03560000 19.12372000
  24.49376000 17.87880000 20.01412000
  22.23692000 16.89716000 20.00612000
  15.50636000 17.87860000 19.98484000
  13.73060000 19.03320000 20.87488000
  13.73624000 19.03164000 19.08524000
  12.88244000 20.31772000 19.97636000
  15.27656000 22.41324000 20.87724000
  15.28588000 22.41100000 19.08784000
  13.75140000 22.21784000 19.97460000
  17.29692000 21.82980000 19.99164000
 


--------------------------------------------------------------------------------------------------------


 k-point  1 :   0.0000 0.0000 0.0000  plane waves: 1624525

 maximum and minimum number of plane-waves per node :     67702    67669

 maximum number of plane-waves:   1624525
 maximum index in each direction: 
   IXMAX=   72   IYMAX=   72   IZMAX=   72
   IXMIN=  -72   IYMIN=  -72   IZMIN=  -72


 real space projection operators:
  total allocation   :       4808.12 KBytes
  max/ min on nodes  :        206.65        187.85


 parallel 3D FFT for wavefunctions:
    minimum data exchange during FFTs selected (reduces bandwidth)
 parallel 3D FFT for charge:
    minimum data exchange during FFTs selected (reduces bandwidth)


 total amount of memory used by VASP MPI-rank0   836063. kBytes
=======================================================================

   base      :      30000. kBytes
   nonlr-proj:       3419. kBytes
   fftplans  :     182426. kBytes
   grid      :     522727. kBytes
   one-center:         12. kBytes
   wavefun   :      97479. kBytes
 
     INWAV:  cpu time    0.0000: real time    0.0000
 Broyden mixing: mesh for mixing (old mesh)
   NGX =145   NGY =145   NGZ =145
  (NGX  =588   NGY  =588   NGZ  =588)
  gives a total of ****** points

 initial charge density was supplied:
 charge density of overlapping atoms calculated
 number of electron     103.0000000 magnetization      38.0000000
 keeping initial charge density in first step


--------------------------------------------------------------------------------------------------------


 Maximum index for non-local projection operator          305
 Maximum index for augmentation-charges          523 (set IRDMAX)


--------------------------------------------------------------------------------------------------------


 First call to EWALD:  gamma=   0.044
 Maximum number of real-space cells 3x 3x 3
 Maximum number of reciprocal cells 3x 3x 3

    FEWALD:  cpu time    0.0047: real time    0.0047


--------------------------------------- Iteration      1(   1)  ---------------------------------------


    POTLOK:  cpu time  159.3076: real time  159.5335
    SETDIJ:  cpu time    0.0334: real time    0.0334
     EDDAV:  cpu time   29.6745: real time   29.7390
       DOS:  cpu time    0.0010: real time    0.0010
    --------------------------------------------
      LOOP:  cpu time  189.0165: real time  189.3069

 eigenvalue-minimisations  :   424
 total energy-change (2. order) : 0.9876531E+03  (-0.1486996E+04)
 number of electron     103.0000000 magnetization      38.0000000
 augmentation part      103.0000000 magnetization      38.0000000

 Free energy of the ion-electron system (eV)
  ---------------------------------------------------
  alpha Z        PSCENC =         0.74392250
  Ewald energy   TEWEN  =     14535.69562825
  -Hartree energ DENC   =    -16987.82571728
  -exchange      EXHF   =         0.00000000
  -V(xc)+E(xc)   XCENC  =       333.30594151
  PAW double counting   =      2598.39304743    -2607.86623368
  entropy T*S    EENTRO =        -0.11953950
  eigenvalues    EBANDS =      -519.43317918
  atomic energy  EATOM  =      3649.55606930
  Solvation  Ediel_sol  =       -14.79686188
  ---------------------------------------------------
  free energy    TOTEN  =       987.65307748 eV

  energy without entropy =      987.77261697  energy(sigma->0) =      987.71284723


--------------------------------------------------------------------------------------------------------




--------------------------------------- Iteration      1(   2)  ---------------------------------------


     EDDAV:  cpu time   42.6928: real time   42.7941
       DOS:  cpu time    0.0005: real time    0.0005
    --------------------------------------------
      LOOP:  cpu time   42.6933: real time   42.7946

 eigenvalue-minimisations  :   668
 total energy-change (2. order) :-0.5525768E+03  (-0.5151884E+03)
 number of electron     103.0000000 magnetization      38.0000000
 augmentation part      103.0000000 magnetization      38.0000000

 Free energy of the ion-electron system (eV)
  ---------------------------------------------------
  alpha Z        PSCENC =         0.74392250
  Ewald energy   TEWEN  =     14535.69562825
  -Hartree energ DENC   =    -16987.82571728
  -exchange      EXHF   =         0.00000000
  -V(xc)+E(xc)   XCENC  =       333.30594151
  PAW double counting   =      2598.39304743    -2607.86623368
  entropy T*S    EENTRO =        -0.04413405
  eigenvalues    EBANDS =     -1072.08533485
  atomic energy  EATOM  =      3649.55606930
  Solvation  Ediel_sol  =       -14.79686188
  ---------------------------------------------------
  free energy    TOTEN  =       435.07632725 eV

  energy without entropy =      435.12046131  energy(sigma->0) =      435.09839428


--------------------------------------------------------------------------------------------------------




--------------------------------------- Iteration      1(   3)  ---------------------------------------


     EDDAV:  cpu time   38.2764: real time   38.3608
       DOS:  cpu time    0.0008: real time    0.0008
    --------------------------------------------
      LOOP:  cpu time   38.2772: real time   38.3616

 eigenvalue-minimisations  :   584
 total energy-change (2. order) :-0.5150633E+03  (-0.4881586E+03)
 number of electron     103.0000000 magnetization      38.0000000
 augmentation part      103.0000000 magnetization      38.0000000

 Free energy of the ion-electron system (eV)
  ---------------------------------------------------
  alpha Z        PSCENC =         0.74392250
  Ewald energy   TEWEN  =     14535.69562825
  -Hartree energ DENC   =    -16987.82571728
  -exchange      EXHF   =         0.00000000
  -V(xc)+E(xc)   XCENC  =       333.30594151
  PAW double counting   =      2598.39304743    -2607.86623368
  entropy T*S    EENTRO =        -0.00737892
  eigenvalues    EBANDS =     -1587.18538123
  atomic energy  EATOM  =      3649.55606930
  Solvation  Ediel_sol  =       -14.79686188
  ---------------------------------------------------
  free energy    TOTEN  =       -79.98696399 eV

  energy without entropy =      -79.97958507  energy(sigma->0) =      -79.98327453


--------------------------------------------------------------------------------------------------------




--------------------------------------- Iteration      1(   4)  ---------------------------------------


     EDDAV:  cpu time   34.3051: real time   34.3837
       DOS:  cpu time    0.0003: real time    0.0003
    --------------------------------------------
      LOOP:  cpu time   34.3053: real time   34.3840

 eigenvalue-minimisations  :   510
 total energy-change (2. order) :-0.1338385E+03  (-0.1330966E+03)
 number of electron     103.0000000 magnetization      38.0000000
 augmentation part      103.0000000 magnetization      38.0000000

 Free energy of the ion-electron system (eV)
  ---------------------------------------------------
  alpha Z        PSCENC =         0.74392250
  Ewald energy   TEWEN  =     14535.69562825
  -Hartree energ DENC   =    -16987.82571728
  -exchange      EXHF   =         0.00000000
  -V(xc)+E(xc)   XCENC  =       333.30594151
  PAW double counting   =      2598.39304743    -2607.86623368
  entropy T*S    EENTRO =        -0.00000000
  eigenvalues    EBANDS =     -1721.03124481
  atomic energy  EATOM  =      3649.55606930
  Solvation  Ediel_sol  =       -14.79686188
  ---------------------------------------------------
  free energy    TOTEN  =      -213.82544865 eV

  energy without entropy =     -213.82544865  energy(sigma->0) =     -213.82544865


--------------------------------------------------------------------------------------------------------




--------------------------------------- Iteration      1(   5)  ---------------------------------------


     EDDAV:  cpu time   34.6305: real time   34.7083
       DOS:  cpu time    0.0003: real time    0.0003
    CHARGE:  cpu time    2.4483: real time    2.4533
    MIXING:  cpu time    0.1020: real time    0.1022
    --------------------------------------------
      LOOP:  cpu time   37.1812: real time   37.2641

 eigenvalue-minimisations  :   516
 total energy-change (2. order) :-0.7493304E+01  (-0.7458975E+01)
 number of electron     102.9999999 magnetization      36.5744720
 augmentation part        2.2468047 magnetization      35.6579928

 Broyden mixing:
  rms(total) = 0.42276E+01    rms(broyden)= 0.42270E+01
  rms(prec ) = 0.42692E+01
  weight for this iteration     100.00

 Free energy of the ion-electron system (eV)
  ---------------------------------------------------
  alpha Z        PSCENC =         0.74392250
  Ewald energy   TEWEN  =     14535.69562825
  -Hartree energ DENC   =    -16987.82571728
  -exchange      EXHF   =         0.00000000
  -V(xc)+E(xc)   XCENC  =       333.30594151
  PAW double counting   =      2598.39304743    -2607.86623368
  entropy T*S    EENTRO =        -0.00000000
  eigenvalues    EBANDS =     -1728.52454885
  atomic energy  EATOM  =      3649.55606930
  Solvation  Ediel_sol  =       -14.79686188
  ---------------------------------------------------
  free energy    TOTEN  =      -221.31875270 eV

  energy without entropy =     -221.31875270  energy(sigma->0) =     -221.31875270


--------------------------------------------------------------------------------------------------------




--------------------------------------- Iteration      1(   6)  ---------------------------------------


    POTLOK:  cpu time  153.3244: real time  153.4954
    SETDIJ:  cpu time    0.0330: real time    0.0330
    EDDIAG:  cpu time    5.9003: real time    5.9126
  RMM-DIIS:  cpu time   20.4985: real time   20.5421
    ORTHCH:  cpu time    0.3334: real time    0.3341
       DOS:  cpu time    0.0003: real time    0.0003
    CHARGE:  cpu time    2.4047: real time    2.4097
    MIXING:  cpu time    0.1063: real time    0.1065
    --------------------------------------------
      LOOP:  cpu time  182.6009: real time  182.8337

 eigenvalue-minimisations  :   360
 total energy-change (2. order) : 0.1045901E+03  (-0.2292069E+02)
 number of electron     102.9999999 magnetization      34.9948881
 augmentation part        2.0851966 magnetization      33.8976358

 Broyden mixing:
  rms(total) = 0.21467E+01    rms(broyden)= 0.21465E+01
  rms(prec ) = 0.21739E+01
  weight for this iteration     100.00

 eigenvalues of (default mixing * dielectric matrix)
  average eigenvalue GAMMA=   0.9691
  0.9691

 Free energy of the ion-electron system (eV)
  ---------------------------------------------------
  alpha Z        PSCENC =         0.74392250
  Ewald energy   TEWEN  =     14535.69562825
  -Hartree energ DENC   =    -17195.88981075
  -exchange      EXHF   =         0.00000000
  -V(xc)+E(xc)   XCENC  =       428.77611241
  PAW double counting   =      4707.30569127    -4719.04342999
  entropy T*S    EENTRO =        -0.00000000
  eigenvalues    EBANDS =     -1493.58461615
  atomic energy  EATOM  =      3649.55606930
  Solvation  Ediel_sol  =       -30.28821251
  ---------------------------------------------------
  free energy    TOTEN  =      -116.72864566 eV

  energy without entropy =     -116.72864566  energy(sigma->0) =     -116.72864566


--------------------------------------------------------------------------------------------------------




--------------------------------------- Iteration      1(   7)  ---------------------------------------


    POTLOK:  cpu time  151.6051: real time  151.7693
    SETDIJ:  cpu time    0.0331: real time    0.0331
    EDDIAG:  cpu time    5.8791: real time    5.8911
  RMM-DIIS:  cpu time   20.4343: real time   20.4780
    ORTHCH:  cpu time    0.3330: real time    0.3337
       DOS:  cpu time    0.0003: real time    0.0003
    CHARGE:  cpu time    2.4040: real time    2.4091
    MIXING:  cpu time    0.1123: real time    0.1125
    --------------------------------------------
      LOOP:  cpu time  180.8012: real time  181.0271

 eigenvalue-minimisations  :   360
 total energy-change (2. order) :-0.5767391E+02  (-0.6173878E+01)
 number of electron     102.9999999 magnetization      33.3077659
 augmentation part        1.9163275 magnetization      32.2307878

 Broyden mixing:
  rms(total) = 0.13242E+01    rms(broyden)= 0.13241E+01
  rms(prec ) = 0.13343E+01
  weight for this iteration     100.00

 eigenvalues of (default mixing * dielectric matrix)
  average eigenvalue GAMMA=   1.0777
  0.8132  1.3422

 Free energy of the ion-electron system (eV)
  ---------------------------------------------------
  alpha Z        PSCENC =         0.74392250
  Ewald energy   TEWEN  =     14535.69562825
  -Hartree energ DENC   =    -17356.82833390
  -exchange      EXHF   =         0.00000000
  -V(xc)+E(xc)   XCENC  =       388.61675922
  PAW double counting   =      6737.84223001    -6750.83834092
  entropy T*S    EENTRO =        -0.00000000
  eigenvalues    EBANDS =     -1334.91894721
  atomic energy  EATOM  =      3649.55606930
  Solvation  Ediel_sol  =       -44.27154670
  ---------------------------------------------------
  free energy    TOTEN  =      -174.40255945 eV

  energy without entropy =     -174.40255945  energy(sigma->0) =     -174.40255945


--------------------------------------------------------------------------------------------------------




--------------------------------------- Iteration      1(   8)  ---------------------------------------


    POTLOK:  cpu time  151.4743: real time  151.6628
    SETDIJ:  cpu time    0.0384: real time    0.0384
    EDDIAG:  cpu time    5.8796: real time    5.8919
  RMM-DIIS:  cpu time   20.6153: real time   20.6603
    ORTHCH:  cpu time    0.3409: real time    0.3416
       DOS:  cpu time    0.0003: real time    0.0003
    CHARGE:  cpu time    2.3987: real time    2.4037
    MIXING:  cpu time    0.1178: real time    0.1179
    --------------------------------------------
      LOOP:  cpu time  180.8652: real time  181.1169

 eigenvalue-minimisations  :   362
 total energy-change (2. order) :-0.1273785E+02  (-0.1172652E+01)
 number of electron     102.9999998 magnetization      31.2237605
 augmentation part        1.8704975 magnetization      30.1732734

 Broyden mixing:
  rms(total) = 0.82331E+00    rms(broyden)= 0.82326E+00
  rms(prec ) = 0.82866E+00
  weight for this iteration     100.00

 eigenvalues of (default mixing * dielectric matrix)
  average eigenvalue GAMMA=   1.2372
  1.9133  1.1024  0.6960

 Free energy of the ion-electron system (eV)
  ---------------------------------------------------
  alpha Z        PSCENC =         0.74392250
  Ewald energy   TEWEN  =     14535.69562825
  -Hartree energ DENC   =    -17435.84766043
  -exchange      EXHF   =         0.00000000
  -V(xc)+E(xc)   XCENC  =       382.00376244
  PAW double counting   =      8289.21541079    -8302.48994308
  entropy T*S    EENTRO =        -0.00000000
  eigenvalues    EBANDS =     -1255.86520276
  atomic energy  EATOM  =      3649.55606930
  Solvation  Ediel_sol  =       -50.15239830
  ---------------------------------------------------
  free energy    TOTEN  =      -187.14041130 eV

  energy without entropy =     -187.14041130  energy(sigma->0) =     -187.14041130


--------------------------------------------------------------------------------------------------------




--------------------------------------- Iteration      1(   9)  ---------------------------------------


    POTLOK:  cpu time  153.1860: real time  153.3703
    SETDIJ:  cpu time    0.0346: real time    0.0346
    EDDIAG:  cpu time    5.8852: real time    5.8971
  RMM-DIIS:  cpu time   20.4122: real time   20.4562
    ORTHCH:  cpu time    0.3344: real time    0.3351
       DOS:  cpu time    0.0002: real time    0.0002
    CHARGE:  cpu time    2.4004: real time    2.4053
    MIXING:  cpu time    0.1249: real time    0.1251
    --------------------------------------------
      LOOP:  cpu time  182.3779: real time  182.6240

 eigenvalue-minimisations  :   361
 total energy-change (2. order) :-0.2330773E+02  (-0.1189035E+01)
 number of electron     102.9999998 magnetization      29.5849516
 augmentation part        1.8595326 magnetization      28.5627675

 Broyden mixing:
  rms(total) = 0.50451E+00    rms(broyden)= 0.50448E+00
  rms(prec ) = 0.50706E+00
  weight for this iteration     100.00

 eigenvalues of (default mixing * dielectric matrix)
  average eigenvalue GAMMA=   1.2939
  2.2174  1.4765  0.8375  0.6442

 Free energy of the ion-electron system (eV)
  ---------------------------------------------------
  alpha Z        PSCENC =         0.74392250
  Ewald energy   TEWEN  =     14535.69562825
  -Hartree energ DENC   =    -17479.04760552
  -exchange      EXHF   =         0.00000000
  -V(xc)+E(xc)   XCENC  =       366.15304009
  PAW double counting   =      9374.69257067    -9387.85966333
  entropy T*S    EENTRO =        -0.00000000
  eigenvalues    EBANDS =     -1226.32459811
  atomic energy  EATOM  =      3649.55606930
  Solvation  Ediel_sol  =       -44.05750885
  ---------------------------------------------------
  free energy    TOTEN  =      -210.44814500 eV

  energy without entropy =     -210.44814500  energy(sigma->0) =     -210.44814500


--------------------------------------------------------------------------------------------------------




--------------------------------------- Iteration      1(  10)  ---------------------------------------


    POTLOK:  cpu time  144.5304: real time  144.7353
    SETDIJ:  cpu time    0.0330: real time    0.0329
    EDDIAG:  cpu time    5.8918: real time    5.9042
  RMM-DIIS:  cpu time   20.4882: real time   20.5310
    ORTHCH:  cpu time    0.3331: real time    0.3339
       DOS:  cpu time    0.0002: real time    0.0002
    CHARGE:  cpu time    2.3997: real time    2.4047
    MIXING:  cpu time    0.1294: real time    0.1296
    --------------------------------------------
      LOOP:  cpu time  173.8059: real time  174.0719

 eigenvalue-minimisations  :   360
 total energy-change (2. order) :-0.9494893E+01  (-0.4294781E+00)
 number of electron     102.9999998 magnetization      27.1696537
 augmentation part        1.8496452 magnetization      26.1759423

 Broyden mixing:
  rms(total) = 0.38453E+00    rms(broyden)= 0.38451E+00
  rms(prec ) = 0.38650E+00
  weight for this iteration     100.00

 eigenvalues of (default mixing * dielectric matrix)
  average eigenvalue GAMMA=   1.2945
  2.1887  1.8637  0.8961  0.8961  0.6276

 Free energy of the ion-electron system (eV)
  ---------------------------------------------------
  alpha Z        PSCENC =         0.74392250
  Ewald energy   TEWEN  =     14535.69562825
  -Hartree energ DENC   =    -17493.17203589
  -exchange      EXHF   =         0.00000000
  -V(xc)+E(xc)   XCENC  =       359.62565661
  PAW double counting   =      9675.09630156    -9688.09864009
  entropy T*S    EENTRO =        -0.00000000
  eigenvalues    EBANDS =     -1227.69443943
  atomic energy  EATOM  =      3649.55606930
  Solvation  Ediel_sol  =       -31.69550112
  ---------------------------------------------------
  free energy    TOTEN  =      -219.94303830 eV

  energy without entropy =     -219.94303830  energy(sigma->0) =     -219.94303830


--------------------------------------------------------------------------------------------------------




--------------------------------------- Iteration      1(  11)  ---------------------------------------


    POTLOK:  cpu time  146.2427: real time  146.4237
    SETDIJ:  cpu time    0.0345: real time    0.0345
    EDDIAG:  cpu time    5.8888: real time    5.9009
  RMM-DIIS:  cpu time   20.4994: real time   20.5425
    ORTHCH:  cpu time    0.3320: real time    0.3327
       DOS:  cpu time    0.0003: real time    0.0003
    CHARGE:  cpu time    2.3844: real time    2.3893
    MIXING:  cpu time    0.1370: real time    0.1372
    --------------------------------------------
      LOOP:  cpu time  175.5192: real time  175.7612

 eigenvalue-minimisations  :   360
 total energy-change (2. order) :-0.7292827E+01  (-0.3432929E+00)
 number of electron     102.9999998 magnetization      24.1808508
 augmentation part        1.8381934 magnetization      23.2098776

 Broyden mixing:
  rms(total) = 0.28346E+00    rms(broyden)= 0.28345E+00
  rms(prec ) = 0.28455E+00
  weight for this iteration     100.00

 eigenvalues of (default mixing * dielectric matrix)
  average eigenvalue GAMMA=   1.4929
  2.6587  2.6587  1.3384  0.9220  0.7566  0.6229

 Free energy of the ion-electron system (eV)
  ---------------------------------------------------
  alpha Z        PSCENC =         0.74392250
  Ewald energy   TEWEN  =     14535.69562825
  -Hartree energ DENC   =    -17500.18368755
  -exchange      EXHF   =         0.00000000
  -V(xc)+E(xc)   XCENC  =       354.06280698
  PAW double counting   =      9638.20517424    -9651.03946927
  entropy T*S    EENTRO =        -0.00000000
  eigenvalues    EBANDS =     -1243.27963874
  atomic energy  EATOM  =      3649.55606930
  Solvation  Ediel_sol  =       -10.99667126
  ---------------------------------------------------
  free energy    TOTEN  =      -227.23586555 eV

  energy without entropy =     -227.23586555  energy(sigma->0) =     -227.23586555


--------------------------------------------------------------------------------------------------------




--------------------------------------- Iteration      1(  12)  ---------------------------------------


    POTLOK:  cpu time  146.3616: real time  146.5349
    SETDIJ:  cpu time    0.0365: real time    0.0365
    EDDIAG:  cpu time    5.8683: real time    5.8810
  RMM-DIIS:  cpu time   20.6000: real time   20.6457
    ORTHCH:  cpu time    0.3325: real time    0.3332
       DOS:  cpu time    0.0002: real time    0.0002
    CHARGE:  cpu time    2.3808: real time    2.3862
    MIXING:  cpu time    0.1471: real time    0.1473
    --------------------------------------------
      LOOP:  cpu time  175.7271: real time  175.9651

 eigenvalue-minimisations  :   360
 total energy-change (2. order) :-0.4832718E+01  (-0.2849174E+00)
 number of electron     102.9999998 magnetization      21.3255159
 augmentation part        1.8309763 magnetization      20.3728741

 Broyden mixing:
  rms(total) = 0.19895E+00    rms(broyden)= 0.19894E+00
  rms(prec ) = 0.19970E+00
  weight for this iteration     100.00

 eigenvalues of (default mixing * dielectric matrix)
  average eigenvalue GAMMA=   1.5695
  3.7246  2.5405  1.3263  1.1581  0.8969  0.7199  0.6203

 Free energy of the ion-electron system (eV)
  ---------------------------------------------------
  alpha Z        PSCENC =         0.74392250
  Ewald energy   TEWEN  =     14535.69562825
  -Hartree energ DENC   =    -17507.08433050
  -exchange      EXHF   =         0.00000000
  -V(xc)+E(xc)   XCENC  =       350.29969424
  PAW double counting   =      9496.12224881    -9508.86290825
  entropy T*S    EENTRO =        -0.00000000
  eigenvalues    EBANDS =     -1259.34924018
  atomic energy  EATOM  =      3649.55606930
  Solvation  Ediel_sol  =        10.81033239
  ---------------------------------------------------
  free energy    TOTEN  =      -232.06858344 eV

  energy without entropy =     -232.06858344  energy(sigma->0) =     -232.06858344


--------------------------------------------------------------------------------------------------------




--------------------------------------- Iteration      1(  13)  ---------------------------------------


    POTLOK:  cpu time  146.2892: real time  146.4507
    SETDIJ:  cpu time    0.0353: real time    0.0353
    EDDIAG:  cpu time    5.8754: real time    5.8885
  RMM-DIIS:  cpu time   20.7900: real time   20.8360
    ORTHCH:  cpu time    0.3320: real time    0.3328
       DOS:  cpu time    0.0003: real time    0.0003
    CHARGE:  cpu time    2.3853: real time    2.3906
    MIXING:  cpu time    0.1865: real time    0.1870
    --------------------------------------------
      LOOP:  cpu time  175.8940: real time  176.1213

 eigenvalue-minimisations  :   362
 total energy-change (2. order) :-0.2196560E+01  (-0.1442134E+00)
 number of electron     102.9999998 magnetization      18.5366950
 augmentation part        1.8278078 magnetization      17.5970806

 Broyden mixing:
  rms(total) = 0.13359E+00    rms(broyden)= 0.13358E+00
  rms(prec ) = 0.13408E+00
  weight for this iteration     100.00

 eigenvalues of (default mixing * dielectric matrix)
  average eigenvalue GAMMA=   1.8363
  6.0133  2.3071  1.9410  1.3946  0.8624  0.8624  0.6245  0.6853

 Free energy of the ion-electron system (eV)
  ---------------------------------------------------
  alpha Z        PSCENC =         0.74392250
  Ewald energy   TEWEN  =     14535.69562825
  -Hartree energ DENC   =    -17513.05968302
  -exchange      EXHF   =         0.00000000
  -V(xc)+E(xc)   XCENC  =       348.54989739
  PAW double counting   =      9373.18774751    -9385.96289737
  entropy T*S    EENTRO =        -0.00000000
  eigenvalues    EBANDS =     -1267.95617168
  atomic energy  EATOM  =      3649.55606930
  Solvation  Ediel_sol  =        24.98034351
  ---------------------------------------------------
  free energy    TOTEN  =      -234.26514361 eV

  energy without entropy =     -234.26514361  energy(sigma->0) =     -234.26514361


--------------------------------------------------------------------------------------------------------




--------------------------------------- Iteration      1(  14)  ---------------------------------------


    POTLOK:  cpu time  144.3500: real time  144.5330
    SETDIJ:  cpu time    0.0349: real time    0.0349
    EDDIAG:  cpu time    5.8667: real time    5.8795
  RMM-DIIS:  cpu time   20.7646: real time   20.8108
    ORTHCH:  cpu time    0.3317: real time    0.3324
       DOS:  cpu time    0.0003: real time    0.0003
    CHARGE:  cpu time    2.3910: real time    2.3965
    MIXING:  cpu time    0.1627: real time    0.1629
    --------------------------------------------
      LOOP:  cpu time  173.9019: real time  174.1504

 eigenvalue-minimisations  :   362
 total energy-change (2. order) :-0.1484450E+01  (-0.6454542E-01)
 number of electron     102.9999998 magnetization      17.0001791
 augmentation part        1.8263860 magnetization      16.0697320

 Broyden mixing:
  rms(total) = 0.94317E-01    rms(broyden)= 0.94309E-01
  rms(prec ) = 0.94846E-01
  weight for this iteration     100.00

 eigenvalues of (default mixing * dielectric matrix)
  average eigenvalue GAMMA=   1.8901
  7.0931  2.2403  2.2403  1.3269  1.1082  0.9368  0.7910  0.6540  0.6202

 Free energy of the ion-electron system (eV)
  ---------------------------------------------------
  alpha Z        PSCENC =         0.74392250
  Ewald energy   TEWEN  =     14535.69562825
  -Hartree energ DENC   =    -17515.65580156
  -exchange      EXHF   =         0.00000000
  -V(xc)+E(xc)   XCENC  =       347.12880529
  PAW double counting   =      9292.28392010    -9305.08318663
  entropy T*S    EENTRO =        -0.00000000
  eigenvalues    EBANDS =     -1275.45367169
  atomic energy  EATOM  =      3649.55606930
  Solvation  Ediel_sol  =        35.03472090
  ---------------------------------------------------
  free energy    TOTEN  =      -235.74959354 eV

  energy without entropy =     -235.74959354  energy(sigma->0) =     -235.74959354


--------------------------------------------------------------------------------------------------------




--------------------------------------- Iteration      1(  15)  ---------------------------------------


    POTLOK:  cpu time  138.9805: real time  139.1643
    SETDIJ:  cpu time    0.0352: real time    0.0352
    EDDIAG:  cpu time    5.8786: real time    5.8915
  RMM-DIIS:  cpu time   20.8860: real time   20.9320
    ORTHCH:  cpu time    0.3348: real time    0.3356
       DOS:  cpu time    0.0004: real time    0.0004
    CHARGE:  cpu time    2.3828: real time    2.3881
    MIXING:  cpu time    0.1736: real time    0.1741
    --------------------------------------------
      LOOP:  cpu time  168.6719: real time  168.9212

 eigenvalue-minimisations  :   368
 total energy-change (2. order) :-0.9769703E+00  (-0.1351298E-01)
 number of electron     102.9999998 magnetization      14.4420038
 augmentation part        1.8233838 magnetization      13.5161620

 Broyden mixing:
  rms(total) = 0.77823E-01    rms(broyden)= 0.77819E-01
  rms(prec ) = 0.78243E-01
  weight for this iteration     100.00

 eigenvalues of (default mixing * dielectric matrix)
  average eigenvalue GAMMA=   1.9720
  7.8552  2.5837  2.0706  2.0706  1.2973  0.9135  0.9135  0.7440  0.6256  0.6456

 Free energy of the ion-electron system (eV)
  ---------------------------------------------------
  alpha Z        PSCENC =         0.74392250
  Ewald energy   TEWEN  =     14535.69562825
  -Hartree energ DENC   =    -17514.59186558
  -exchange      EXHF   =         0.00000000
  -V(xc)+E(xc)   XCENC  =       346.16014222
  PAW double counting   =      9304.01925986    -9316.82066498
  entropy T*S    EENTRO =        -0.00000000
  eigenvalues    EBANDS =     -1277.92732065
  atomic energy  EATOM  =      3649.55606930
  Solvation  Ediel_sol  =        36.43826524
  ---------------------------------------------------
  free energy    TOTEN  =      -236.72656385 eV

  energy without entropy =     -236.72656385  energy(sigma->0) =     -236.72656385


--------------------------------------------------------------------------------------------------------




--------------------------------------- Iteration      1(  16)  ---------------------------------------


    POTLOK:  cpu time  140.9708: real time  141.1533
    SETDIJ:  cpu time    0.0348: real time    0.0348
    EDDIAG:  cpu time    5.8670: real time    5.8797
  RMM-DIIS:  cpu time   20.7177: real time   20.7643
    ORTHCH:  cpu time    0.3322: real time    0.3330
       DOS:  cpu time    0.0003: real time    0.0003
    CHARGE:  cpu time    2.3987: real time    2.4040
    MIXING:  cpu time    0.2115: real time    0.2119
    --------------------------------------------
      LOOP:  cpu time  170.5330: real time  170.7813

 eigenvalue-minimisations  :   362
 total energy-change (2. order) :-0.8886632E+00  (-0.6567796E-02)
 number of electron     102.9999998 magnetization      13.0621034
 augmentation part        1.8224001 magnetization      12.1383501

 Broyden mixing:
  rms(total) = 0.60273E-01    rms(broyden)= 0.60271E-01
  rms(prec ) = 0.60458E-01
  weight for this iteration     100.00

 eigenvalues of (default mixing * dielectric matrix)
  average eigenvalue GAMMA=   1.9795
  8.4048  3.2101  2.2301  2.0335  1.2924  1.0078  0.9365  0.7904  0.6497  0.6099
  0.6099

 Free energy of the ion-electron system (eV)
  ---------------------------------------------------
  alpha Z        PSCENC =         0.74392250
  Ewald energy   TEWEN  =     14535.69562825
  -Hartree energ DENC   =    -17508.78616126
  -exchange      EXHF   =         0.00000000
  -V(xc)+E(xc)   XCENC  =       345.13328071
  PAW double counting   =      9313.17367508    -9325.96374663
  entropy T*S    EENTRO =        -0.00000000
  eigenvalues    EBANDS =     -1283.15948858
  atomic energy  EATOM  =      3649.55606930
  Solvation  Ediel_sol  =        35.99159354
  ---------------------------------------------------
  free energy    TOTEN  =      -237.61522709 eV

  energy without entropy =     -237.61522709  energy(sigma->0) =     -237.61522709


--------------------------------------------------------------------------------------------------------




--------------------------------------- Iteration      1(  17)  ---------------------------------------


    POTLOK:  cpu time  135.4137: real time  135.6085
    SETDIJ:  cpu time    0.0350: real time    0.0350
    EDDIAG:  cpu time    5.8568: real time    5.8698
  RMM-DIIS:  cpu time   20.6020: real time   20.6484
    ORTHCH:  cpu time    0.3330: real time    0.3337
       DOS:  cpu time    0.0003: real time    0.0003
    CHARGE:  cpu time    2.4074: real time    2.4127
    MIXING:  cpu time    0.2205: real time    0.2210
    --------------------------------------------
      LOOP:  cpu time  164.8686: real time  165.1294

 eigenvalue-minimisations  :   365
 total energy-change (2. order) :-0.2321682E+00  (-0.1392844E-02)
 number of electron     102.9999998 magnetization      11.3165485
 augmentation part        1.8229611 magnetization      10.3933763

 Broyden mixing:
  rms(total) = 0.50682E-01    rms(broyden)= 0.50681E-01
  rms(prec ) = 0.50814E-01
  weight for this iteration     100.00

 eigenvalues of (default mixing * dielectric matrix)
  average eigenvalue GAMMA=   2.0739
  9.2658  4.1712  2.1317  2.1317  1.3345  1.3345  0.9844  0.8504  0.7823  0.6628
  0.6185  0.6185

 Free energy of the ion-electron system (eV)
  ---------------------------------------------------
  alpha Z        PSCENC =         0.74392250
  Ewald energy   TEWEN  =     14535.69562825
  -Hartree energ DENC   =    -17506.18563153
  -exchange      EXHF   =         0.00000000
  -V(xc)+E(xc)   XCENC  =       344.85588169
  PAW double counting   =      9326.05145805    -9338.84129485
  entropy T*S    EENTRO =        -0.00000000
  eigenvalues    EBANDS =     -1284.71873426
  atomic energy  EATOM  =      3649.55606930
  Solvation  Ediel_sol  =        34.99530555
  ---------------------------------------------------
  free energy    TOTEN  =      -237.84739531 eV

  energy without entropy =     -237.84739531  energy(sigma->0) =     -237.84739531


--------------------------------------------------------------------------------------------------------




--------------------------------------- Iteration      1(  18)  ---------------------------------------


    POTLOK:  cpu time  135.6551: real time  135.8419
    SETDIJ:  cpu time    0.0356: real time    0.0356
    EDDIAG:  cpu time    5.8678: real time    5.8809
  RMM-DIIS:  cpu time   20.8228: real time   20.8696
    ORTHCH:  cpu time    0.3325: real time    0.3333
       DOS:  cpu time    0.0003: real time    0.0003
    CHARGE:  cpu time    2.3938: real time    2.3996
    MIXING:  cpu time    0.2341: real time    0.2345
    --------------------------------------------
      LOOP:  cpu time  165.3419: real time  165.5957

 eigenvalue-minimisations  :   365
 total energy-change (2. order) :-0.2683227E+00  (-0.5911340E-03)
 number of electron     102.9999998 magnetization       8.9830320
 augmentation part        1.8239717 magnetization       8.0601413

 Broyden mixing:
  rms(total) = 0.43305E-01    rms(broyden)= 0.43305E-01
  rms(prec ) = 0.43408E-01
  weight for this iteration     100.00

 eigenvalues of (default mixing * dielectric matrix)
  average eigenvalue GAMMA=   2.1729
  9.9547  4.9887  2.2799  2.2799  1.9582  1.1287  1.1287  1.0401  0.8027  0.7646
  0.6792  0.6210  0.6210

 Free energy of the ion-electron system (eV)
  ---------------------------------------------------
  alpha Z        PSCENC =         0.74392250
  Ewald energy   TEWEN  =     14535.69562825
  -Hartree energ DENC   =    -17503.45192893
  -exchange      EXHF   =         0.00000000
  -V(xc)+E(xc)   XCENC  =       344.54168338
  PAW double counting   =      9335.47330449    -9348.26344124
  entropy T*S    EENTRO =        -0.00000000
  eigenvalues    EBANDS =     -1285.74050853
  atomic energy  EATOM  =      3649.55606930
  Solvation  Ediel_sol  =        33.32955278
  ---------------------------------------------------
  free energy    TOTEN  =      -238.11571800 eV

  energy without entropy =     -238.11571800  energy(sigma->0) =     -238.11571800


--------------------------------------------------------------------------------------------------------




--------------------------------------- Iteration      1(  19)  ---------------------------------------


    POTLOK:  cpu time  137.5115: real time  137.7065
    SETDIJ:  cpu time    0.0359: real time    0.0359
    EDDIAG:  cpu time    5.8759: real time    5.8888
  RMM-DIIS:  cpu time   20.7369: real time   20.7820
    ORTHCH:  cpu time    0.3331: real time    0.3338
       DOS:  cpu time    0.0003: real time    0.0003
    CHARGE:  cpu time    2.3935: real time    2.3986
    MIXING:  cpu time    0.2180: real time    0.2184
    --------------------------------------------
      LOOP:  cpu time  167.1051: real time  167.3643

 eigenvalue-minimisations  :   367
 total energy-change (2. order) :-0.1560182E+00  (-0.2885536E-03)
 number of electron     102.9999998 magnetization       6.6683909
 augmentation part        1.8236693 magnetization       5.7457101

 Broyden mixing:
  rms(total) = 0.34519E-01    rms(broyden)= 0.34519E-01
  rms(prec ) = 0.34588E-01
  weight for this iteration     100.00

 eigenvalues of (default mixing * dielectric matrix)
  average eigenvalue GAMMA=   2.2830
 10.8548  5.8988  2.8394  2.3516  1.9602  1.2969  1.2969  1.0936  0.9215  0.8344
  0.7191  0.6550  0.6202  0.6202

 Free energy of the ion-electron system (eV)
  ---------------------------------------------------
  alpha Z        PSCENC =         0.74392250
  Ewald energy   TEWEN  =     14535.69562825
  -Hartree energ DENC   =    -17500.96840417
  -exchange      EXHF   =         0.00000000
  -V(xc)+E(xc)   XCENC  =       344.36342872
  PAW double counting   =      9338.55709252    -9351.34878544
  entropy T*S    EENTRO =        -0.00000000
  eigenvalues    EBANDS =     -1285.79629492
  atomic energy  EATOM  =      3649.55606930
  Solvation  Ediel_sol  =        30.92560698
  ---------------------------------------------------
  free energy    TOTEN  =      -238.27173624 eV

  energy without entropy =     -238.27173624  energy(sigma->0) =     -238.27173624


--------------------------------------------------------------------------------------------------------




--------------------------------------- Iteration      1(  20)  ---------------------------------------


    POTLOK:  cpu time  133.7925: real time  133.9605
    SETDIJ:  cpu time    0.0337: real time    0.0338
    EDDIAG:  cpu time    5.8417: real time    5.8544
  RMM-DIIS:  cpu time   20.4673: real time   20.5145
    ORTHCH:  cpu time    0.3330: real time    0.3337
       DOS:  cpu time    0.0003: real time    0.0003
    CHARGE:  cpu time    2.3838: real time    2.3892
    MIXING:  cpu time    0.2345: real time    0.2349
    --------------------------------------------
      LOOP:  cpu time  163.0868: real time  163.3213

 eigenvalue-minimisations  :   365
 total energy-change (2. order) :-0.4226106E-01  (-0.2433401E-03)
 number of electron     102.9999998 magnetization       4.3695975
 augmentation part        1.8233227 magnetization       3.4471755

 Broyden mixing:
  rms(total) = 0.27393E-01    rms(broyden)= 0.27392E-01
  rms(prec ) = 0.27469E-01
  weight for this iteration     100.00

 eigenvalues of (default mixing * dielectric matrix)
  average eigenvalue GAMMA=   2.3745
 11.7442  6.7134  3.4450  2.1940  2.1940  1.6268  1.1877  1.1877  1.0279  0.8561
  0.8561  0.7117  0.6345  0.6195  0.6195

 Free energy of the ion-electron system (eV)
  ---------------------------------------------------
  alpha Z        PSCENC =         0.74392250
  Ewald energy   TEWEN  =     14535.69562825
  -Hartree energ DENC   =    -17499.48180815
  -exchange      EXHF   =         0.00000000
  -V(xc)+E(xc)   XCENC  =       344.32196880
  PAW double counting   =      9331.74160948    -9344.53612005
  entropy T*S    EENTRO =        -0.00000000
  eigenvalues    EBANDS =     -1285.47671075
  atomic energy  EATOM  =      3649.55606930
  Solvation  Ediel_sol  =        29.12144332
  ---------------------------------------------------
  free energy    TOTEN  =      -238.31399730 eV

  energy without entropy =     -238.31399730  energy(sigma->0) =     -238.31399730


--------------------------------------------------------------------------------------------------------




--------------------------------------- Iteration      1(  21)  ---------------------------------------


    POTLOK:  cpu time  132.0849: real time  132.2842
    SETDIJ:  cpu time    0.0363: real time    0.0363
    EDDIAG:  cpu time    5.8645: real time    5.8774
  RMM-DIIS:  cpu time   20.5160: real time   20.5628
    ORTHCH:  cpu time    0.3338: real time    0.3345
       DOS:  cpu time    0.0003: real time    0.0003
    CHARGE:  cpu time    2.3863: real time    2.3915
    MIXING:  cpu time    0.2472: real time    0.2477
    --------------------------------------------
      LOOP:  cpu time  161.4693: real time  161.7349

 eigenvalue-minimisations  :   360
 total energy-change (2. order) :-0.3836970E-02  (-0.1663338E-03)
 number of electron     102.9999998 magnetization       2.4236812
 augmentation part        1.8238167 magnetization       1.5013227

 Broyden mixing:
  rms(total) = 0.18452E-01    rms(broyden)= 0.18452E-01
  rms(prec ) = 0.18558E-01
  weight for this iteration     100.00

 eigenvalues of (default mixing * dielectric matrix)
  average eigenvalue GAMMA=   2.6305
 14.2667  8.0589  4.3306  2.3475  2.3475  1.9886  1.2286  1.2286  1.1615  0.9345
  0.8343  0.7906  0.7066  0.6292  0.6172  0.6172

 Free energy of the ion-electron system (eV)
  ---------------------------------------------------
  alpha Z        PSCENC =         0.74392250
  Ewald energy   TEWEN  =     14535.69562825
  -Hartree energ DENC   =    -17498.89425715
  -exchange      EXHF   =         0.00000000
  -V(xc)+E(xc)   XCENC  =       344.33721183
  PAW double counting   =      9327.40915888    -9340.20563730
  entropy T*S    EENTRO =        -0.00000000
  eigenvalues    EBANDS =     -1284.88375039
  atomic energy  EATOM  =      3649.55606930
  Solvation  Ediel_sol  =        27.92381980
  ---------------------------------------------------
  free energy    TOTEN  =      -238.31783427 eV

  energy without entropy =     -238.31783427  energy(sigma->0) =     -238.31783427


--------------------------------------------------------------------------------------------------------




--------------------------------------- Iteration      1(  22)  ---------------------------------------


    POTLOK:  cpu time  132.0347: real time  132.1763
    SETDIJ:  cpu time    0.0342: real time    0.0343
    EDDIAG:  cpu time    5.8666: real time    5.8795
  RMM-DIIS:  cpu time   20.4956: real time   20.5420
    ORTHCH:  cpu time    0.3407: real time    0.3416
       DOS:  cpu time    0.0003: real time    0.0003
    CHARGE:  cpu time    2.3839: real time    2.3894
    MIXING:  cpu time    0.2577: real time    0.2583
    --------------------------------------------
      LOOP:  cpu time  161.4137: real time  161.6217

 eigenvalue-minimisations  :   360
 total energy-change (2. order) :-0.2785474E-01  (-0.3655338E-03)
 number of electron     102.9999998 magnetization       1.6742857
 augmentation part        1.8238296 magnetization       0.7521058

 Broyden mixing:
  rms(total) = 0.10740E-01    rms(broyden)= 0.10740E-01
  rms(prec ) = 0.10899E-01
  weight for this iteration     100.00

 eigenvalues of (default mixing * dielectric matrix)
  average eigenvalue GAMMA=   2.8649
 18.0744  8.9451  4.8292  2.6740  2.1743  2.1743  1.4148  1.1814  1.1814  1.0151
  0.8969  0.8561  0.7320  0.6182  0.6182  0.6287  0.6886

 Free energy of the ion-electron system (eV)
[...]
      5     -20.8038      1.00000
      6     -19.8930      1.00000
      7     -18.7290      1.00000
      8     -18.5791      1.00000
      9     -18.2028      1.00000
     10     -17.8356      1.00000
     11     -17.7384      1.00000
     12     -16.9323      1.00000
     13     -16.5167      1.00000
     14     -15.5429      1.00000
     15     -14.8438      1.00000
     16     -14.7883      1.00000
     17     -14.3409      1.00000
     18     -13.3139      1.00000
     19     -13.2881      1.00000
     20     -12.5508      1.00000
     21     -12.2944      1.00000
     22     -12.2473      1.00000
     23     -11.6569      1.00000
     24     -11.3123      1.00000
     25     -11.3045      1.00000
     26     -10.9473      1.00000
     27     -10.7434      1.00000
     28     -10.5456      1.00000
     29     -10.3313      1.00000
     30     -10.1366      1.00000
     31     -10.0626      1.00000
     32     -10.0528      1.00000
     33      -9.7505      1.00000
     34      -9.7502      1.00000
     35      -9.6230      1.00000
     36      -9.5576      1.00000
     37      -9.2644      1.00000
     38      -9.0967      1.00000
     39      -9.0729      1.00000
     40      -8.9678      1.00000
     41      -8.8146      1.00000
     42      -8.0611      1.00000
     43      -8.0534      1.00000
     44      -7.9879      1.00000
     45      -7.8271      1.00000
     46      -7.0527      1.00000
     47      -6.4830      1.00000
     48      -5.8233      1.00000
     49      -5.7231      1.00000
     50      -5.0395      1.00000
     51      -4.6656      1.00000
     52      -3.0628      0.00000
     53      -1.3338      0.00000
     54      -1.1946      0.00000
     55      -0.7977      0.00000
     56      -0.6056      0.00000
     57      -0.5733      0.00000
     58      -0.2611      0.00000
     59      -0.1929      0.00000
     60      -0.1121      0.00000
     61      -0.0026      0.00000
     62       0.0067      0.00000
     63       0.0096      0.00000
     64       0.0738      0.00000
     65       0.0859      0.00000
     66       0.0906      0.00000
     67       0.0927      0.00000
     68       0.1087      0.00000
     69       0.1139      0.00000
     70       0.1320      0.00000
     71       0.1636      0.00000
     72       0.1641      0.00000
     73       0.1697      0.00000
     74       0.1707      0.00000
     75       0.1708      0.00000
     76       0.1797      0.00000
     77       0.1953      0.00000
     78       0.1964      0.00000
     79       0.2034      0.00000
     80       0.2187      0.00000
     81       0.2217      0.00000
     82       0.2220      0.00000
     83       0.2471      0.00000
     84       0.2488      0.00000
     85       0.2568      0.00000
     86       0.2633      0.00000
     87       0.2783      0.00000
     88       0.2919      0.00000
     89       0.2991      0.00000
     90       0.3250      0.00000


--------------------------------------------------------------------------------------------------------


 soft charge-density along one line, spin component           1
         0         1         2         3         4         5         6         7         8         9
 total charge-density along one line
 
 soft charge-density along one line, spin component           2
         0         1         2         3         4         5         6         7         8         9
 total charge-density along one line
 
 pseudopotential strength for first ion, spin component:           1
 10.312  13.716   0.002   0.000   0.003  -0.007  -0.000  -0.007
 13.716  18.242   0.003   0.000   0.004  -0.009  -0.000  -0.009
  0.002   0.003  -4.426  -0.000  -0.002   8.659   0.000   0.004
  0.000   0.000  -0.000  -4.424  -0.000   0.000   8.658   0.000
  0.003   0.004  -0.002  -0.000  -4.427   0.004   0.000   8.660
 -0.007  -0.009   8.659   0.000   0.004 -19.079  -0.000  -0.010
 -0.000  -0.000   0.000   8.658   0.000  -0.000 -19.084  -0.000
 -0.007  -0.009   0.004   0.000   8.660  -0.010  -0.000 -19.084
 pseudopotential strength for first ion, spin component:           2
 10.294  13.692   0.002   0.000   0.003  -0.007  -0.000  -0.007
 13.692  18.209   0.003   0.000   0.003  -0.009  -0.000  -0.009
  0.002   0.003  -4.427  -0.000  -0.002   8.663   0.000   0.004
  0.000   0.000  -0.000  -4.408  -0.000   0.000   8.633   0.000
  0.003   0.003  -0.002  -0.000  -4.427   0.004   0.000   8.665
 -0.007  -0.009   8.663   0.000   0.004 -19.096  -0.000  -0.010
 -0.000  -0.000   0.000   8.633   0.000  -0.000 -19.048  -0.000
 -0.007  -0.009   0.004   0.000   8.665  -0.010  -0.000 -19.100
 total augmentation occupancy for first ion, spin component:           1
  7.429  -3.215  -0.105  -0.001  -0.279  -0.014  -0.000  -0.037
 -3.215   1.465   0.032   0.000   0.129   0.005   0.000   0.016
 -0.105   0.032   1.713  -0.000  -0.166   0.152  -0.000  -0.016
 -0.001   0.000  -0.000   1.215   0.001  -0.000   0.066   0.000
 -0.279   0.129  -0.166   0.001   1.658  -0.016   0.000   0.148
 -0.014   0.005   0.152  -0.000  -0.016   0.015   0.000  -0.001
 -0.000   0.000  -0.000   0.066   0.000   0.000   0.004   0.000
 -0.037   0.016  -0.016   0.000   0.148  -0.001   0.000   0.014
 total augmentation occupancy for first ion, spin component:           2
  0.005   0.001  -0.004  -0.000  -0.000  -0.001  -0.000  -0.000
  0.001  -0.001   0.003  -0.000  -0.000   0.000   0.000   0.000
 -0.004   0.003   0.002  -0.000  -0.000   0.000   0.000  -0.000
 -0.000  -0.000  -0.000   0.101  -0.000   0.000  -0.000   0.000
 -0.000  -0.000  -0.000  -0.000   0.002  -0.000   0.000   0.000
 -0.001   0.000   0.000   0.000  -0.000   0.000   0.000  -0.000
 -0.000   0.000   0.000  -0.000   0.000   0.000  -0.000   0.000
 -0.000   0.000  -0.000   0.000   0.000  -0.000   0.000  -0.000


------------------------ aborting loop because EDIFF is reached ----------------------------------------


    CHARGE:  cpu time    2.4431: real time    2.4480
    FORLOC:  cpu time    0.7770: real time    0.7784
    FORNL :  cpu time    8.4771: real time    8.4949
    STRESS:  cpu time   25.8581: real time   25.9142
    FORCOR:  cpu time    7.1622: real time    7.1745
    FORHAR:  cpu time    1.5760: real time    1.5745
    MIXING:  cpu time    0.1160: real time    0.1163
    OFIELD:  cpu time    0.0001: real time    0.0001

 ---------------------------------------------------------------------------------------------

         DFTD3 V3.0 Rev 1        
 Edisp (eV)   -0.55675

 E6    (eV) :    -0.2468
 E8    (eV) :    -0.3099
 % E8        : 55.67
    FORVDW:  cpu time    0.0156: real time    0.0242

  FORCE on cell =-STRESS in cart. coord.  units (eV):
  Direction    XX          YY          ZZ          XY          YZ          ZX
  --------------------------------------------------------------------------------------
  Alpha Z     0.74392     0.74392     0.74392
  Ewald   11082.27804  4765.40757 -1390.17928     0.24018     1.32354    41.97514
  Hartree 11056.80790  5318.61852  1050.33720     0.21243     0.86749    33.44892
  E(xc)    -377.51101  -378.69530  -387.27944     0.00012     0.00236     0.03399
  Local  -23143.19980-11115.59473  -867.93291    -0.45194    -2.14590   -74.72057
  n-local   -73.06667   -76.64280   -80.58939     0.00043    -0.00216     0.00325
  augment   -17.90667   -18.10991   -17.32565    -0.00002     0.00049    -0.00108
  Kinetic  1472.70308  1505.47605  1688.73051    -0.00482    -0.04373    -0.73906
  Fock        0.00000     0.00000     0.00000     0.00000     0.00000     0.00000
  vdW        -0.15389     0.04260     0.02285    -0.00000     0.00002    -0.00042
  -------------------------------------------------------------------------------------
  Total       0.69490     1.24594    -3.47218    -0.00361     0.00211     0.00016
  in kB       0.01740     0.03119    -0.08692    -0.00009     0.00005     0.00000
  external pressure =       -0.01 kB  Pullay stress =        0.00 kB


 VOLUME and BASIS-vectors are now :
 -----------------------------------------------------------------------------
  energy-cutoff  :      500.00
  volume of cell :    64000.00
      direct lattice vectors                 reciprocal lattice vectors
    40.000000000  0.000000000  0.000000000     0.025000000  0.000000000  0.000000000
     0.000000000 40.000000000  0.000000000     0.000000000  0.025000000  0.000000000
     0.000000000  0.000000000 40.000000000     0.000000000  0.000000000  0.025000000

  length of vectors
    40.000000000 40.000000000 40.000000000     0.025000000  0.025000000  0.025000000


 FORCES acting on ions
    electron-ion (+dipol)            ewald-force                    non-local-force                 convergence-correction
 -----------------------------------------------------------------------------------------------
   -.645E+01 -.957E+02 0.362E-01   0.461E+01 0.925E+02 -.469E-01   0.240E+01 0.227E+01 0.126E-01   0.995E-03 0.941E-03 0.404E-04
   0.331E+02 -.177E+03 -.129E+00   -.327E+02 0.178E+03 0.139E+00   0.520E+00 -.171E+01 -.685E-02   -.172E-02 0.669E-03 0.332E-06
   0.609E+02 0.480E+01 0.370E+00   -.559E+02 -.748E+01 -.356E+00   -.366E+01 0.201E+01 -.647E-02   0.326E-03 0.214E-02 0.246E-03
   0.150E+03 0.177E+03 0.615E+00   -.149E+03 -.178E+03 -.615E+00   0.772E+00 0.154E+01 0.132E-02   0.114E-02 0.142E-02 0.422E-03
   0.623E+02 0.236E+03 0.262E+00   -.605E+02 -.237E+03 -.255E+00   -.425E+00 0.130E+01 -.441E-02   -.112E-02 0.152E-02 0.244E-03
   0.421E+02 0.849E+02 0.284E+00   -.435E+02 -.856E+02 -.290E+00   0.203E+01 0.167E-01 0.876E-02   0.967E-03 0.230E-02 0.627E-04
   -.421E+02 0.849E+02 -.244E+00   0.435E+02 -.856E+02 0.251E+00   -.203E+01 0.141E-01 -.108E-01   -.786E-03 0.215E-02 -.981E-04
   -.623E+02 0.236E+03 -.793E-01   0.606E+02 -.237E+03 0.713E-01   0.425E+00 0.130E+01 0.592E-02   0.145E-02 0.206E-02 -.173E-03
   -.150E+03 0.177E+03 -.531E+00   0.149E+03 -.178E+03 0.531E+00   -.773E+00 0.154E+01 -.278E-02   -.175E-02 0.158E-02 -.231E-03
   -.609E+02 0.480E+01 -.381E+00   0.559E+02 -.748E+01 0.363E+00   0.366E+01 0.201E+01 0.138E-01   -.457E-03 0.187E-02 -.243E-03
   -.331E+02 -.177E+03 -.381E-01   0.326E+02 0.178E+03 0.305E-01   -.523E+00 -.171E+01 0.368E-02   0.115E-02 0.905E-03 -.109E-03
   0.645E+01 -.957E+02 -.882E-01   -.462E+01 0.925E+02 0.958E-01   -.240E+01 0.227E+01 -.770E-02   -.688E-03 0.152E-02 -.323E-03
   -.117E+03 -.226E+03 -.405E+00   0.116E+03 0.230E+03 0.405E+00   -.601E+00 -.496E+01 0.439E-03   -.693E-02 0.109E-02 -.295E-03
   -.246E+03 0.842E+02 -.660E+00   0.249E+03 -.873E+02 0.664E+00   -.414E+01 0.282E+01 -.582E-02   -.366E-02 -.521E-02 0.599E-04
   0.246E+03 0.843E+02 0.750E+00   -.249E+03 -.873E+02 -.758E+00   0.415E+01 0.281E+01 0.110E-01   0.327E-02 -.501E-02 -.851E-04
   0.117E+03 -.226E+03 0.540E+00   -.116E+03 0.230E+03 -.544E+00   0.602E+00 -.495E+01 0.504E-02   0.649E-02 0.115E-02 0.736E-04
   -.128E-01 0.307E+03 0.771E-01   0.161E-01 -.340E+03 -.863E-01   -.319E-02 0.315E+02 0.890E-02   -.591E-03 0.617E-02 -.154E-03
   -.183E+03 -.609E+02 -.986E+00   0.183E+03 0.612E+02 0.105E+01   -.232E+01 -.101E+01 -.624E-01   -.354E-02 0.985E-03 -.475E-03
   0.183E+03 -.609E+02 0.576E+00   -.183E+03 0.612E+02 -.568E+00   0.232E+01 -.101E+01 -.278E-02   0.456E-02 0.774E-03 0.576E-03
   0.724E-02 -.352E+03 -.165E+00   -.784E-02 0.358E+03 0.169E+00   0.117E-02 -.765E+01 -.410E-02   -.486E-04 0.381E-02 -.306E-03
   0.108E+02 0.100E+03 0.304E-01   -.976E+01 -.106E+03 -.260E-01   -.610E+00 0.576E+01 -.320E-02   -.378E-04 0.320E-04 0.281E-04
   -.445E+01 -.933E+02 0.339E-01   0.461E+01 0.986E+02 -.356E-01   -.388E+00 -.579E+01 0.142E-02   0.375E-03 0.986E-04 -.337E-05
   -.866E+00 -.645E+02 0.594E+02   -.153E+01 0.667E+02 -.639E+02   0.228E+01 -.233E+01 0.452E+01   -.804E-03 -.171E-03 0.532E-03
   -.281E+00 -.646E+02 -.593E+02   -.216E+01 0.667E+02 0.638E+02   0.232E+01 -.233E+01 -.449E+01   -.831E-03 -.145E-03 -.510E-03
   -.809E+02 -.505E+02 -.441E+00   0.862E+02 0.519E+02 0.471E+00   -.558E+01 -.150E+01 -.320E-01   -.603E-04 0.831E-03 -.706E-05
   -.913E+02 -.242E+02 -.452E+00   0.958E+02 0.273E+02 0.481E+00   -.477E+01 -.326E+01 -.294E-01   0.602E-03 -.392E-03 -.915E-05
   -.475E+02 0.484E+02 -.588E+02   0.476E+02 -.517E+02 0.633E+02   -.255E+00 0.328E+01 -.451E+01   -.748E-03 -.302E-03 -.436E-03
   -.480E+02 0.481E+02 0.588E+02   0.480E+02 -.513E+02 -.633E+02   -.293E+00 0.325E+01 0.452E+01   -.747E-03 -.323E-03 0.326E-03
   -.649E+02 0.739E+02 -.151E+00   0.691E+02 -.773E+02 0.161E+00   -.461E+01 0.357E+01 -.102E-01   0.243E-03 0.153E-03 -.584E-04
   -.108E+02 0.100E+03 0.380E-01   0.977E+01 -.106E+03 -.461E-01   0.610E+00 0.576E+01 0.692E-02   0.660E-04 -.147E-04 -.310E-04
   0.649E+02 0.739E+02 0.212E+00   -.691E+02 -.773E+02 -.226E+00   0.461E+01 0.357E+01 0.138E-01   -.169E-03 0.195E-03 0.854E-04
   0.479E+02 0.482E+02 -.587E+02   -.480E+02 -.515E+02 0.632E+02   0.289E+00 0.327E+01 -.451E+01   0.736E-03 -.300E-03 -.337E-03
   0.476E+02 0.483E+02 0.589E+02   -.476E+02 -.515E+02 -.634E+02   0.259E+00 0.327E+01 0.451E+01   0.724E-03 -.280E-03 0.441E-03
   0.913E+02 -.242E+02 0.298E+00   -.959E+02 0.273E+02 -.314E+00   0.477E+01 -.326E+01 0.162E-01   -.535E-03 -.423E-03 0.111E-04
   0.854E+00 -.646E+02 -.594E+02   0.154E+01 0.667E+02 0.639E+02   -.228E+01 -.233E+01 -.451E+01   0.827E-03 -.120E-03 -.488E-03
   0.304E+00 -.645E+02 0.594E+02   0.213E+01 0.666E+02 -.639E+02   -.232E+01 -.233E+01 0.449E+01   0.838E-03 -.106E-03 0.428E-03
   0.809E+02 -.505E+02 0.444E+00   -.862E+02 0.519E+02 -.473E+00   0.558E+01 -.150E+01 0.311E-01   0.102E-03 0.824E-03 -.319E-04
   0.446E+01 -.933E+02 -.985E-01   -.462E+01 0.986E+02 0.103E+00   0.389E+00 -.579E+01 -.442E-02   -.404E-03 0.208E-03 -.199E-04
 -----------------------------------------------------------------------------------------------
   0.240E-02 -.297E+02 0.286E-01   -.287E-12 -.853E-13 -.454E-13   -.205E-02 0.297E+02 -.313E-01   -.758E-03 0.226E-01 -.847E-03
 
 
 POSITION                                       TOTAL-FORCE (eV/Angst)
 -----------------------------------------------------------------------------------
     18.62887     20.16032     19.99537         0.006093     -0.001540      0.000379
     17.36255     20.74318     19.99179        -0.004969     -0.009264      0.000209
     16.18679     19.94987     19.98646         0.001953     -0.009557      0.002825
     16.35380     18.53407     19.98694         0.000528      0.006672     -0.002400
     17.61579     17.97139     19.99139        -0.007163      0.006421     -0.001448
     18.81323     18.74040     19.99549        -0.010754      0.010289      0.000654
     21.18693     18.74055     20.00438         0.009130      0.007188     -0.001900
     22.38434     17.97163     20.00781         0.009508      0.006238      0.001794
     23.64633     18.53441     20.01274        -0.001619      0.004789      0.000487
     23.81325     19.95020     20.01411        -0.002817     -0.009994     -0.001101
     22.63746     20.74344     20.00939         0.000727     -0.006491     -0.000657
     21.37115     20.16042     20.00539        -0.005744      0.002792      0.001545
     25.20102     21.96900     20.01885        -0.005438      0.005645      0.002513
     26.24936     19.68419     20.02104         0.006174     -0.002742      0.000994
     13.75064     19.68380     19.97902        -0.004958     -0.005799     -0.000126
     14.79887     21.96863     19.98092         0.006753      0.007971     -0.002476
     20.00011     18.07110     19.99976        -0.000436      0.004462     -0.000124
     25.06002     20.52217     20.01883         0.001982     -0.004448     -0.000025
     14.93993     20.52177     19.98246         0.001509     -0.003133     -0.000435
     19.99993     21.25589     20.00090         0.000589     -0.002244     -0.000177
     17.72494     16.88550     19.99196         0.005935     -0.014781     -0.000114
     22.71136     21.83066     20.00918        -0.000703      0.000621      0.000579
     24.74111     22.42066     19.12378         0.003615      0.004408     -0.000458
     24.73130     22.42090     20.90885         0.005654      0.003665     -0.003955
     26.26363     22.22885     20.02489         0.004505     -0.012599     -0.000520
     27.13820     20.32162     20.02659        -0.002479      0.016744      0.000574
     26.28673     19.03564     20.91164         0.005574     -0.003726      0.005781
     26.29418     19.04094     19.12684         0.004643     -0.003992     -0.004870
     24.51521     17.87842     20.01475        -0.011319      0.004060      0.001014
     22.27520     16.88568     20.00653        -0.005355     -0.012893      0.000047
     15.48489     17.87816     19.98429         0.011487      0.003215     -0.000762
     13.70664     19.03841     20.87175        -0.004612     -0.003321      0.003657
     13.71241     19.03734     19.08688        -0.005314     -0.003679     -0.005594
     12.86180     20.32116     19.97595         0.001283      0.017794     -0.000554
     15.25908     22.42131     20.87535        -0.003910      0.003524     -0.000502
     15.26813     22.41965     19.09022        -0.005263      0.003563      0.004329
     13.73625     22.22834     19.97508        -0.005252     -0.012201      0.000960
     17.28856     21.83035     19.99258         0.000463      0.002344     -0.000142
 -----------------------------------------------------------------------------------
    total drift:                               -0.000410      0.010925     -0.003596


--------------------------------------------------------------------------------------------------------



  FREE ENERGIE OF THE ION-ELECTRON SYSTEM (eV)
  ---------------------------------------------------
  free  energy   TOTEN  =      -239.10979681 eV

  energy  without entropy=     -239.10979681  energy(sigma->0) =     -239.10979681
 
 d Force = 0.1280724E-03[ 0.570E-04, 0.199E-03]  d Energy = 0.1271966E-03 0.876E-06
 d Force = 0.4857924E+00[ 0.486E+00, 0.486E+00]  d Ewald  = 0.4857924E+00 0.319E-07


--------------------------------------------------------------------------------------------------------


    POTLOK:  cpu time  114.2260: real time  114.3558


--------------------------------------------------------------------------------------------------------


 Conjugate gradient step on ions:
 trial-energy change:   -0.000127  1 .order   -0.000128   -0.000199   -0.000057
  (g-gl).g = 0.473E-03      g.g   = 0.523E-03  gl.gl    = 0.647E-03
 g(Force)  = 0.523E-03   g(Stress)= 0.000E+00 ortho     = 0.343E-04
 gamma     =   0.73003
 trial     =   0.36320
 opt step  =   0.50896  (harmonic =   0.50896) maximal distance =0.00128121
 next E    =  -239.109809   (d E  =  -0.00014)


--------------------------------------------------------------------------------------------------------


  
 reached required accuracy - stopping structural energy minimisation
 writing wavefunctions
     LOOP+:  cpu time  624.7353: real time  627.7023
    4ORBIT:  cpu time    0.0000: real time    0.0000

 total amount of memory used by VASP MPI-rank0   836063. kBytes
=======================================================================

   base      :      30000. kBytes
   nonlr-proj:       3419. kBytes
   fftplans  :     182426. kBytes
   grid      :     522727. kBytes
   one-center:         12. kBytes
   wavefun   :      97479. kBytes
 
  
  
 General timing and accounting informations for this job:
 ========================================================
  
                  Total CPU time used (sec):    30828.543
                            User time (sec):    29411.671
                          System time (sec):     1416.872
                         Elapsed time (sec):    30879.375
  
                   Maximum memory used (kb):     2521004.
                   Average memory used (kb):           0.
  
                          Minor page faults:    228747263
                          Major page faults:           21
                 Voluntary context switches:       553278
