 vasp.6.4.2 20Jul23 (build Oct 03 2024 14:39:03) complex                        
  
 executed on             LinuxIFC date 2024.10.26  08:50:44
 running   60 mpi-ranks, on    1 nodes
 distrk:  each k-point on   60 cores,    1 groups
 distr:  one band on NCORE=  10 cores,    6 groups


--------------------------------------------------------------------------------------------------------


 INCAR:
   SYSTEM = 113_red
   ISTART = 1
   ICHARG = 2
   INIWAV = 1
   METAGGA = R2SCAN
   LASPH = .TRUE.
   NELM = 100
   ALGO = fast  	
   ISPIN = 2
   EDIFF = 1E-05
   ISMEAR = 0
   SIGMA = 0.05
   PREC = accurate
   ENCUT = 500
   LREAL = auto  	
   LWAVE = .TRUE.
   LCHARG = .FALSE.
   LAECHG = .FALSE.
   LVHAR = .FALSE.
   LVTOT = .FALSE.
   EDIFFG = -0.02
   IBRION = 2
   NSW = 100
   ISIF = 2
   POTIM = 0.5
   IVDW = 12
   VDW_A1 = 0.49484001
   VDW_S8 = 0.78981345
   VDW_A2 = 5.73083694
   LPLANE = .TRUE.
   NCORE = 10
   LSCALU = .FALSE.
   NSIM = 4
   LSOL = .TRUE.
   EB_K = 35.6880
   LAMBDA_D_K = 3.04
   NELECT = 47
   TAU = 0

 POTCAR:    PAW_PBE C 08Apr2002                   
 POTCAR:    PAW_PBE Cl 06Sep2000                  
 POTCAR:    PAW_PBE O 08Apr2002                   
 POTCAR:    PAW_PBE H 15Jun2001                   
 -----------------------------------------------------------------------------
|                                                                             |
|           W    W    AA    RRRRR   N    N  II  N    N   GGGG   !!!           |
|           W    W   A  A   R    R  NN   N  II  NN   N  G    G  !!!           |
|           W    W  A    A  R    R  N N  N  II  N N  N  G       !!!           |
|           W WW W  AAAAAA  RRRRR   N  N N  II  N  N N  G  GGG   !            |
|           WW  WW  A    A  R   R   N   NN  II  N   NN  G    G                |
|           W    W  A    A  R    R  N    N  II  N    N   GGGG   !!!           |
|                                                                             |
|     You use a magnetic or noncollinear calculation, but did not specify     |
|     the initial magnetic moment with the MAGMOM tag. Note that a            |
|     default of 1 will be used for all atoms. This ferromagnetic setup       |
|     may break the symmetry of the crystal, in particular it may rule        |
|     out finding an antiferromagnetic solution. Thence, we recommend         |
|     setting the initial magnetic moment manually or verifying carefully     |
|     that this magnetic setup is desired.                                    |
|                                                                             |
 -----------------------------------------------------------------------------

 POTCAR:    PAW_PBE C 08Apr2002                   
   SHA256 =  253f7b50bb8d59471dbedb8285d89021f4a42ed1a2c5d38a03a736e69125dd95 C/POTCAR              
   COPYR  = (c) Copyright 08Apr2002 Georg Kresse                                                    
   COPYR  = This file is part of the software VASP. Any use, copying, and all other rights are regul
   COPYR  = If you do not have a valid VASP license, you may not use, copy or distribute this file. 
   VRHFIN =C: s2p2                                                                                  
   LEXCH  = PE                                                                                      
   EATOM  =   147.1560 eV,   10.8157 Ry                                                             
                                                                                                    
   TITEL  = PAW_PBE C 08Apr2002                                                                     
   LULTRA =        F    use ultrasoft PP ?                                                          
   IUNSCR =        1    unscreen: 0-lin 1-nonlin 2-no                                               
   RPACOR =    1.200    partial core radius                                                         
   POMASS =   12.011; ZVAL   =    4.000    mass and valenz                                          
   RCORE  =    1.500    outmost cutoff radius                                                       
   RWIGS  =    1.630; RWIGS  =    0.863    wigner-seitz radius (au A)                               
   ENMAX  =  400.000; ENMIN  =  300.000 eV                                                          
   ICORE  =        2    local potential                                                             
   LCOR   =        T    correct aug charges                                                         
   LPAW   =        T    paw PP                                                                      
   EAUG   =  644.873                                                                                
   DEXC   =    0.000                                                                                
   RMAX   =    1.529    core radius for proj-oper                                                   
   RAUG   =    1.300    factor for augmentation sphere                                              
   RDEP   =    1.501    radius for radial grids                                                     
   RDEPT  =    1.300    core radius for aug-charge                                                  
                                                                                                    
   Atomic configuration                                                                             
    4 entries                                                                                       
     n  l   j            E        occ.                                                              
     1  0  0.50      -273.3789   2.0000                                                             
     2  0  0.50       -13.7508   2.0000                                                             
     2  1  0.50        -5.2854   2.0000                                                             
     3  2  1.50        -5.4423   0.0000                                                             
   Description                                                                                      
     l       E           TYP  RCUT    TYP  RCUT                                                     
     0    -13.7508458     23  1.200                                                                 
     0     -8.2022199     23  1.200                                                                 
     1     -5.2854383     23  1.500                                                                 
     1     34.0145650     23  1.500                                                                 
     2     -5.4423304      7  1.500                                                                 
  local pseudopotential read in
  partial core-charges read in
  partial kinetic energy density read in
  atomic valenz-charges read in
  non local Contribution for L=           0  read in
    real space projection operators read in
  non local Contribution for L=           0  read in
    real space projection operators read in
  non local Contribution for L=           1  read in
    real space projection operators read in
  non local Contribution for L=           1  read in
    real space projection operators read in
    PAW grid and wavefunctions read in
 
   number of l-projection  operators is LMAX  =           4
   number of lm-projection operators is LMMAX =           8
 
 POTCAR:    PAW_PBE Cl 06Sep2000                  
   SHA256 =  9f1b6e6ed4247ac726a768b330d26d7667cc3c95a39ff49c1d064c2d9dcce931 Cl/POTCAR             
   COPYR  = (c) Copyright 06Sep2000 Georg Kresse                                                    
   COPYR  = This file is part of the software VASP. Any use, copying, and all other rights are regul
   COPYR  = If you do not have a valid VASP license, you may not use, copy or distribute this file. 
   VRHFIN =Cl: s2p5                                                                                 
   LEXCH  = PE                                                                                      
   EATOM  =   409.7259 eV,   30.1140 Ry                                                             
                                                                                                    
   TITEL  = PAW_PBE Cl 06Sep2000                                                                    
   LULTRA =        F    use ultrasoft PP ?                                                          
   IUNSCR =        1    unscreen: 0-lin 1-nonlin 2-no                                               
   RPACOR =    1.500    partial core radius                                                         
   POMASS =   35.453; ZVAL   =    7.000    mass and valenz                                          
   RCORE  =    1.900    outmost cutoff radius                                                       
   RWIGS  =    2.100; RWIGS  =    1.111    wigner-seitz radius (au A)                               
   ENMAX  =  262.472; ENMIN  =  196.854 eV                                                          
   ICORE  =        2    local potential                                                             
   LCOR   =        T    correct aug charges                                                         
   LPAW   =        T    paw PP                                                                      
   EAUG   =  356.192                                                                                
   DEXC   =    0.000                                                                                
   RMAX   =    1.945    core radius for proj-oper                                                   
   RAUG   =    1.300    factor for augmentation sphere                                              
   RDEP   =    2.020    radius for radial grids                                                     
   RDEPT  =    1.678    core radius for aug-charge                                                  
                                                                                                    
   Atomic configuration                                                                             
    6 entries                                                                                       
     n  l   j            E        occ.                                                              
     1  0  0.50     -2751.1850   2.0000                                                             
     2  0  0.50      -252.6861   2.0000                                                             
     2  1  1.50      -191.6157   6.0000                                                             
     3  0  0.50       -20.6916   2.0000                                                             
     3  1  0.50        -8.5949   5.0000                                                             
     3  2  1.50        -8.1635   0.0000                                                             
   Description                                                                                      
     l       E           TYP  RCUT    TYP  RCUT                                                     
     0    -20.6915656     23  1.900                                                                 
     0    -22.0521482     23  1.900                                                                 
     1     -8.5948577     23  1.900                                                                 
     1     -5.3847331     23  1.900                                                                 
     2     -8.1634956     23  1.900                                                                 
  local pseudopotential read in
  partial core-charges read in
  partial kinetic energy density read in
  atomic valenz-charges read in
  non local Contribution for L=           0  read in
    real space projection operators read in
  non local Contribution for L=           0  read in
    real space projection operators read in
  non local Contribution for L=           1  read in
    real space projection operators read in
  non local Contribution for L=           1  read in
    real space projection operators read in
    PAW grid and wavefunctions read in
 
   number of l-projection  operators is LMAX  =           4
   number of lm-projection operators is LMMAX =           8
 
 POTCAR:    PAW_PBE O 08Apr2002                   
   SHA256 =  818f92134a0a090dccd8ba1447fa70422a3b330e708bb4f08108d8ae51209ddf O/POTCAR              
   COPYR  = (c) Copyright 08Apr2002 Georg Kresse                                                    
   COPYR  = This file is part of the software VASP. Any use, copying, and all other rights are regul
   COPYR  = If you do not have a valid VASP license, you may not use, copy or distribute this file. 
   VRHFIN =O: s2p4                                                                                  
   LEXCH  = PE                                                                                      
   EATOM  =   432.3788 eV,   31.7789 Ry                                                             
                                                                                                    
   TITEL  = PAW_PBE O 08Apr2002                                                                     
   LULTRA =        F    use ultrasoft PP ?                                                          
   IUNSCR =        1    unscreen: 0-lin 1-nonlin 2-no                                               
   RPACOR =    1.200    partial core radius                                                         
   POMASS =   16.000; ZVAL   =    6.000    mass and valenz                                          
   RCORE  =    1.520    outmost cutoff radius                                                       
   RWIGS  =    1.550; RWIGS  =    0.820    wigner-seitz radius (au A)                               
   ENMAX  =  400.000; ENMIN  =  300.000 eV                                                          
   ICORE  =        2    local potential                                                             
   LCOR   =        T    correct aug charges                                                         
   LPAW   =        T    paw PP                                                                      
   EAUG   =  605.392                                                                                
   DEXC   =    0.000                                                                                
   RMAX   =    1.553    core radius for proj-oper                                                   
   RAUG   =    1.300    factor for augmentation sphere                                              
   RDEP   =    1.550    radius for radial grids                                                     
   RDEPT  =    1.329    core radius for aug-charge                                                  
                                                                                                    
   Atomic configuration                                                                             
    4 entries                                                                                       
     n  l   j            E        occ.                                                              
     1  0  0.50      -514.6923   2.0000                                                             
     2  0  0.50       -23.9615   2.0000                                                             
     2  1  0.50        -9.0305   4.0000                                                             
     3  2  1.50        -9.5241   0.0000                                                             
   Description                                                                                      
     l       E           TYP  RCUT    TYP  RCUT                                                     
     0    -23.9615318     23  1.200                                                                 
     0     -9.5240782     23  1.200                                                                 
     1     -9.0304911     23  1.520                                                                 
     1      8.1634956     23  1.520                                                                 
     2     -9.5240782      7  1.500                                                                 
  local pseudopotential read in
  partial core-charges read in
  partial kinetic energy density read in
  kinetic energy density of atom read in
  atomic valenz-charges read in
  non local Contribution for L=           0  read in
    real space projection operators read in
  non local Contribution for L=           0  read in
    real space projection operators read in
  non local Contribution for L=           1  read in
    real space projection operators read in
  non local Contribution for L=           1  read in
    real space projection operators read in
    PAW grid and wavefunctions read in
 
   number of l-projection  operators is LMAX  =           4
   number of lm-projection operators is LMMAX =           8
 
 POTCAR:    PAW_PBE H 15Jun2001                   
   SHA256 =  030f79b5d3ab3cf0e668861823c8fb652ff669f3e15e46930bd03bfd63a607b6 H/POTCAR              
   COPYR  = (c) Copyright 15Jun2001 Georg Kresse                                                    
   COPYR  = This file is part of the software VASP. Any use, copying, and all other rights are regul
   COPYR  = If you do not have a valid VASP license, you may not use, copy or distribute this file. 
   VRHFIN =H: ultrasoft test                                                                        
   LEXCH  = PE                                                                                      
   EATOM  =    12.4884 eV,    0.9179 Ry                                                             
                                                                                                    
   TITEL  = PAW_PBE H 15Jun2001                                                                     
   LULTRA =        F    use ultrasoft PP ?                                                          
   IUNSCR =        0    unscreen: 0-lin 1-nonlin 2-no                                               
   RPACOR =    0.000    partial core radius                                                         
   POMASS =    1.000; ZVAL   =    1.000    mass and valenz                                          
   RCORE  =    1.100    outmost cutoff radius                                                       
   RWIGS  =    0.700; RWIGS  =    0.370    wigner-seitz radius (au A)                               
   ENMAX  =  250.000; ENMIN  =  200.000 eV                                                          
   RCLOC  =    0.701    cutoff for local pot                                                        
   LCOR   =        T    correct aug charges                                                         
   LPAW   =        T    paw PP                                                                      
   EAUG   =  400.000                                                                                
   RMAX   =    1.123    core radius for proj-oper                                                   
   RAUG   =    1.200    factor for augmentation sphere                                              
   RDEP   =    1.112    radius for radial grids                                                     
   RDEPT  =    0.926    core radius for aug-charge                                                  
                                                                                                    
   Atomic configuration                                                                             
    2 entries                                                                                       
     n  l   j            E        occ.                                                              
     1  0  0.50        -6.4927   1.0000                                                             
     2  1  0.50        -3.4015   0.0000                                                             
   Description                                                                                      
     l       E           TYP  RCUT    TYP  RCUT                                                     
     0     -6.4927494     23  1.100                                                                 
     0      6.8029130     23  1.100                                                                 
     1     -4.0817478     23  1.100                                                                 
  local pseudopotential read in
  atomic valenz-charges read in
  non local Contribution for L=           0  read in
    real space projection operators read in
  non local Contribution for L=           0  read in
    real space projection operators read in
  non local Contribution for L=           1  read in
    real space projection operators read in
    PAW grid and wavefunctions read in
 
   number of l-projection  operators is LMAX  =           3
   number of lm-projection operators is LMMAX =           5
 
 Optimization of the real space projectors (new method)

 maximal supplied QI-value         = 25.13
 optimisation between [QCUT,QGAM] = [ 11.31, 22.87] = [ 35.82,146.48] Ry 
 Optimized for a Real-space Cutoff    1.03 Angstroem

   l    n(q)    QCUT    max X(q) W(low)/X(q) W(high)/X(q)  e(spline) 
   0      7    11.310   115.676    0.20E-03    0.90E-03    0.20E-06
   0      7    11.310    87.132    0.20E-03    0.89E-03    0.19E-06
   1      6    11.310     4.429    0.16E-03    0.28E-03    0.12E-06
   1      6    11.310     2.733    0.12E-03    0.21E-03    0.99E-07
 Optimization of the real space projectors (new method)

 maximal supplied QI-value         = 19.84
 optimisation between [QCUT,QGAM] = [ 11.31, 22.82] = [ 35.82,145.81] Ry 
 Optimized for a Real-space Cutoff    1.20 Angstroem

   l    n(q)    QCUT    max X(q) W(low)/X(q) W(high)/X(q)  e(spline) 
   0      8    11.310   168.010    0.15E-03    0.18E-03    0.47E-07
   0      8    11.310   164.674    0.14E-03    0.17E-03    0.46E-07
   1      8    11.310    69.222    0.18E-03    0.20E-03    0.94E-07
   1      8    11.310    56.786    0.17E-03    0.19E-03    0.92E-07
 Optimization of the real space projectors (new method)

 maximal supplied QI-value         = 24.76
 optimisation between [QCUT,QGAM] = [ 11.39, 22.77] = [ 36.31,145.25] Ry 
 Optimized for a Real-space Cutoff    1.10 Angstroem

   l    n(q)    QCUT    max X(q) W(low)/X(q) W(high)/X(q)  e(spline) 
   0      7    11.387    20.381    0.22E-03    0.48E-03    0.18E-06
   0      7    11.387    15.268    0.22E-03    0.52E-03    0.19E-06
   1      7    11.387     5.964    0.22E-03    0.73E-03    0.24E-06
   1      7    11.387     5.382    0.19E-03    0.60E-03    0.21E-06
 Optimization of the real space projectors (new method)

 maximal supplied QI-value         = 34.20
 optimisation between [QCUT,QGAM] = [ 11.29, 22.57] = [ 35.68,142.71] Ry 
 Optimized for a Real-space Cutoff    1.20 Angstroem

   l    n(q)    QCUT    max X(q) W(low)/X(q) W(high)/X(q)  e(spline) 
   0      8    11.287    19.460    0.22E-03    0.50E-03    0.19E-06
   0      8    11.287    12.209    0.21E-03    0.48E-03    0.18E-06
   1      8    11.287     4.655    0.21E-03    0.11E-04    0.26E-06
  PAW_PBE C 08Apr2002                   :
 energy of atom  1       EATOM= -147.1560
 kinetic energy error for atom=    0.0076 (will be added to EATOM!!)
  PAW_PBE Cl 06Sep2000                  :
 energy of atom  2       EATOM= -409.7259
 kinetic energy error for atom=    0.0030 (will be added to EATOM!!)
  PAW_PBE O 08Apr2002                   :
 energy of atom  3       EATOM= -432.3788
 kinetic energy error for atom=    0.0224 (will be added to EATOM!!)
  PAW_PBE H 15Jun2001                   :
 energy of atom  4       EATOM=  -12.4884
 kinetic energy error for atom=    0.0020 (will be added to EATOM!!)
 
 
 POSCAR: C Cl O H
  positions in direct lattice
  velocities in cartesian coordinates

 METAGGA = R2SCAN                                      LMAXTAU =  6    LMIXTAU =  F

 exchange correlation table for  LEXCH =        8
   RHO(1)=    0.500       N(1)  =     2000
   RHO(2)=  100.500       N(2)  =     4000
 


--------------------------------------------------------------------------------------------------------


 ion  position               nearest neighbor table
   1  0.497  0.469  0.500-  14 1.09   2 1.39   6 1.44
   2  0.463  0.476  0.500-  13 1.09   1 1.39   3 1.41
   3  0.452  0.510  0.500-  12 1.09   2 1.41   4 1.41
   4  0.476  0.536  0.500-  11 1.09   5 1.39   3 1.41
   5  0.510  0.529  0.500-  10 1.09   4 1.39   6 1.44
   6  0.522  0.495  0.500-   7 1.42   5 1.44   1 1.44
   7  0.556  0.485  0.500-   9 1.24   6 1.42   8 1.93
   8  0.587  0.521  0.500-   7 1.93
   9  0.569  0.456  0.500-   7 1.24
  10  0.528  0.549  0.500-   5 1.09
  11  0.468  0.562  0.500-   4 1.09
  12  0.425  0.516  0.500-   3 1.09
  13  0.445  0.456  0.500-   2 1.09
  14  0.505  0.443  0.500-   1 1.09
 
  LATTYP: Found a simple cubic cell.
 ALAT       =    40.0000000000
  
  Lattice vectors:
  
 A1 = (  40.0000000000,   0.0000000000,   0.0000000000)
 A2 = (   0.0000000000,  40.0000000000,   0.0000000000)
 A3 = (   0.0000000000,   0.0000000000,  40.0000000000)


Analysis of symmetry for initial positions (statically):
=====================================================================
 Subroutine PRICEL returns:
 Original cell was already a primitive cell.
 

 Routine SETGRP: Setting up the symmetry group for a 
 simple cubic supercell.


 Subroutine GETGRP returns: Found  1 space group operations
 (whereof  1 operations were pure point group operations)
 out of a pool of 48 trial point group operations.


The static configuration has the point symmetry C_1 .


Analysis of symmetry for dynamics (positions and initial velocities):
=====================================================================
 Subroutine PRICEL returns:
 Original cell was already a primitive cell.
 

 Routine SETGRP: Setting up the symmetry group for a 
 simple cubic supercell.


 Subroutine GETGRP returns: Found  1 space group operations
 (whereof  1 operations were pure point group operations)
 out of a pool of 48 trial point group operations.


The dynamic configuration has the point symmetry C_1 .


Analysis of constrained symmetry for selective dynamics:
=====================================================================
 Subroutine PRICEL returns:
 Original cell was already a primitive cell.
 

 Routine SETGRP: Setting up the symmetry group for a 
 simple cubic supercell.


 Subroutine GETGRP returns: Found  1 space group operations
 (whereof  1 operations were pure point group operations)
 out of a pool of 48 trial point group operations.


The constrained configuration has the point symmetry C_1 .


Analysis of structural, dynamic, and magnetic symmetry:
=====================================================================
 Subroutine PRICEL returns:
 Original cell was already a primitive cell.
 

 Routine SETGRP: Setting up the symmetry group for a 
 simple cubic supercell.


 Subroutine GETGRP returns: Found  1 space group operations
 (whereof  1 operations were pure point group operations)
 out of a pool of 48 trial point group operations.


The overall configuration has the point symmetry C_1 .


 Subroutine INISYM returns: Found  1 space group operations
 (whereof  1 operations are pure point group operations),
 and found     1 'primitive' translations


----------------------------------------------------------------------------------------

                                     Primitive cell                                     

  volume of cell :   64000.0000

  direct lattice vectors                    reciprocal lattice vectors
    40.000000000  0.000000000  0.000000000     0.025000000  0.000000000  0.000000000
     0.000000000 40.000000000  0.000000000     0.000000000  0.025000000  0.000000000
     0.000000000  0.000000000 40.000000000     0.000000000  0.000000000  0.025000000

  length of vectors
    40.000000000 40.000000000 40.000000000     0.025000000  0.025000000  0.025000000

  position of ions in fractional coordinates (direct lattice)
     0.496693778  0.468648325  0.499981487
     0.462889779  0.476317238  0.499982591
     0.451671263  0.509753355  0.499995022
     0.475798841  0.535518340  0.500015442
     0.509767185  0.528506833  0.500018536
     0.521693131  0.494668037  0.500001523
     0.555668158  0.484545619  0.500004992
     0.587040251  0.521054259  0.500014079
     0.568650046  0.456328048  0.499996572
     0.527783967  0.548943191  0.500031416
     0.467689034  0.561620473  0.500025687
     0.425032558  0.515554208  0.499992757
     0.444717435  0.455904169  0.499967494
     0.504903574  0.442638904  0.499972404

  ion indices of the primitive-cell ions
   primitive index   ion index
                 1           1
                 2           2
                 3           3
                 4           4
                 5           5
                 6           6
                 7           7
                 8           8
                 9           9
                10          10
                11          11
                12          12
                13          13
                14          14

----------------------------------------------------------------------------------------

 
 
 KPOINTS: K-Point Grid                            

Automatic generation of k-mesh.
 Grid dimensions read from file:
 generate k-points for:    1    1    1

 Generating k-lattice:

  Cartesian coordinates                     Fractional coordinates (reciprocal lattice)
     0.025000000  0.000000000  0.000000000     1.000000000  0.000000000  0.000000000
     0.000000000  0.025000000  0.000000000     0.000000000  1.000000000  0.000000000
     0.000000000  0.000000000  0.025000000     0.000000000  0.000000000  1.000000000

  Length of vectors
     0.025000000  0.025000000  0.025000000

  Shift w.r.t. Gamma in fractional coordinates (k-lattice)
     0.000000000  0.000000000  0.000000000

 
 Subroutine IBZKPT returns following result:
 ===========================================
 
 Found      1 irreducible k-points:
 
 Following reciprocal coordinates:
            Coordinates               Weight
  0.000000  0.000000  0.000000      1.000000
 
 Following cartesian coordinates:
            Coordinates               Weight
  0.000000  0.000000  0.000000      1.000000
 


--------------------------------------------------------------------------------------------------------




 Dimension of arrays:
   k-points           NKPTS =      1   k-points in BZ     NKDIM =      1   number of bands    NBANDS=     42
   number of dos      NEDOS =    301   number of ions     NIONS =     14
   non local maximal  LDIM  =      4   non local SUM 2l+1 LMDIM =      8
   total plane-waves  NPLWV = ******
   max r-space proj   IRMAX =   2915   max aug-charges    IRDMAX=  11613
   dimension x,y,z NGX =   294 NGY =  294 NGZ =  294
   dimension x,y,z NGXF=   588 NGYF=  588 NGZF=  588
   support grid    NGXF=   588 NGYF=  588 NGZF=  588
   ions per type =               7   1   1   5
   NGX,Y,Z   is equivalent  to a cutoff of  12.22, 12.22, 12.22 a.u.
   NGXF,Y,Z  is equivalent  to a cutoff of  24.44, 24.44, 24.44 a.u.

 SYSTEM =  113_red                                 
 POSCAR =  C Cl O H                                

 Startparameter for this run:
   NWRITE =      2    write-flag & timer
   PREC   = accura    normal or accurate (medium, high low for compatibility)
   ISTART =      1    job   : 0-new  1-cont  2-samecut
   ICHARG =      2    charge: 1-file 2-atom 10-const
   ISPIN  =      2    spin polarized calculation?
   LNONCOLLINEAR =      F non collinear calculations
   LSORBIT =      F    spin-orbit coupling
   INIWAV =      1    electr: 0-lowe 1-rand  2-diag
   LASPH  =      T    aspherical Exc in radial PAW
 Electronic Relaxation 1
   ENCUT  =  500.0 eV  36.75 Ry    6.06 a.u.  72.93 72.93 72.93*2*pi/ulx,y,z
   ENINI  =  500.0     initial cutoff
   ENAUG  =  644.9 eV  augmentation charge cutoff
   NELM   =    100;   NELMIN=  2; NELMDL=  0     # of ELM steps 
   EDIFF  = 0.1E-04   stopping-criterion for ELM
   LREAL  =      T    real-space projection
   NLSPLINE    = F    spline interpolate recip. space projectors
   LCOMPAT=      F    compatible to vasp.4.4
   GGA_COMPAT  = T    GGA compatible to vasp.4.4-vasp.4.6
   LMAXPAW     = -100 max onsite density
   LMAXMIX     =    2 max onsite mixed and CHGCAR
   VOSKOWN=      0    Vosko Wilk Nusair interpolation
   ROPT   =   -0.00025  -0.00025  -0.00025  -0.00025
 Ionic relaxation
   EDIFFG = -.2E-01   stopping-criterion for IOM
   NSW    =    100    number of steps for IOM
   NBLOCK =      1;   KBLOCK =    100    inner block; outer block 
   IBRION =      2    ionic relax: 0-MD 1-quasi-New 2-CG
   NFREE  =      1    steps in history (QN), initial steepest desc. (CG)
   ISIF   =      2    stress and relaxation
   IWAVPR =     11    prediction:  0-non 1-charg 2-wave 3-comb
   ISYM   =      2    0-nonsym 1-usesym 2-fastsym
   LCORR  =      T    Harris-Foulkes like correction to forces

   POTIM  = 0.5000    time-step for ionic-motion
   TEIN   =    0.0    initial temperature
   TEBEG  =    0.0;   TEEND  =   0.0 temperature during run
   SMASS  =  -3.00    Nose mass-parameter (am)
   estimated Nose-frequenzy (Omega)   =  0.10E-29 period in steps = 0.13E+47 mass=  -0.366E-25a.u.
   SCALEE = 1.0000    scale energy and forces
   NPACO  =    256;   APACO  = 10.0  distance and # of slots for P.C.
   PSTRESS=    0.0 pullay stress

  Mass of Ions in am
   POMASS =  12.01 35.45 16.00  1.00
  Ionic Valenz
   ZVAL   =   4.00  7.00  6.00  1.00
  Atomic Wigner-Seitz radii
   RWIGS  =  -1.00 -1.00 -1.00 -1.00
  virtual crystal weights 
   VCA    =   1.00  1.00  1.00  1.00
   NELECT =      47.0000    total number of electrons
   NUPDOWN=      -1.0000    fix difference up-down

 DOS related values:
   EMIN   =  10.00;   EMAX   =-10.00  energy-range for DOS
   EFERMI =   0.00;   METHOD = LEGACY      
   ISMEAR =     0;   SIGMA  =   0.05  broadening in eV -4-tet -1-fermi 0-gaus

 Electronic relaxation 2 (details)
   IALGO  =     68    algorithm
   LDIAG  =      T    sub-space diagonalisation (order eigenvalues)
   LSUBROT=      F    optimize rotation matrix (better conditioning)
   TURBO    =      0    0=normal 1=particle mesh
   IRESTART =      0    0=no restart 2=restart with 2 vectors
   NREBOOT  =      0    no. of reboots
   NMIN     =      0    reboot dimension
   EREF     =   0.00    reference energy to select bands
   IMIX   =      4    mixing-type and parameters
     AMIX     =   0.40;   BMIX     =  1.00
     AMIX_MAG =   1.60;   BMIX_MAG =  1.00
     AMIN     =   0.10
     WC   =   100.;   INIMIX=   1;  MIXPRE=   1;  MAXMIX= -45

 Intra band minimization:
   WEIMIN = 0.0010     energy-eigenvalue tresh-hold
   EBREAK =  0.60E-07  absolut break condition
   DEPER  =   0.30     relativ break condition  

   TIME   =   0.40     timestep for ELM

  volume/ion in A,a.u.               =    4571.43     30849.52
  Fermi-wavevector in a.u.,A,eV,Ry     =   0.147700  0.279113  0.296815  0.021815
  Thomas-Fermi vector in A             =   0.819491
 
 Write flags
   LWAVE        =      T    write WAVECAR
   LDOWNSAMPLE  =      F    k-point downsampling of WAVECAR
   LCHARG       =      F    write CHGCAR
   LVTOT        =      F    write LOCPOT, total local potential
   LVHAR        =      F    write LOCPOT, Hartree potential only
   LELF         =      F    write electronic localiz. function (ELF)
   LORBIT       =      0    0 simple, 1 ext, 2 COOP (PROOUT), +10 PAW based schemes


 Dipole corrections
   LMONO  =      F    monopole corrections only (constant potential shift)
   LDIPOL =      F    correct potential (dipole corrections)
   IDIPOL =      0    1-x, 2-y, 3-z, 4-all directions 
   EPSILON=  1.0000000 bulk dielectric constant

 Exchange correlation treatment:
   GGA     =    --    GGA type
   LEXCH   =     8    internal setting for exchange type
   LIBXC   =     F    Libxc                    
   VOSKOWN =     0    Vosko Wilk Nusair interpolation
   LHFCALC =     F    Hartree Fock is set to
   LHFONE  =     F    Hartree Fock one center treatment
   AEXX    =    0.0000 exact exchange contribution

 Linear response parameters
   LEPSILON=     F    determine dielectric tensor
   LRPA    =     F    only Hartree local field effects (RPA)
   LNABLA  =     F    use nabla operator in PAW spheres
   LVEL    =     F    velocity operator in full k-point grid
   CSHIFT  =0.1000    complex shift for real part using Kramers Kronig
   OMEGAMAX=  -1.0    maximum frequency
   DEG_THRESHOLD= 0.2000000E-02 threshold for treating states as degnerate
   RTIME   =   -0.100 relaxation time in fs
  (WPLASMAI=    0.000 imaginary part of plasma frequency in eV, 0.658/RTIME)
   DFIELD  = 0.0000000 0.0000000 0.0000000 field for delta impulse in time
 
  Optional k-point grid parameters
   LKPOINTS_OPT  =     F    use optional k-point grid
   KPOINTS_OPT_MODE=     1    mode for optional k-point grid
 
 Orbital magnetization related:
   ORBITALMAG=     F  switch on orbital magnetization
   LCHIMAG   =     F  perturbation theory with respect to B field
   DQ        =  0.001000  dq finite difference perturbation B field
   LLRAUG    =     F  two centre corrections for induced B field
   LBONE     =     F  B-component reconstruction in AE one-centre
   LVGVCALC  =     T  calculate vGv susceptibility
   LVGVAPPL  =     F  apply vGv susceptibility instead of pGv for G=0

 Random number generation:
   RANDOM_GENERATOR = DEFAULT
   PCG_SEED         = not used
 Solvation model:
   LSOL    =     T         switch on solvation model
   EB_K    = 35.688000     relative permittivity of the bulk solvent
   SIGMA_K =  0.600000     width of the dielectric cavity
   NC_K    =  0.002500     cutoff charge density
   TAU     =  0.000000     cavity surface tension
   LAMBDA_D_K    =  3.040000     Debye length in Angstroms
   LRHOB     =     F     write boundcharge  density
   LRHOION     =     F     write ioniccharge density



--------------------------------------------------------------------------------------------------------


 conjugate gradient relaxation of ions
   using selective dynamics as specified on POSCAR
 charge density and potential will be updated during run
 spin polarized calculation
 RMM-DIIS sequential band-by-band and
  variant of blocked Davidson during initial phase
 perform sub-space diagonalisation
    before iterative eigenvector-optimisation
 modified Broyden-mixing scheme, WC =      100.0
 initial mixing is a Kerker type mixing with AMIX =  0.4000 and BMIX =      1.0000
 Hartree-type preconditioning will be used
 using additional bands           18
 real space projection scheme for non local part
 use partial core corrections
 calculate Harris-corrections to forces 
   (improved forces if not selfconsistent)
 use gradient corrections 
 use of overlap-Matrix (Vanderbilt PP)
 Gauss-broadening in eV      SIGMA  =   0.05


--------------------------------------------------------------------------------------------------------


  energy-cutoff  :      500.00
  volume of cell :    64000.00
      direct lattice vectors                 reciprocal lattice vectors
    40.000000000  0.000000000  0.000000000     0.025000000  0.000000000  0.000000000
     0.000000000 40.000000000  0.000000000     0.000000000  0.025000000  0.000000000
     0.000000000  0.000000000 40.000000000     0.000000000  0.000000000  0.025000000

  length of vectors
    40.000000000 40.000000000 40.000000000     0.025000000  0.025000000  0.025000000


 
 old parameters found on file WAVECAR:
  energy-cutoff  :      500.00
  volume of cell :    64000.00
      direct lattice vectors                 reciprocal lattice vectors
    40.000000000  0.000000000  0.000000000     0.025000000  0.000000000  0.000000000
     0.000000000 40.000000000  0.000000000     0.000000000  0.025000000  0.000000000
     0.000000000  0.000000000 40.000000000     0.000000000  0.000000000  0.025000000

  length of vectors

 
 k-points in units of 2pi/SCALE and weight: K-Point Grid                            
   0.00000000  0.00000000  0.00000000       1.000
 
 k-points in reciprocal lattice and weights: K-Point Grid                            
   0.00000000  0.00000000  0.00000000       1.000
 
 position of ions in fractional coordinates (direct lattice) 
   0.49669378  0.46864832  0.49998149
   0.46288978  0.47631724  0.49998259
   0.45167126  0.50975336  0.49999502
   0.47579884  0.53551834  0.50001544
   0.50976719  0.52850683  0.50001854
   0.52169313  0.49466804  0.50000152
   0.55566816  0.48454562  0.50000499
   0.58704025  0.52105426  0.50001408
   0.56865005  0.45632805  0.49999657
   0.52778397  0.54894319  0.50003142
   0.46768903  0.56162047  0.50002569
   0.42503256  0.51555421  0.49999276
   0.44471744  0.45590417  0.49996749
   0.50490357  0.44263890  0.49997240
 
 position of ions in cartesian coordinates  (Angst):
  19.86775111 18.74593299 19.99925949
  18.51559114 19.05268952 19.99930363
  18.06685051 20.39013421 19.99980086
  19.03195365 21.42073361 20.00061767
  20.39068740 21.14027333 20.00074143
  20.86772522 19.78672148 20.00006092
  22.22672630 19.38182477 20.00019968
  23.48161006 20.84217037 20.00056316
  22.74600184 18.25312191 19.99986286
  21.11135870 21.95772764 20.00125662
  18.70756137 22.46481892 20.00102746
  17.00130233 20.62216830 19.99971027
  17.78869741 18.23616677 19.99869977
  20.19614295 17.70555618 19.99889617
 


--------------------------------------------------------------------------------------------------------


 k-point   1 :   0.0000 0.0000 0.0000  plane waves: 1624525

 maximum and minimum number of plane-waves per node :    162473   162437

 maximum number of plane-waves:   1624525
 maximum index in each direction: 
   IXMAX=   72   IYMAX=   72   IZMAX=   72
   IXMIN=  -72   IYMIN=  -72   IZMIN=  -72


 real space projection operators:
  total allocation   :       1631.01 KBytes
  max/ min on nodes  :        166.41        160.14


 parallel 3D FFT for wavefunctions:
    minimum data exchange during FFTs selected (reduces bandwidth)
 parallel 3D FFT for charge:
    minimum data exchange during FFTs selected (reduces bandwidth)


 total amount of memory used by VASP MPI-rank0  1021643. kBytes
=======================================================================

   base      :      30000. kBytes
   nonlr-proj:        891. kBytes
   fftplans  :     192295. kBytes
   grid      :     762047. kBytes
   one-center:         12. kBytes
   wavefun   :      36398. kBytes
 
     INWAV:  cpu time      4.8357: real time      5.7033
 Broyden mixing: mesh for mixing (old mesh)
   NGX =145   NGY =145   NGZ =145
  (NGX  =588   NGY  =588   NGZ  =588)
  gives a total of ****** points

 initial charge density was supplied:
 charge density of overlapping atoms calculated
 number of electron      46.0000000 magnetization      14.0000000
 keeping initial charge density in first step


--------------------------------------------------------------------------------------------------------


 Maximum index for non-local projection operator          323
 Maximum index for augmentation-charges          335 (set IRDMAX)


--------------------------------------------------------------------------------------------------------


 First call to EWALD:  gamma=   0.044
 Maximum number of real-space cells 3x 3x 3
 Maximum number of reciprocal cells 3x 3x 3

    FEWALD:  cpu time      0.0015: real time      0.0015


--------------------------------------- Ionic step        1  -------------------------------------------




--------------------------------------- Iteration      1(   1)  ---------------------------------------


    POTLOK:  cpu time    137.9664: real time    138.6664
    SETDIJ:  cpu time      0.3073: real time      0.3083
     EDDAV:  cpu time     64.4048: real time     64.7089
       DOS:  cpu time      0.0004: real time      0.0004
    CHARGE:  cpu time      6.8450: real time      6.8781
    MIXING:  cpu time      0.1016: real time      0.1021
    --------------------------------------------
      LOOP:  cpu time    209.6255: real time    210.6642

 eigenvalue-minimisations  :   240
 total energy-change (2. order) :-0.1112195E+03  (-0.5746445E+01)
 number of electron      47.0000003 magnetization      13.4991388
 augmentation part        0.5448613 magnetization      12.6021573

 Broyden mixing:
  rms(total) = 0.23341E+01    rms(broyden)= 0.23338E+01
  rms(prec ) = 0.23640E+01
  weight for this iteration     100.00

 Free energy of the ion-electron system (eV)
  ---------------------------------------------------
  alpha Z        PSCENC =         0.15041143
  Ewald energy   TEWEN  =      4235.75152180
  -Hartree energ DENC   =     -5646.08541347
  -exchange      EXHF   =         0.00000000
  -V(xc)+E(xc)   XCENC  =       181.71815403
  PAW double counting   =      1409.39622815    -1433.05333870
  entropy T*S    EENTRO =        -0.00000000
  eigenvalues    EBANDS =      -786.51071053
  atomic energy  EATOM  =      1934.55042093
  Solvation  Ediel_sol  =        -7.13677618
  ---------------------------------------------------
  free energy    TOTEN  =      -111.21950255 eV

  energy without entropy =     -111.21950255  energy(sigma->0) =     -111.21950255


--------------------------------------------------------------------------------------------------------




--------------------------------------- Iteration      1(   2)  ---------------------------------------


    POTLOK:  cpu time    132.1912: real time    132.8329
    SETDIJ:  cpu time      0.3080: real time      0.3090
    EDDIAG:  cpu time     12.5527: real time     12.6112
  RMM-DIIS:  cpu time     70.8056: real time     71.1161
    ORTHCH:  cpu time      0.0955: real time      0.0960
       DOS:  cpu time      0.0006: real time      0.0006
    CHARGE:  cpu time      6.9142: real time      6.9470
    MIXING:  cpu time      0.1085: real time      0.1090
    --------------------------------------------
      LOOP:  cpu time    222.9763: real time    224.0218

 eigenvalue-minimisations  :   169
 total energy-change (2. order) : 0.2082536E+02  (-0.5118735E+01)
 number of electron      47.0000002 magnetization      12.9538044
 augmentation part        0.4978094 magnetization      12.0096987

 Broyden mixing:
  rms(total) = 0.11469E+01    rms(broyden)= 0.11469E+01
  rms(prec ) = 0.11693E+01
  weight for this iteration     100.00

 eigenvalues of (default mixing * dielectric matrix)
  average eigenvalue GAMMA=   0.9481
  0.9481

 Free energy of the ion-electron system (eV)
  ---------------------------------------------------
  alpha Z        PSCENC =         0.15041143
  Ewald energy   TEWEN  =      4235.75152180
  -Hartree energ DENC   =     -5747.64460683
  -exchange      EXHF   =         0.00000000
  -V(xc)+E(xc)   XCENC  =       198.25028104
  PAW double counting   =      2207.60337545    -2232.13401196
  entropy T*S    EENTRO =        -0.00000000
  eigenvalues    EBANDS =      -687.21418104
  atomic energy  EATOM  =      1934.55042093
  Solvation  Ediel_sol  =         0.29264593
  ---------------------------------------------------
  free energy    TOTEN  =       -90.39414326 eV

  energy without entropy =      -90.39414326  energy(sigma->0) =      -90.39414326


--------------------------------------------------------------------------------------------------------




--------------------------------------- Iteration      1(   3)  ---------------------------------------


    POTLOK:  cpu time    128.9385: real time    129.5721
    SETDIJ:  cpu time      0.3088: real time      0.3100
    EDDIAG:  cpu time     12.6277: real time     12.6828
  RMM-DIIS:  cpu time     74.7685: real time     75.0990
    ORTHCH:  cpu time      0.0966: real time      0.0972
       DOS:  cpu time      0.0005: real time      0.0005
    CHARGE:  cpu time      7.1589: real time      7.1915
    MIXING:  cpu time      0.1106: real time      0.1111
    --------------------------------------------
      LOOP:  cpu time    224.0100: real time    225.0643

 eigenvalue-minimisations  :   180
 total energy-change (2. order) :-0.1236797E+02  (-0.1934585E+01)
 number of electron      47.0000002 magnetization      12.2920892
 augmentation part        0.4592381 magnetization      11.3326492

 Broyden mixing:
  rms(total) = 0.69503E+00    rms(broyden)= 0.69498E+00
  rms(prec ) = 0.70875E+00
  weight for this iteration     100.00

 eigenvalues of (default mixing * dielectric matrix)
  average eigenvalue GAMMA=   1.1192
  0.7748  1.4636

 Free energy of the ion-electron system (eV)
  ---------------------------------------------------
  alpha Z        PSCENC =         0.15041143
  Ewald energy   TEWEN  =      4235.75152180
  -Hartree energ DENC   =     -5823.84494781
  -exchange      EXHF   =         0.00000000
  -V(xc)+E(xc)   XCENC  =       190.88228833
  PAW double counting   =      2932.32623632    -2957.35682272
  entropy T*S    EENTRO =        -0.00000000
  eigenvalues    EBANDS =      -626.03945287
  atomic energy  EATOM  =      1934.55042093
  Solvation  Ediel_sol  =        10.81823603
  ---------------------------------------------------
  free energy    TOTEN  =      -102.76210856 eV

  energy without entropy =     -102.76210856  energy(sigma->0) =     -102.76210856


--------------------------------------------------------------------------------------------------------




--------------------------------------- Iteration      1(   4)  ---------------------------------------


    POTLOK:  cpu time    129.2872: real time    129.9172
    SETDIJ:  cpu time      0.3076: real time      0.3086
    EDDIAG:  cpu time     12.5565: real time     12.6120
  RMM-DIIS:  cpu time     83.4256: real time     83.8102
    ORTHCH:  cpu time      0.0998: real time      0.1004
       DOS:  cpu time      0.0006: real time      0.0006
    CHARGE:  cpu time      7.0442: real time      7.0759
    MIXING:  cpu time      0.1151: real time      0.1157
    --------------------------------------------
      LOOP:  cpu time    232.8367: real time    233.9406

 eigenvalue-minimisations  :   210
 total energy-change (2. order) :-0.5391752E+01  (-0.9440237E+00)
 number of electron      47.0000002 magnetization      11.6628564
 augmentation part        0.4336334 magnetization      10.7131701

 Broyden mixing:
  rms(total) = 0.43897E+00    rms(broyden)= 0.43892E+00
  rms(prec ) = 0.44930E+00
  weight for this iteration     100.00

 eigenvalues of (default mixing * dielectric matrix)
  average eigenvalue GAMMA=   1.2159
  1.8878  1.0807  0.6793

 Free energy of the ion-electron system (eV)
  ---------------------------------------------------
  alpha Z        PSCENC =         0.15041143
  Ewald energy   TEWEN  =      4235.75152180
  -Hartree energ DENC   =     -5884.48287742
  -exchange      EXHF   =         0.00000000
  -V(xc)+E(xc)   XCENC  =       188.56893054
  PAW double counting   =      3593.94631358    -3619.08989429
  entropy T*S    EENTRO =        -0.00000000
  eigenvalues    EBANDS =      -584.25876219
  atomic energy  EATOM  =      1934.55042093
  Solvation  Ediel_sol  =        26.71007532
  ---------------------------------------------------
  free energy    TOTEN  =      -108.15386031 eV

  energy without entropy =     -108.15386031  energy(sigma->0) =     -108.15386031


--------------------------------------------------------------------------------------------------------




--------------------------------------- Iteration      1(   5)  ---------------------------------------


    POTLOK:  cpu time    132.3170: real time    132.9514
    SETDIJ:  cpu time      0.3477: real time      0.3488
    EDDIAG:  cpu time     12.6720: real time     12.7308
  RMM-DIIS:  cpu time     95.7627: real time     96.1817
    ORTHCH:  cpu time      0.0993: real time      0.0999
       DOS:  cpu time      0.0004: real time      0.0004
    CHARGE:  cpu time      6.8907: real time      6.9254
    MIXING:  cpu time      0.1181: real time      0.1187
    --------------------------------------------
      LOOP:  cpu time    248.2079: real time    249.3570

 eigenvalue-minimisations  :   254
 total energy-change (2. order) :-0.1622910E+01  (-0.2051882E+00)
 number of electron      47.0000001 magnetization      10.8337399
 augmentation part        0.4391319 magnetization       9.8887208

 Broyden mixing:
  rms(total) = 0.26982E+00    rms(broyden)= 0.26981E+00
  rms(prec ) = 0.27942E+00
  weight for this iteration     100.00

 eigenvalues of (default mixing * dielectric matrix)
  average eigenvalue GAMMA=   1.3703
  2.3971  1.5832  0.8499  0.6511

 Free energy of the ion-electron system (eV)
  ---------------------------------------------------
  alpha Z        PSCENC =         0.15041143
  Ewald energy   TEWEN  =      4235.75152180
  -Hartree energ DENC   =     -5910.59429651
  -exchange      EXHF   =         0.00000000
  -V(xc)+E(xc)   XCENC  =       187.78614373
  PAW double counting   =      3903.15053665    -3928.20138041
  entropy T*S    EENTRO =        -0.00000000
  eigenvalues    EBANDS =      -576.93988459
  atomic energy  EATOM  =      1934.55042093
  Solvation  Ediel_sol  =        44.56975636
  ---------------------------------------------------
  free energy    TOTEN  =      -109.77677063 eV

  energy without entropy =     -109.77677063  energy(sigma->0) =     -109.77677063


--------------------------------------------------------------------------------------------------------




--------------------------------------- Iteration      1(   6)  ---------------------------------------


    POTLOK:  cpu time    130.3151: real time    130.9508
    SETDIJ:  cpu time      0.3436: real time      0.3449
    EDDIAG:  cpu time     12.5376: real time     12.6013
  RMM-DIIS:  cpu time     94.6783: real time     95.1019
    ORTHCH:  cpu time      0.0995: real time      0.1001
       DOS:  cpu time      0.0004: real time      0.0004
    CHARGE:  cpu time      7.0819: real time      7.1145
    MIXING:  cpu time      0.1231: real time      0.1238
    --------------------------------------------
      LOOP:  cpu time    245.1796: real time    246.3377

 eigenvalue-minimisations  :   251
 total energy-change (2. order) :-0.8515444E+00  (-0.1274207E+00)
 number of electron      47.0000001 magnetization      10.3029096
 augmentation part        0.4406739 magnetization       9.3629173

 Broyden mixing:
  rms(total) = 0.15418E+00    rms(broyden)= 0.15417E+00
  rms(prec ) = 0.16303E+00
  weight for this iteration     100.00

 eigenvalues of (default mixing * dielectric matrix)
  average eigenvalue GAMMA=   1.3788
  2.7184  1.6627  1.1042  0.7780  0.6307

 Free energy of the ion-electron system (eV)
  ---------------------------------------------------
  alpha Z        PSCENC =         0.15041143
  Ewald energy   TEWEN  =      4235.75152180
  -Hartree energ DENC   =     -5936.74329437
  -exchange      EXHF   =         0.00000000
  -V(xc)+E(xc)   XCENC  =       187.48487507
  PAW double counting   =      4140.90564750    -4165.78552277
  entropy T*S    EENTRO =        -0.00000000
  eigenvalues    EBANDS =      -574.36486377
  atomic energy  EATOM  =      1934.55042093
  Solvation  Ediel_sol  =        67.42248916
  ---------------------------------------------------
  free energy    TOTEN  =      -110.62831503 eV

  energy without entropy =     -110.62831503  energy(sigma->0) =     -110.62831503


--------------------------------------------------------------------------------------------------------




--------------------------------------- Iteration      1(   7)  ---------------------------------------


    POTLOK:  cpu time    126.5083: real time    127.1056
    SETDIJ:  cpu time      0.3071: real time      0.3081
    EDDIAG:  cpu time     12.6065: real time     12.6633
  RMM-DIIS:  cpu time     97.6564: real time     98.0841
    ORTHCH:  cpu time      0.1011: real time      0.1017
       DOS:  cpu time      0.0003: real time      0.0003
    CHARGE:  cpu time      6.9268: real time      6.9590
    MIXING:  cpu time      0.1289: real time      0.1296
    --------------------------------------------
      LOOP:  cpu time    244.2354: real time    245.3518

 eigenvalue-minimisations  :   262
 total energy-change (2. order) : 0.4598851E+00  (-0.4210515E-01)
 number of electron      47.0000001 magnetization       9.5274441
 augmentation part        0.4355197 magnetization       8.5913245

 Broyden mixing:
  rms(total) = 0.12403E+00    rms(broyden)= 0.12402E+00
  rms(prec ) = 0.13156E+00
  weight for this iteration     100.00

 eigenvalues of (default mixing * dielectric matrix)
  average eigenvalue GAMMA=   1.3562
  2.8075  1.9028  1.0304  1.0304  0.7316  0.6345

 Free energy of the ion-electron system (eV)
  ---------------------------------------------------
  alpha Z        PSCENC =         0.15041143
  Ewald energy   TEWEN  =      4235.75152180
  -Hartree energ DENC   =     -5951.01506447
  -exchange      EXHF   =         0.00000000
  -V(xc)+E(xc)   XCENC  =       188.14054481
  PAW double counting   =      4171.64835315    -4196.49720809
  entropy T*S    EENTRO =        -0.00000000
  eigenvalues    EBANDS =      -572.72452985
  atomic energy  EATOM  =      1934.55042093
  Solvation  Ediel_sol  =        79.82712040
  ---------------------------------------------------
  free energy    TOTEN  =      -110.16842990 eV

  energy without entropy =     -110.16842990  energy(sigma->0) =     -110.16842990


--------------------------------------------------------------------------------------------------------




--------------------------------------- Iteration      1(   8)  ---------------------------------------


    POTLOK:  cpu time    125.4226: real time    126.0492
    SETDIJ:  cpu time      0.3394: real time      0.3406
    EDDIAG:  cpu time     12.4797: real time     12.5417
  RMM-DIIS:  cpu time     96.7382: real time     97.1724
    ORTHCH:  cpu time      0.0966: real time      0.0972
       DOS:  cpu time      0.0004: real time      0.0004
    CHARGE:  cpu time      7.0118: real time      7.0430
    MIXING:  cpu time      0.1354: real time      0.1361
    --------------------------------------------
      LOOP:  cpu time    242.2242: real time    243.3807

 eigenvalue-minimisations  :   259
 total energy-change (2. order) : 0.9966649E+00  (-0.4043351E-01)
 number of electron      47.0000001 magnetization       8.2619445
 augmentation part        0.4327386 magnetization       7.3289037

 Broyden mixing:
  rms(total) = 0.91882E-01    rms(broyden)= 0.91879E-01
  rms(prec ) = 0.97629E-01
  weight for this iteration     100.00

 eigenvalues of (default mixing * dielectric matrix)
  average eigenvalue GAMMA=   1.5616
  3.5444  2.5480  1.5111  1.1525  0.8321  0.7229  0.6201

 Free energy of the ion-electron system (eV)
  ---------------------------------------------------
  alpha Z        PSCENC =         0.15041143
  Ewald energy   TEWEN  =      4235.75152180
  -Hartree energ DENC   =     -5966.64942190
  -exchange      EXHF   =         0.00000000
  -V(xc)+E(xc)   XCENC  =       189.13031648
  PAW double counting   =      4150.41861905    -4175.21941376
  entropy T*S    EENTRO =        -0.00000000
  eigenvalues    EBANDS =      -573.10639323
  atomic energy  EATOM  =      1934.55042093
  Solvation  Ediel_sol  =        95.80217419
  ---------------------------------------------------
  free energy    TOTEN  =      -109.17176502 eV

  energy without entropy =     -109.17176502  energy(sigma->0) =     -109.17176502


--------------------------------------------------------------------------------------------------------




--------------------------------------- Iteration      1(   9)  ---------------------------------------


    POTLOK:  cpu time    126.8445: real time    127.4651
    SETDIJ:  cpu time      0.3084: real time      0.3094
    EDDIAG:  cpu time     12.6268: real time     12.6834
  RMM-DIIS:  cpu time     96.8712: real time     97.2947
    ORTHCH:  cpu time      0.1001: real time      0.1008
       DOS:  cpu time      0.0005: real time      0.0006
    CHARGE:  cpu time      6.8890: real time      6.9249
    MIXING:  cpu time      0.1440: real time      0.1449
    --------------------------------------------
      LOOP:  cpu time    243.7846: real time    244.9238

 eigenvalue-minimisations  :   259
 total energy-change (2. order) : 0.7819034E+00  (-0.2552998E-01)
 number of electron      47.0000001 magnetization       7.5401988
 augmentation part        0.4318530 magnetization       6.6096790

 Broyden mixing:
  rms(total) = 0.58804E-01    rms(broyden)= 0.58802E-01
  rms(prec ) = 0.61591E-01
  weight for this iteration     100.00

 eigenvalues of (default mixing * dielectric matrix)
  average eigenvalue GAMMA=   1.6405
  4.5175  2.6529  1.6932  1.0646  1.0646  0.6158  0.7805  0.7351

 Free energy of the ion-electron system (eV)
  ---------------------------------------------------
  alpha Z        PSCENC =         0.15041143
  Ewald energy   TEWEN  =      4235.75152180
  -Hartree energ DENC   =     -5990.66235744
  -exchange      EXHF   =         0.00000000
  -V(xc)+E(xc)   XCENC  =       189.97533361
  PAW double counting   =      4123.73445977    -4148.49970779
  entropy T*S    EENTRO =        -0.00000000
  eigenvalues    EBANDS =      -571.90921340
  atomic energy  EATOM  =      1934.55042093
  Solvation  Ediel_sol  =       118.51926951
  ---------------------------------------------------
  free energy    TOTEN  =      -108.38986158 eV

  energy without entropy =     -108.38986158  energy(sigma->0) =     -108.38986158


--------------------------------------------------------------------------------------------------------




--------------------------------------- Iteration      1(  10)  ---------------------------------------


    POTLOK:  cpu time    123.0255: real time    123.6162
    SETDIJ:  cpu time      0.3079: real time      0.3090
    EDDIAG:  cpu time     12.4301: real time     12.4859
  RMM-DIIS:  cpu time     97.6429: real time     98.0634
    ORTHCH:  cpu time      0.0964: real time      0.0970
       DOS:  cpu time      0.0004: real time      0.0004
    CHARGE:  cpu time      7.2542: real time      7.2873
    MIXING:  cpu time      0.1532: real time      0.1541
    --------------------------------------------
      LOOP:  cpu time    240.9107: real time    242.0133

 eigenvalue-minimisations  :   262
 total energy-change (2. order) : 0.5371584E+00  (-0.1283336E-01)
 number of electron      47.0000001 magnetization       6.8173034
 augmentation part        0.4310744 magnetization       5.8885157

 Broyden mixing:
  rms(total) = 0.42688E-01    rms(broyden)= 0.42687E-01
  rms(prec ) = 0.44255E-01
  weight for this iteration     100.00

 eigenvalues of (default mixing * dielectric matrix)
  average eigenvalue GAMMA=   1.7312
  5.8434  2.6958  1.6675  1.4706  0.8902  0.8902  0.7961  0.6163  0.7101

 Free energy of the ion-electron system (eV)
  ---------------------------------------------------
  alpha Z        PSCENC =         0.15041143
  Ewald energy   TEWEN  =      4235.75152180
  -Hartree energ DENC   =     -6002.00156810
  -exchange      EXHF   =         0.00000000
  -V(xc)+E(xc)   XCENC  =       190.62636038
  PAW double counting   =      4112.60355196    -4137.38456498
  entropy T*S    EENTRO =        -0.00000000
  eigenvalues    EBANDS =      -569.98167939
  atomic energy  EATOM  =      1934.55042093
  Solvation  Ediel_sol  =       127.83284280
  ---------------------------------------------------
  free energy    TOTEN  =      -107.85270317 eV

  energy without entropy =     -107.85270317  energy(sigma->0) =     -107.85270317


--------------------------------------------------------------------------------------------------------




--------------------------------------- Iteration      1(  11)  ---------------------------------------


    POTLOK:  cpu time    121.3223: real time    121.9062
    SETDIJ:  cpu time      0.3436: real time      0.3448
    EDDIAG:  cpu time     12.4925: real time     12.5539
  RMM-DIIS:  cpu time     97.6329: real time     98.1044
    ORTHCH:  cpu time      0.0989: real time      0.0995
       DOS:  cpu time      0.0005: real time      0.0005
    CHARGE:  cpu time      7.1114: real time      7.1449
    MIXING:  cpu time      0.1602: real time      0.1611
    --------------------------------------------
      LOOP:  cpu time    239.1623: real time    240.3153

 eigenvalue-minimisations  :   262
 total energy-change (2. order) : 0.6726742E+00  (-0.1138789E-01)
 number of electron      47.0000001 magnetization       6.1679960
 augmentation part        0.4302944 magnetization       5.2413636

 Broyden mixing:
  rms(total) = 0.31730E-01    rms(broyden)= 0.31728E-01
  rms(prec ) = 0.32447E-01
  weight for this iteration     100.00

 eigenvalues of (default mixing * dielectric matrix)
  average eigenvalue GAMMA=   1.8848
  7.4217  2.7849  1.8372  1.8372  1.0761  1.0761  0.7682  0.7682  0.6225  0.6560

 Free energy of the ion-electron system (eV)
  ---------------------------------------------------
  alpha Z        PSCENC =         0.15041143
  Ewald energy   TEWEN  =      4235.75152180
  -Hartree energ DENC   =     -6010.46056384
  -exchange      EXHF   =         0.00000000
  -V(xc)+E(xc)   XCENC  =       191.36617419
  PAW double counting   =      4100.34538424    -4125.13398052
  entropy T*S    EENTRO =        -0.00000000
  eigenvalues    EBANDS =      -569.13863545
  atomic energy  EATOM  =      1934.55042093
  Solvation  Ediel_sol  =       135.38923824
  ---------------------------------------------------
  free energy    TOTEN  =      -107.18002897 eV

  energy without entropy =     -107.18002897  energy(sigma->0) =     -107.18002897


--------------------------------------------------------------------------------------------------------




--------------------------------------- Iteration      1(  12)  ---------------------------------------


    POTLOK:  cpu time    116.0288: real time    116.6158
    SETDIJ:  cpu time      0.3049: real time      0.3060
    EDDIAG:  cpu time     12.4532: real time     12.5144
  RMM-DIIS:  cpu time     97.8737: real time     98.3456
    ORTHCH:  cpu time      0.1001: real time      0.1019
       DOS:  cpu time      0.0007: real time      0.0007
    CHARGE:  cpu time      6.8386: real time      6.8720
    MIXING:  cpu time      0.1690: real time      0.1700
    --------------------------------------------
      LOOP:  cpu time    233.7690: real time    234.9263

 eigenvalue-minimisations  :   262
 total energy-change (2. order) : 0.5798889E+00  (-0.5377299E-02)
 number of electron      47.0000001 magnetization       5.6389795
 augmentation part        0.4299966 magnetization       4.7137695

 Broyden mixing:
  rms(total) = 0.25045E-01    rms(broyden)= 0.25044E-01
  rms(prec ) = 0.25376E-01
  weight for this iteration     100.00

 eigenvalues of (default mixing * dielectric matrix)
  average eigenvalue GAMMA=   1.8849
  8.0021  2.8319  1.9791  1.9791  1.2121  0.9873  0.9873  0.7530  0.7530  0.6244
  0.6244

 Free energy of the ion-electron system (eV)
  ---------------------------------------------------
  alpha Z        PSCENC =         0.15041143
  Ewald energy   TEWEN  =      4235.75152180
  -Hartree energ DENC   =     -6015.22056004
  -exchange      EXHF   =         0.00000000
  -V(xc)+E(xc)   XCENC  =       191.96334555
  PAW double counting   =      4094.46276029    -4119.25389849
  entropy T*S    EENTRO =        -0.00000000
  eigenvalues    EBANDS =      -568.99021702
  atomic energy  EATOM  =      1934.55042093
  Solvation  Ediel_sol  =       139.98607549
  ---------------------------------------------------
  free energy    TOTEN  =      -106.60014008 eV

  energy without entropy =     -106.60014008  energy(sigma->0) =     -106.60014008


--------------------------------------------------------------------------------------------------------




--------------------------------------- Iteration      1(  13)  ---------------------------------------


    POTLOK:  cpu time    112.9385: real time    113.4924
    SETDIJ:  cpu time      0.3043: real time      0.3054
    EDDIAG:  cpu time     12.5086: real time     12.5664
  RMM-DIIS:  cpu time     97.6846: real time     98.1112
    ORTHCH:  cpu time      0.0990: real time      0.0996
       DOS:  cpu time      0.0008: real time      0.0008
    CHARGE:  cpu time      7.1929: real time      7.2263
    MIXING:  cpu time      0.1788: real time      0.1799
    --------------------------------------------
      LOOP:  cpu time    230.9075: real time    231.9820

 eigenvalue-minimisations  :   262
 total energy-change (2. order) : 0.4217345E+00  (-0.6123078E-03)
 number of electron      47.0000001 magnetization       4.8465259
 augmentation part        0.4295177 magnetization       3.9222293

 Broyden mixing:
  rms(total) = 0.20996E-01    rms(broyden)= 0.20995E-01
  rms(prec ) = 0.21172E-01
  weight for this iteration     100.00

 eigenvalues of (default mixing * dielectric matrix)
  average eigenvalue GAMMA=   1.9515
  8.5693  3.1221  2.4529  2.0480  1.5312  1.0915  1.0915  0.8057  0.7288  0.7288
  0.6239  0.6239

 Free energy of the ion-electron system (eV)
  ---------------------------------------------------
  alpha Z        PSCENC =         0.15041143
  Ewald energy   TEWEN  =      4235.75152180
  -Hartree energ DENC   =     -6016.55608313
  -exchange      EXHF   =         0.00000000
  -V(xc)+E(xc)   XCENC  =       192.37140563
  PAW double counting   =      4098.94015636    -4123.72952491
  entropy T*S    EENTRO =        -0.00000000
  eigenvalues    EBANDS =      -569.36138220
  atomic energy  EATOM  =      1934.55042093
  Solvation  Ediel_sol  =       141.70466849
  ---------------------------------------------------
  free energy    TOTEN  =      -106.17840560 eV

  energy without entropy =     -106.17840560  energy(sigma->0) =     -106.17840560


--------------------------------------------------------------------------------------------------------




--------------------------------------- Iteration      1(  14)  ---------------------------------------


    POTLOK:  cpu time    115.7344: real time    116.3119
    SETDIJ:  cpu time      0.3031: real time      0.3042
    EDDIAG:  cpu time     12.6323: real time     12.6950
  RMM-DIIS:  cpu time     97.7913: real time     98.2620
    ORTHCH:  cpu time      0.0982: real time      0.0988
       DOS:  cpu time      0.0007: real time      0.0007
    CHARGE:  cpu time      7.0131: real time      7.0485
    MIXING:  cpu time      0.1898: real time      0.1911
    --------------------------------------------
      LOOP:  cpu time    233.7629: real time    234.9122

 eigenvalue-minimisations  :   262
 total energy-change (2. order) : 0.5442344E+00  (-0.3484953E-02)
 number of electron      47.0000001 magnetization       4.3724155
 augmentation part        0.4294111 magnetization       3.4491870

 Broyden mixing:
  rms(total) = 0.16547E-01    rms(broyden)= 0.16543E-01
  rms(prec ) = 0.16627E-01
  weight for this iteration     100.00

 eigenvalues of (default mixing * dielectric matrix)
  average eigenvalue GAMMA=   2.0372
  9.2550  4.2958  2.6456  1.8496  1.8496  1.2731  0.9159  0.9159  0.7842  0.7842
  0.6941  0.6103  0.6103

 Free energy of the ion-electron system (eV)
  ---------------------------------------------------
  alpha Z        PSCENC =         0.15041143
  Ewald energy   TEWEN  =      4235.75152180
  -Hartree energ DENC   =     -6017.22801310
  -exchange      EXHF   =         0.00000000
  -V(xc)+E(xc)   XCENC  =       192.87382057
  PAW double counting   =      4102.45766021    -4127.23847166
  entropy T*S    EENTRO =        -0.00000000
  eigenvalues    EBANDS =      -570.36307008
  atomic energy  EATOM  =      1934.55042093
  Solvation  Ediel_sol  =       143.41154874
  ---------------------------------------------------
  free energy    TOTEN  =      -105.63417116 eV

  energy without entropy =     -105.63417116  energy(sigma->0) =     -105.63417116


--------------------------------------------------------------------------------------------------------




--------------------------------------- Iteration      1(  15)  ---------------------------------------


    POTLOK:  cpu time    112.3340: real time    112.8750
    SETDIJ:  cpu time      0.3401: real time      0.3411
    EDDIAG:  cpu time     12.5579: real time     12.6131
  RMM-DIIS:  cpu time     98.1154: real time     98.5475
    ORTHCH:  cpu time      0.0998: real time      0.1004
       DOS:  cpu time      0.0004: real time      0.0004
    CHARGE:  cpu time      6.9117: real time      6.9460
    MIXING:  cpu time      0.2012: real time      0.2023
    --------------------------------------------
      LOOP:  cpu time    230.5604: real time    231.6259

 eigenvalue-minimisations  :   262
 total energy-change (2. order) : 0.2768868E+00  (-0.1364234E-02)
 number of electron      47.0000001 magnetization       3.8833874
 augmentation part        0.4287198 magnetization       2.9608487

 Broyden mixing:
  rms(total) = 0.14401E-01    rms(broyden)= 0.14400E-01
  rms(prec ) = 0.14493E-01
  weight for this iteration     100.00

 eigenvalues of (default mixing * dielectric matrix)
  average eigenvalue GAMMA=   2.0573
  9.7799  4.9373  2.4846  2.3517  1.5554  1.5554  0.9690  0.9690  0.8879  0.7497
  0.7497  0.6369  0.6011  0.5751

 Free energy of the ion-electron system (eV)
  ---------------------------------------------------
  alpha Z        PSCENC =         0.15041143
  Ewald energy   TEWEN  =      4235.75152180
  -Hartree energ DENC   =     -6017.23622285
  -exchange      EXHF   =         0.00000000
  -V(xc)+E(xc)   XCENC  =       193.12934456
  PAW double counting   =      4102.36239589    -4127.14230555
  entropy T*S    EENTRO =        -0.00000000
  eigenvalues    EBANDS =      -570.82945493
  atomic energy  EATOM  =      1934.55042093
  Solvation  Ediel_sol  =       143.90660438
  ---------------------------------------------------
  free energy    TOTEN  =      -105.35728436 eV

  energy without entropy =     -105.35728436  energy(sigma->0) =     -105.35728436


--------------------------------------------------------------------------------------------------------




--------------------------------------- Iteration      1(  16)  ---------------------------------------


    POTLOK:  cpu time    109.9239: real time    110.4537
    SETDIJ:  cpu time      0.3054: real time      0.3064
    EDDIAG:  cpu time     12.6741: real time     12.7302
  RMM-DIIS:  cpu time     97.6625: real time     98.0885
    ORTHCH:  cpu time      0.0981: real time      0.0987
       DOS:  cpu time      0.0005: real time      0.0005
    CHARGE:  cpu time      7.1580: real time      7.1937
    MIXING:  cpu time      0.2132: real time      0.2145
    --------------------------------------------
      LOOP:  cpu time    228.0357: real time    229.0863

 eigenvalue-minimisations  :   262
 total energy-change (2. order) : 0.2529889E+00  (-0.1515775E-02)
 number of electron      47.0000001 magnetization       3.4397532
 augmentation part        0.4281384 magnetization       2.5177589

 Broyden mixing:
  rms(total) = 0.12293E-01    rms(broyden)= 0.12292E-01
  rms(prec ) = 0.12387E-01
  weight for this iteration     100.00

 eigenvalues of (default mixing * dielectric matrix)
  average eigenvalue GAMMA=   2.0935
 10.3288  5.5648  2.5807  2.5807  1.6070  1.6070  1.0114  1.0114  0.9984  0.7574
  0.7574  0.7318  0.6562  0.6025  0.6065

 Free energy of the ion-electron system (eV)
  ---------------------------------------------------
  alpha Z        PSCENC =         0.15041143
  Ewald energy   TEWEN  =      4235.75152180
  -Hartree energ DENC   =     -6016.69845902
  -exchange      EXHF   =         0.00000000
  -V(xc)+E(xc)   XCENC  =       193.35074286
  PAW double counting   =      4101.58867240    -4126.36475192
  entropy T*S    EENTRO =        -0.00000000
  eigenvalues    EBANDS =      -571.43189282
  atomic energy  EATOM  =      1934.55042093
  Solvation  Ediel_sol  =       143.99903892
  ---------------------------------------------------
  free energy    TOTEN  =      -105.10429541 eV

  energy without entropy =     -105.10429541  energy(sigma->0) =     -105.10429541


--------------------------------------------------------------------------------------------------------




--------------------------------------- Iteration      1(  17)  ---------------------------------------


    POTLOK:  cpu time    110.6214: real time    111.1696
    SETDIJ:  cpu time      0.3061: real time      0.3073
    EDDIAG:  cpu time     12.5228: real time     12.5852
  RMM-DIIS:  cpu time     97.6758: real time     98.1452
    ORTHCH:  cpu time      0.0979: real time      0.0985
       DOS:  cpu time      0.0005: real time      0.0005
    CHARGE:  cpu time      7.1039: real time      7.1399
    MIXING:  cpu time      0.2290: real time      0.2307
    --------------------------------------------
      LOOP:  cpu time    228.5574: real time    229.6769

 eigenvalue-minimisations  :   262
 total energy-change (2. order) : 0.2232810E+00  (-0.1036174E-02)
 number of electron      47.0000001 magnetization       2.6126004
 augmentation part        0.4279642 magnetization       1.6911555

 Broyden mixing:
  rms(total) = 0.10663E-01    rms(broyden)= 0.10663E-01
  rms(prec ) = 0.10758E-01
  weight for this iteration     100.00

 eigenvalues of (default mixing * dielectric matrix)
  average eigenvalue GAMMA=   2.1375
 10.8543  6.1146  2.7299  2.7299  1.7649  1.7649  1.1534  1.1534  0.9829  0.7977
  0.7977  0.8056  0.7221  0.6348  0.5970  0.5970

 Free energy of the ion-electron system (eV)
  ---------------------------------------------------
  alpha Z        PSCENC =         0.15041143
  Ewald energy   TEWEN  =      4235.75152180
  -Hartree energ DENC   =     -6016.05629846
  -exchange      EXHF   =         0.00000000
  -V(xc)+E(xc)   XCENC  =       193.55103541
  PAW double counting   =      4102.10367349    -4126.87624184
  entropy T*S    EENTRO =        -0.00000000
  eigenvalues    EBANDS =      -571.91742483
  atomic energy  EATOM  =      1934.55042093
  Solvation  Ediel_sol  =       143.86188768
  ---------------------------------------------------
  free energy    TOTEN  =      -104.88101441 eV

  energy without entropy =     -104.88101441  energy(sigma->0) =     -104.88101441


--------------------------------------------------------------------------------------------------------




--------------------------------------- Iteration      1(  18)  ---------------------------------------


    POTLOK:  cpu time    112.8933: real time    113.4562
    SETDIJ:  cpu time      0.3057: real time      0.3067
    EDDIAG:  cpu time     12.6330: real time     12.6964
  RMM-DIIS:  cpu time     97.9344: real time     98.4024
    ORTHCH:  cpu time      0.0996: real time      0.1003
       DOS:  cpu time      0.0006: real time      0.0006
    CHARGE:  cpu time      6.8900: real time      6.9259
    MIXING:  cpu time      0.2421: real time      0.2437
    --------------------------------------------
      LOOP:  cpu time    230.9988: real time    232.1322

 eigenvalue-minimisations  :   262
 total energy-change (2. order) : 0.4075143E+00  (-0.8928679E-03)
 number of electron      47.0000001 magnetization       1.9043142
 augmentation part        0.4281086 magnetization       0.9834886

 Broyden mixing:
  rms(total) = 0.80974E-02    rms(broyden)= 0.80964E-02
  rms(prec ) = 0.82045E-02
  weight for this iteration     100.00

[...]
 d Force =-0.3582059E+00[-0.358E+00,-0.358E+00]  d Ewald  =-0.3582059E+00-0.332E-07


--------------------------------------------------------------------------------------------------------


    POTLOK:  cpu time     95.7229: real time     96.2031


--------------------------------------------------------------------------------------------------------


 Conjugate gradient step on ions:
 trial-energy change:   -0.000046  1 .order   -0.000034   -0.000081    0.000012
  (g-gl).g = 0.195E-03      g.g   = 0.174E-03  gl.gl    = 0.265E-03
 g(Force)  = 0.174E-03   g(Stress)= 0.000E+00 ortho     =-0.242E-04
 gamma     =   0.73412
 trial     =   0.51660
 opt step  =   0.44960  (harmonic =   0.44960) maximal distance =0.00066175
 next E    =  -104.002822   (d E  =  -0.00004)


--------------------------------------------------------------------------------------------------------


    WAVPRE:  cpu time      1.1849: real time      1.2033
    FEWALD:  cpu time      0.0409: real time      0.0410

 real space projection operators:
  total allocation   :       1633.78 KBytes
  max/ min on nodes  :        166.42        160.56

    ORTHCH:  cpu time      1.6369: real time      1.6449
     LOOP+:  cpu time    942.7756: real time    947.3853


--------------------------------------- Ionic step       20  -------------------------------------------




--------------------------------------- Iteration     20(   1)  ---------------------------------------


    POTLOK:  cpu time     95.7615: real time     96.2300
    SETDIJ:  cpu time      0.3024: real time      0.3035
     EDDAV:  cpu time     62.2172: real time     62.5333
       DOS:  cpu time      0.0004: real time      0.0004
    CHARGE:  cpu time      6.8384: real time      6.8720
    MIXING:  cpu time      0.1019: real time      0.1024
    --------------------------------------------
      LOOP:  cpu time    165.2219: real time    166.0416

 eigenvalue-minimisations  :   228
 total energy-change (2. order) :-0.7198916E-05  (-0.2155442E-04)
 number of electron      47.0000000 magnetization       1.0000220
 augmentation part        0.4376652 magnetization       0.0841551

 Broyden mixing:
  rms(total) = 0.57013E-03    rms(broyden)= 0.56981E-03
  rms(prec ) = 0.57276E-03
  weight for this iteration     100.00

 Free energy of the ion-electron system (eV)
  ---------------------------------------------------
  alpha Z        PSCENC =         0.15041143
  Ewald energy   TEWEN  =      4261.77181505
  -Hartree energ DENC   =     -6039.05833993
  -exchange      EXHF   =         0.00000000
  -V(xc)+E(xc)   XCENC  =       194.98727943
  PAW double counting   =      4169.18406724    -4193.99252972
  entropy T*S    EENTRO =        -0.00000000
  eigenvalues    EBANDS =      -573.51506700
  atomic energy  EATOM  =      1934.55042093
  Solvation  Ediel_sol  =       142.04757629
  ---------------------------------------------------
  free energy    TOTEN  =      -103.87436629 eV

  energy without entropy =     -103.87436629  energy(sigma->0) =     -103.87436629


--------------------------------------------------------------------------------------------------------




--------------------------------------- Iteration     20(   2)  ---------------------------------------


    POTLOK:  cpu time     91.0404: real time     91.4955
    SETDIJ:  cpu time      0.3036: real time      0.3046
    EDDIAG:  cpu time     12.4265: real time     12.4830
  RMM-DIIS:  cpu time     58.4546: real time     58.7135
    ORTHCH:  cpu time      0.1030: real time      0.1037
       DOS:  cpu time      0.0007: real time      0.0007
    --------------------------------------------
      LOOP:  cpu time    162.3287: real time    163.1010

 eigenvalue-minimisations  :   125
 total energy-change (2. order) :-0.1775037E-05  (-0.8717129E-06)
 number of electron      47.0000000 magnetization       1.0000220
 augmentation part        0.4376652 magnetization       0.0841551

 Free energy of the ion-electron system (eV)
  ---------------------------------------------------
  alpha Z        PSCENC =         0.15041143
  Ewald energy   TEWEN  =      4261.77181505
  -Hartree energ DENC   =     -6039.05923185
  -exchange      EXHF   =         0.00000000
  -V(xc)+E(xc)   XCENC  =       194.98737700
  PAW double counting   =      4169.13194681    -4193.94038085
  entropy T*S    EENTRO =        -0.00000000
  eigenvalues    EBANDS =      -573.51540138
  atomic energy  EATOM  =      1934.55042093
  Solvation  Ediel_sol  =       142.04867480
  ---------------------------------------------------
  free energy    TOTEN  =      -103.87436806 eV

  energy without entropy =     -103.87436806  energy(sigma->0) =     -103.87436806


--------------------------------------------------------------------------------------------------------




 average (electrostatic) potential at core
  the test charge radii are     0.6991  0.9406  0.7215  0.5201
  (the norm of the test charge is              1.0000)
       1 -60.3653       2 -60.4587       3 -60.2248       4 -60.4377       5 -60.3610
       6 -60.6402       7 -62.3624       8-103.0980       9 -83.0494      10 -43.9189
      11 -43.9710      12 -43.9122      13 -43.9835      14 -43.8945
 
 
 
 E-fermi :  -2.5044     XC(G=0):  -0.0399     alpha+bet : -0.0173

 Fermi energy:        -2.5044478199

 spin component 1

 k-point     1 :       0.0000    0.0000    0.0000
  band No.  band energies     occupation 
      1     -26.6828      1.00000
      2     -21.9618      1.00000
      3     -20.7093      1.00000
      4     -19.3083      1.00000
      5     -19.0540      1.00000
      6     -16.2987      1.00000
      7     -15.0827      1.00000
      8     -13.7861      1.00000
      9     -12.4677      1.00000
     10     -11.3932      1.00000
     11     -11.0895      1.00000
     12     -10.4528      1.00000
     13     -10.2622      1.00000
     14     -10.1778      1.00000
     15      -9.8998      1.00000
     16      -8.8450      1.00000
     17      -8.5378      1.00000
     18      -7.8685      1.00000
     19      -7.2952      1.00000
     20      -7.2525      1.00000
     21      -6.3408      1.00000
     22      -6.2987      1.00000
     23      -6.2160      1.00000
     24      -2.7481      1.00000
     25      -0.6559      0.00000
     26      -0.2376      0.00000
     27      -0.0073      0.00000
     28       0.0627      0.00000
     29       0.0776      0.00000
     30       0.0784      0.00000
     31       0.0832      0.00000
     32       0.0833      0.00000
     33       0.0892      0.00000
     34       0.1386      0.00000
     35       0.1603      0.00000
     36       0.1649      0.00000
     37       0.1705      0.00000
     38       0.1719      0.00000
     39       0.1759      0.00000
     40       0.1764      0.00000
     41       0.1773      0.00000
     42       0.1777      0.00000
 Fermi energy:        -2.5044478199

 spin component 2

 k-point     1 :       0.0000    0.0000    0.0000
  band No.  band energies     occupation 
      1     -26.4218      1.00000
      2     -21.8469      1.00000
      3     -20.6489      1.00000
      4     -19.1613      1.00000
      5     -18.9627      1.00000
      6     -15.9426      1.00000
      7     -15.0486      1.00000
      8     -13.6725      1.00000
      9     -12.3277      1.00000
     10     -11.3275      1.00000
     11     -10.9812      1.00000
     12     -10.4166      1.00000
     13     -10.1585      1.00000
     14      -9.8211      1.00000
     15      -9.5703      1.00000
     16      -8.4809      1.00000
     17      -8.4470      1.00000
     18      -7.8502      1.00000
     19      -7.2342      1.00000
     20      -7.1256      1.00000
     21      -6.1220      1.00000
     22      -6.0794      1.00000
     23      -5.8385      1.00000
     24      -1.5690      0.00000
     25      -0.4942      0.00000
     26      -0.1214      0.00000
     27       0.0014      0.00000
     28       0.0718      0.00000
     29       0.0793      0.00000
     30       0.0793      0.00000
     31       0.0835      0.00000
     32       0.0836      0.00000
     33       0.1134      0.00000
     34       0.1511      0.00000
     35       0.1652      0.00000
     36       0.1679      0.00000
     37       0.1719      0.00000
     38       0.1724      0.00000
     39       0.1761      0.00000
     40       0.1775      0.00000
     41       0.1776      0.00000
     42       0.1783      0.00000


--------------------------------------------------------------------------------------------------------


 soft charge-density along one line, spin component           1
         0         1         2         3         4         5         6         7         8         9
 total charge-density along one line
 
 soft charge-density along one line, spin component           2
         0         1         2         3         4         5         6         7         8         9
 total charge-density along one line
 
 pseudopotential strength for first ion, spin component:           1
 10.447  13.891   0.001  -0.000   0.003  -0.003   0.000  -0.004
 13.891  18.470   0.001  -0.000   0.004  -0.004   0.000  -0.005
  0.001   0.001  -4.338  -0.000   0.004   8.418   0.000  -0.007
 -0.000  -0.000  -0.000  -4.306  -0.000   0.000   8.352   0.000
  0.003   0.004   0.004  -0.000  -4.348  -0.007   0.000   8.434
 -0.003  -0.004   8.418   0.000  -0.007 -18.602  -0.000   0.010
  0.000   0.000   0.000   8.352   0.000  -0.000 -18.479  -0.000
 -0.004  -0.005  -0.007   0.000   8.434   0.010  -0.000 -18.625
 pseudopotential strength for first ion, spin component:           2
 10.380  13.800   0.000   0.000   0.003  -0.003  -0.000  -0.003
 13.800  18.347   0.001   0.000   0.003  -0.004  -0.000  -0.004
  0.000   0.001  -4.326  -0.000   0.004   8.395   0.000  -0.006
  0.000   0.000  -0.000  -4.270  -0.000   0.000   8.330   0.000
  0.003   0.003   0.004  -0.000  -4.337  -0.006   0.000   8.411
 -0.003  -0.004   8.395   0.000  -0.006 -18.554  -0.000   0.009
 -0.000  -0.000   0.000   8.330   0.000  -0.000 -18.503  -0.000
 -0.003  -0.004  -0.006   0.000   8.411   0.009  -0.000 -18.576
 total augmentation occupancy for first ion, spin component:           1
  8.648  -3.883   0.174   0.000  -0.177   0.038   0.000  -0.030
 -3.883   1.785  -0.122  -0.000   0.102  -0.024  -0.000   0.017
  0.174  -0.122   1.742   0.000  -0.022   0.162   0.000   0.001
  0.000  -0.000   0.000   1.198   0.000   0.000   0.075   0.000
 -0.177   0.102  -0.022   0.000   1.860   0.001   0.000   0.183
  0.038  -0.024   0.162   0.000   0.001   0.016   0.000   0.000
  0.000  -0.000   0.000   0.075   0.000   0.000   0.005   0.000
 -0.030   0.017   0.001   0.000   0.183   0.000   0.000   0.019
 total augmentation occupancy for first ion, spin component:           2
  0.105  -0.049  -0.007   0.000  -0.009  -0.001   0.000  -0.001
 -0.049   0.023   0.006  -0.000   0.006   0.001  -0.000   0.001
 -0.007   0.006   0.007  -0.000  -0.001   0.000  -0.000  -0.000
  0.000  -0.000  -0.000   0.218  -0.000  -0.000   0.003  -0.000
 -0.009   0.006  -0.001  -0.000   0.007  -0.000  -0.000   0.000
 -0.001   0.001   0.000  -0.000  -0.000   0.000   0.000  -0.000
  0.000  -0.000  -0.000   0.003  -0.000   0.000  -0.000   0.000
 -0.001   0.001  -0.000  -0.000   0.000  -0.000   0.000   0.000


------------------------ aborting loop because EDIFF is reached ----------------------------------------


    CHARGE:  cpu time      1.5200: real time      1.5270
    FORLOC:  cpu time      0.2373: real time      0.2383
    FORNL :  cpu time      4.6458: real time      4.6693
    STRESS:  cpu time    121.8917: real time    122.5207
    FORCOR:  cpu time      7.8069: real time      7.8434
    FORHAR:  cpu time      0.7852: real time      0.7892
    MIXING:  cpu time      0.1064: real time      0.1070
    OFIELD:  cpu time      0.0000: real time      0.0000

 ---------------------------------------------------------------------------------------------

         DFTD3 V3.0 Rev 1        
 Edisp (eV)   -0.12847

 E6    (eV) :    -0.0989
 E8    (eV) :    -0.0296
 % E8        : 23.05
    FORVDW:  cpu time      0.0041: real time      0.0041

  FORCE on cell =-STRESS in cart. coord.  units (eV):
  Direction    XX          YY          ZZ          XY          YZ          ZX
  --------------------------------------------------------------------------------------
  Alpha Z     0.15041     0.15041     0.15041
  Ewald    2689.83567  1934.75193  -362.81599  -157.24125     0.99652     0.45662
  Hartree  2991.57390  2248.80285   798.69142  -113.88995     0.62314     0.31915
  E(xc)    -178.85744  -179.16516  -180.61019    -0.09602     0.00067     0.00025
  Local   -6225.46990 -4709.37217 -1059.01143   267.92711    -1.57893    -0.76238
  n-local    23.98445    22.46814    26.34999    -0.03020     0.00001    -0.00080
  augment   -13.32616   -14.46618   -13.56050     1.02037    -0.00018     0.00021
  Kinetic   713.13475   698.32916   789.03512     2.86377    -0.03819    -0.01305
  Fock        0.00000     0.00000     0.00000     0.00000     0.00000     0.00000
  vdW        -0.05379    -0.01977    -0.00000     0.00235    -0.00001    -0.00001
  -------------------------------------------------------------------------------------
  Total       0.97189     1.47920    -1.77118     0.55619     0.00303    -0.00000
  in kB       0.02433     0.03703    -0.04434     0.01392     0.00008    -0.00000
  external pressure =        0.01 kB  Pullay stress =        0.00 kB


 VOLUME and BASIS-vectors are now :
 -----------------------------------------------------------------------------
  energy-cutoff  :      500.00
  volume of cell :    64000.00
      direct lattice vectors                 reciprocal lattice vectors
    40.000000000  0.000000000  0.000000000     0.025000000  0.000000000  0.000000000
     0.000000000 40.000000000  0.000000000     0.000000000  0.025000000  0.000000000
     0.000000000  0.000000000 40.000000000     0.000000000  0.000000000  0.025000000

  length of vectors
    40.000000000 40.000000000 40.000000000     0.025000000  0.025000000  0.025000000


 FORCES acting on ions
    electron-ion (+dipol)            ewald-force                    non-local-force                 convergence-correction
 -----------------------------------------------------------------------------------------------
   0.284E+02 0.175E+03 0.117E+00   -.268E+02 -.176E+03 -.117E+00   -.152E-01 0.110E+01 0.420E-03   0.399E-03 0.558E-03 -.439E-04
   0.167E+03 0.132E+03 0.119E+00   -.166E+03 -.131E+03 -.118E+00   0.424E+00 0.214E+00 0.236E-03   0.188E-02 -.155E-02 -.699E-04
   0.211E+03 -.449E+02 0.108E-01   -.210E+03 0.448E+02 -.102E-01   0.863E+00 -.221E+00 -.143E-02   0.126E-02 0.361E-03 -.130E-04
   0.991E+02 -.186E+03 -.664E-01   -.980E+02 0.185E+03 0.655E-01   0.297E+00 -.347E+00 0.116E-02   0.235E-02 0.127E-02 0.455E-04
   -.455E+02 -.166E+03 -.121E+00   0.472E+02 0.166E+03 0.122E+00   -.585E+00 -.124E+01 -.112E-02   0.220E-03 0.808E-03 0.323E-04
   -.170E+02 -.223E+01 -.105E-01   0.165E+02 0.249E+01 0.109E-01   0.153E+01 -.684E+00 -.157E-02   0.164E-02 -.400E-03 -.694E-05
   -.716E+02 -.591E+02 -.211E-01   0.668E+02 0.602E+02 0.198E-01   0.569E+01 -.178E+01 0.682E-03   0.960E-03 0.133E-02 -.114E-05
   -.274E+03 -.191E+03 -.835E-01   0.277E+03 0.192E+03 0.840E-01   -.290E+01 -.277E+01 -.946E-03   -.113E-03 0.710E-04 -.379E-05
   -.214E+03 0.326E+03 0.556E-01   0.237E+03 -.373E+03 -.645E-01   -.214E+02 0.462E+02 0.896E-02   0.492E-03 0.458E-03 -.401E-04
   -.357E+02 -.766E+02 -.483E-01   0.399E+02 0.807E+02 0.510E-01   -.403E+01 -.451E+01 -.292E-02   0.333E-03 0.129E-03 0.550E-06
   0.317E+02 -.818E+02 -.353E-01   -.331E+02 0.870E+02 0.377E-01   0.177E+01 -.569E+01 -.267E-02   0.335E-03 0.118E-03 0.276E-05
   0.851E+02 -.184E+02 0.426E-02   -.903E+02 0.195E+02 -.455E-02   0.581E+01 -.127E+01 0.278E-03   -.444E-03 0.195E-03 -.748E-06
   0.624E+02 0.618E+02 0.349E-01   -.658E+02 -.659E+02 -.372E-01   0.396E+01 0.443E+01 0.208E-02   0.195E-03 -.143E-03 -.644E-05
   -.277E+01 0.870E+02 0.376E-01   0.513E+01 -.923E+02 -.394E-01   -.183E+01 0.572E+01 0.181E-02   0.105E-03 0.228E-03 -.253E-05
 -----------------------------------------------------------------------------------------------
   0.104E+02 -.391E+02 -.698E-02   0.622E-13 0.000E+00 0.208E-16   -.104E+02 0.391E+02 0.497E-02   0.961E-02 0.343E-02 -.108E-03
 
 
 POSITION                                       TOTAL-FORCE (eV/Angst)
 -----------------------------------------------------------------------------------
     19.86908     18.75146     19.99926        -0.007315     -0.000769     -0.000107
     18.52307     19.05645     19.99917        -0.012822      0.000974      0.000347
     18.07614     20.38802     19.99984        -0.010732      0.003944     -0.000768
     19.03692     21.41415     20.00052        -0.014512      0.000224      0.000905
     20.38981     21.13654     20.00074         0.010838     -0.008360      0.000281
     20.86432     19.78841     20.00007         0.002484      0.006499     -0.000994
     22.21481     19.38384     20.00011        -0.005637     -0.018631     -0.000288
     23.46128     20.83796     20.00069        -0.012174     -0.002558      0.000435
     22.73495     18.26089     19.99988        -0.000146      0.012517      0.000050
     21.10612     21.94795     20.00126         0.006247      0.003004      0.000266
     18.71331     22.45084     20.00099         0.001279      0.009979      0.000104
     17.01663     20.61893     19.99979         0.019143     -0.005123      0.000124
     17.79824     18.24667     19.99877         0.010001      0.000775     -0.000223
     20.19527     17.71793     19.99893         0.013346     -0.002473     -0.000131
 -----------------------------------------------------------------------------------
    total drift:                                0.007644      0.010343     -0.002124


--------------------------------------------------------------------------------------------------------



  FREE ENERGIE OF THE ION-ELECTRON SYSTEM (eV)
  ---------------------------------------------------
  free  energy   TOTEN  =      -104.00283862 eV

  energy  without entropy=     -104.00283862  energy(sigma->0) =     -104.00283862
 
 d Force =-0.5264327E-06[-0.261E-05, 0.156E-05]  d Energy = 0.6257022E-05-0.678E-05
 d Force = 0.4648094E-01[ 0.465E-01, 0.465E-01]  d Ewald  = 0.4648094E-01-0.182E-11


--------------------------------------------------------------------------------------------------------


    POTLOK:  cpu time     90.8556: real time     91.3107


--------------------------------------------------------------------------------------------------------




--------------------------------------------------------------------------------------------------------


  
 reached required accuracy - stopping structural energy minimisation
 writing wavefunctions
     LOOP+:  cpu time    561.0119: real time    565.1192
    4ORBIT:  cpu time      0.0000: real time      0.0000

 total amount of memory used by VASP MPI-rank0  1021643. kBytes
=======================================================================

   base      :      30000. kBytes
   nonlr-proj:        891. kBytes
   fftplans  :     192295. kBytes
   grid      :     762047. kBytes
   one-center:         12. kBytes
   wavefun   :      36398. kBytes
 
  
  
 General timing and accounting informations for this job:
 ========================================================
  
                  Total CPU time used (sec):    38455.441
                            User time (sec):    36125.681
                          System time (sec):     2329.762
                         Elapsed time (sec):    38644.590
  
                   Maximum memory used (kb):     2582468.
                   Average memory used (kb):          N/A
  
                          Minor page faults:     15516024
                          Major page faults:           44
                 Voluntary context switches:        11983
