 vasp.6.3.2 27Jun22 (build Oct 25 2024 11:36:28) complex                        
  
 executed on             LinuxIFC date 2025.09.09  15:59:59
 running on   90 total cores
 distrk:  each k-point on   90 cores,    1 groups
 distr:  one band on NCORE=  10 cores,    9 groups


--------------------------------------------------------------------------------------------------------


 INCAR:
   SYSTEM = 072_red
   ISTART = 1
   ICHARG = 2
   INIWAV = 1
   LHFCALC = .TRUE.
   HFSCREEN = 0.2
   NELM = 500
   ALGO = Damped
   ISPIN = 2
   EDIFF = 1E-05
   ISMEAR = 0
   SIGMA = 0.05
   PREC = accurate
   ENCUT = 500
   LREAL = auto  	
   LDIAG = .FALSE.
   LWAVE = .TRUE.
   LCHARG = .FALSE.
   LAECHG = .FALSE.
   LVHAR = .FALSE.
   LVTOT = .FALSE.
   EDIFFG = -0.02
   IBRION = 2
   NSW = 0
   ISIF = 2
   POTIM = 0.5
   IVDW = 12
   VDW_A1 = 0.383
   VDW_S8 = 2.310
   VDW_A2 = 5.685
   LPLANE = .TRUE.
   NCORE = 10
   LSCALU = .FALSE.
   NSIM = 4
   LSOL = .TRUE.
   ISOL = 2
   R_SOLV = 2.1900
   EPSILON_INF = 1.8069
   N_MOL = 0.0115
   P_MOL = 0.82
   EB_K = 35.6880

 POTCAR:    PAW_PBE C 08Apr2002                   
 POTCAR:    PAW_PBE N 08Apr2002                   
 POTCAR:    PAW_PBE H 15Jun2001                   
 -----------------------------------------------------------------------------
|                                                                             |
|           W    W    AA    RRRRR   N    N  II  N    N   GGGG   !!!           |
|           W    W   A  A   R    R  NN   N  II  NN   N  G    G  !!!           |
|           W    W  A    A  R    R  N N  N  II  N N  N  G       !!!           |
|           W WW W  AAAAAA  RRRRR   N  N N  II  N  N N  G  GGG   !            |
|           WW  WW  A    A  R   R   N   NN  II  N   NN  G    G                |
|           W    W  A    A  R    R  N    N  II  N    N   GGGG   !!!           |
|                                                                             |
|     You use a magnetic or noncollinear calculation, but did not specify     |
|     the initial magnetic moment with the MAGMOM tag. Note that a            |
|     default of 1 will be used for all atoms. This ferromagnetic setup       |
|     may break the symmetry of the crystal, in particular it may rule        |
|     out finding an antiferromagnetic solution. Thence, we recommend         |
|     setting the initial magnetic moment manually or verifying carefully     |
|     that this magnetic setup is desired.                                    |
|                                                                             |
 -----------------------------------------------------------------------------

 POTCAR:    PAW_PBE C 08Apr2002                   
   SHA256 =  253f7b50bb8d59471dbedb8285d89021f4a42ed1a2c5d38a03a736e69125dd95 C/POTCAR              
   COPYR  = (c) Copyright 08Apr2002 Georg Kresse                                                    
   COPYR  = This file is part of the software VASP. Any use, copying, and all other rights are regul
   COPYR  = If you do not have a valid VASP license, you may not use, copy or distribute this file. 
   VRHFIN =C: s2p2                                                                                  
   LEXCH  = PE                                                                                      
   EATOM  =   147.1560 eV,   10.8157 Ry                                                             
                                                                                                    
   TITEL  = PAW_PBE C 08Apr2002                                                                     
   LULTRA =        F    use ultrasoft PP ?                                                          
   IUNSCR =        1    unscreen: 0-lin 1-nonlin 2-no                                               
   RPACOR =    1.200    partial core radius                                                         
   POMASS =   12.011; ZVAL   =    4.000    mass and valenz                                          
   RCORE  =    1.500    outmost cutoff radius                                                       
   RWIGS  =    1.630; RWIGS  =    0.863    wigner-seitz radius (au A)                               
   ENMAX  =  400.000; ENMIN  =  300.000 eV                                                          
   ICORE  =        2    local potential                                                             
   LCOR   =        T    correct aug charges                                                         
   LPAW   =        T    paw PP                                                                      
   EAUG   =  644.873                                                                                
   DEXC   =    0.000                                                                                
   RMAX   =    1.529    core radius for proj-oper                                                   
   RAUG   =    1.300    factor for augmentation sphere                                              
   RDEP   =    1.501    radius for radial grids                                                     
   RDEPT  =    1.300    core radius for aug-charge                                                  
                                                                                                    
   Atomic configuration                                                                             
    4 entries                                                                                       
     n  l   j            E        occ.                                                              
     1  0  0.50      -273.3789   2.0000                                                             
     2  0  0.50       -13.7508   2.0000                                                             
     2  1  0.50        -5.2854   2.0000                                                             
     3  2  1.50        -5.4423   0.0000                                                             
   Description                                                                                      
     l       E           TYP  RCUT    TYP  RCUT                                                     
     0    -13.7508458     23  1.200                                                                 
     0     -8.2022199     23  1.200                                                                 
     1     -5.2854383     23  1.500                                                                 
     1     34.0145650     23  1.500                                                                 
     2     -5.4423304      7  1.500                                                                 
  local pseudopotential read in
  partial core-charges read in
  partial kinetic energy density read in
  atomic valenz-charges read in
  non local Contribution for L=           0  read in
    real space projection operators read in
  non local Contribution for L=           0  read in
    real space projection operators read in
  non local Contribution for L=           1  read in
    real space projection operators read in
  non local Contribution for L=           1  read in
    real space projection operators read in
    PAW grid and wavefunctions read in
 
   number of l-projection  operators is LMAX  =           4
   number of lm-projection operators is LMMAX =           8
 
 POTCAR:    PAW_PBE N 08Apr2002                   
   SHA256 =  e053789ff3a61a86a1b75d8a110fcc91f86041011e7b0817c7c99e4e8a6349d7 N/POTCAR              
   COPYR  = (c) Copyright 08Apr2002 Georg Kresse                                                    
   COPYR  = This file is part of the software VASP. Any use, copying, and all other rights are regul
   COPYR  = If you do not have a valid VASP license, you may not use, copy or distribute this file. 
   VRHFIN =N: s2p3                                                                                  
   LEXCH  = PE                                                                                      
   EATOM  =   264.5486 eV,   19.4438 Ry                                                             
                                                                                                    
   TITEL  = PAW_PBE N 08Apr2002                                                                     
   LULTRA =        F    use ultrasoft PP ?                                                          
   IUNSCR =        1    unscreen: 0-lin 1-nonlin 2-no                                               
   RPACOR =    1.200    partial core radius                                                         
   POMASS =   14.001; ZVAL   =    5.000    mass and valenz                                          
   RCORE  =    1.500    outmost cutoff radius                                                       
   RWIGS  =    1.400; RWIGS  =    0.741    wigner-seitz radius (au A)                               
   ENMAX  =  400.000; ENMIN  =  300.000 eV                                                          
   ICORE  =        2    local potential                                                             
   LCOR   =        T    correct aug charges                                                         
   LPAW   =        T    paw PP                                                                      
   EAUG   =  627.112                                                                                
   DEXC   =    0.000                                                                                
   RMAX   =    1.529    core radius for proj-oper                                                   
   RAUG   =    1.300    factor for augmentation sphere                                              
   RDEP   =    1.514    radius for radial grids                                                     
   RDEPT  =    1.338    core radius for aug-charge                                                  
                                                                                                    
   Atomic configuration                                                                             
    4 entries                                                                                       
     n  l   j            E        occ.                                                              
     1  0  0.50      -384.7179   2.0000                                                             
     2  0  0.50       -18.5828   2.0000                                                             
     2  1  0.50        -7.0898   3.0000                                                             
     3  2  1.50        -6.8029   0.0000                                                             
   Description                                                                                      
     l       E           TYP  RCUT    TYP  RCUT                                                     
     0    -18.5828119     23  1.200                                                                 
     0    -13.5018863     23  1.200                                                                 
     1     -7.0897853     23  1.500                                                                 
     1      9.5240782     23  1.500                                                                 
     2     -6.8029130      7  1.500                                                                 
  local pseudopotential read in
  partial core-charges read in
  partial kinetic energy density read in
  atomic valenz-charges read in
  non local Contribution for L=           0  read in
    real space projection operators read in
  non local Contribution for L=           0  read in
    real space projection operators read in
  non local Contribution for L=           1  read in
    real space projection operators read in
  non local Contribution for L=           1  read in
    real space projection operators read in
    PAW grid and wavefunctions read in
 
   number of l-projection  operators is LMAX  =           4
   number of lm-projection operators is LMMAX =           8
 
 POTCAR:    PAW_PBE H 15Jun2001                   
   SHA256 =  030f79b5d3ab3cf0e668861823c8fb652ff669f3e15e46930bd03bfd63a607b6 H/POTCAR              
   COPYR  = (c) Copyright 15Jun2001 Georg Kresse                                                    
   COPYR  = This file is part of the software VASP. Any use, copying, and all other rights are regul
   COPYR  = If you do not have a valid VASP license, you may not use, copy or distribute this file. 
   VRHFIN =H: ultrasoft test                                                                        
   LEXCH  = PE                                                                                      
   EATOM  =    12.4884 eV,    0.9179 Ry                                                             
                                                                                                    
   TITEL  = PAW_PBE H 15Jun2001                                                                     
   LULTRA =        F    use ultrasoft PP ?                                                          
   IUNSCR =        0    unscreen: 0-lin 1-nonlin 2-no                                               
   RPACOR =    0.000    partial core radius                                                         
   POMASS =    1.000; ZVAL   =    1.000    mass and valenz                                          
   RCORE  =    1.100    outmost cutoff radius                                                       
   RWIGS  =    0.700; RWIGS  =    0.370    wigner-seitz radius (au A)                               
   ENMAX  =  250.000; ENMIN  =  200.000 eV                                                          
   RCLOC  =    0.701    cutoff for local pot                                                        
   LCOR   =        T    correct aug charges                                                         
   LPAW   =        T    paw PP                                                                      
   EAUG   =  400.000                                                                                
   RMAX   =    1.123    core radius for proj-oper                                                   
   RAUG   =    1.200    factor for augmentation sphere                                              
   RDEP   =    1.112    radius for radial grids                                                     
   RDEPT  =    0.926    core radius for aug-charge                                                  
                                                                                                    
   Atomic configuration                                                                             
    2 entries                                                                                       
     n  l   j            E        occ.                                                              
     1  0  0.50        -6.4927   1.0000                                                             
     2  1  0.50        -3.4015   0.0000                                                             
   Description                                                                                      
     l       E           TYP  RCUT    TYP  RCUT                                                     
     0     -6.4927494     23  1.100                                                                 
     0      6.8029130     23  1.100                                                                 
     1     -4.0817478     23  1.100                                                                 
  local pseudopotential read in
  atomic valenz-charges read in
  non local Contribution for L=           0  read in
    real space projection operators read in
  non local Contribution for L=           0  read in
    real space projection operators read in
  non local Contribution for L=           1  read in
    real space projection operators read in
    PAW grid and wavefunctions read in
 
   number of l-projection  operators is LMAX  =           3
   number of lm-projection operators is LMMAX =           5
 
 Optimization of the real space projectors (new method)

 maximal supplied QI-value         = 25.13
 optimisation between [QCUT,QGAM] = [ 11.31, 22.87] = [ 35.82,146.48] Ry 
 Optimized for a Real-space Cutoff    1.03 Angstroem

   l    n(q)    QCUT    max X(q) W(low)/X(q) W(high)/X(q)  e(spline) 
   0      7    11.310   115.676    0.20E-03    0.90E-03    0.20E-06
   0      7    11.310    87.132    0.20E-03    0.89E-03    0.19E-06
   1      6    11.310     4.429    0.16E-03    0.28E-03    0.12E-06
   1      6    11.310     2.733    0.12E-03    0.21E-03    0.99E-07
 Optimization of the real space projectors (new method)

 maximal supplied QI-value         = 25.13
 optimisation between [QCUT,QGAM] = [ 11.31, 22.87] = [ 35.82,146.48] Ry 
 Optimized for a Real-space Cutoff    1.43 Angstroem

   l    n(q)    QCUT    max X(q) W(low)/X(q) W(high)/X(q)  e(spline) 
   0     10    11.310    79.467    0.42E-04    0.81E-04    0.60E-06
   0     10    11.310    66.151    0.40E-04    0.81E-04    0.60E-06
   1      9    11.310    17.416    0.14E-03    0.88E-04    0.14E-05
   1      9    11.310    12.382    0.15E-03    0.93E-04    0.14E-05
 Optimization of the real space projectors (new method)

 maximal supplied QI-value         = 34.20
 optimisation between [QCUT,QGAM] = [ 11.29, 22.57] = [ 35.68,142.71] Ry 
 Optimized for a Real-space Cutoff    1.20 Angstroem

   l    n(q)    QCUT    max X(q) W(low)/X(q) W(high)/X(q)  e(spline) 
   0      8    11.287    19.460    0.22E-03    0.50E-03    0.19E-06
   0      8    11.287    12.209    0.21E-03    0.48E-03    0.18E-06
   1      8    11.287     4.655    0.21E-03    0.11E-04    0.26E-06
  PAW_PBE C 08Apr2002                   :
 energy of atom  1       EATOM= -147.1560
 kinetic energy error for atom=    0.0076 (will be added to EATOM!!)
  PAW_PBE N 08Apr2002                   :
 energy of atom  2       EATOM= -264.5486
 kinetic energy error for atom=    0.0138 (will be added to EATOM!!)
  PAW_PBE H 15Jun2001                   :
 energy of atom  3       EATOM=  -12.4884
 kinetic energy error for atom=    0.0020 (will be added to EATOM!!)
 
 
 POSCAR: C N H
  positions in direct lattice
  velocities in cartesian coordinates
 exchange correlation table for  LEXCH =        8
   RHO(1)=    0.500       N(1)  =     2000
   RHO(2)=  100.500       N(2)  =     4000
 
 POSCAR: C N H
  positions in direct lattice
  velocities in cartesian coordinates
 
 POSCAR: C N H
  positions in direct lattice
  velocities in cartesian coordinates
 


--------------------------------------------------------------------------------------------------------


 ion  position               nearest neighbor table
   1  0.515  0.471  0.495-  14 1.10  13 1.10   5 1.47   4 1.55
   2  0.515  0.529  0.495-  12 1.10  11 1.10   5 1.47   3 1.55
   3  0.478  0.519  0.502-  10 1.10   9 1.10   2 1.55   4 1.55
   4  0.478  0.481  0.502-   8 1.10   7 1.10   1 1.55   3 1.55
   5  0.535  0.500  0.505-   6 1.02   1 1.47   2 1.47
   6  0.537  0.500  0.531-   5 1.02
   7  0.469  0.471  0.526-   4 1.10
   8  0.461  0.470  0.483-   4 1.10
   9  0.469  0.529  0.526-   3 1.10
  10  0.461  0.530  0.483-   3 1.10
  11  0.519  0.533  0.468-   2 1.10
  12  0.523  0.552  0.508-   2 1.10
  13  0.519  0.467  0.468-   1 1.10
  14  0.523  0.448  0.508-   1 1.10
 
  LATTYP: Found a simple cubic cell.
 ALAT       =    40.0000000000
  
  Lattice vectors:
  
 A1 = (  40.0000000000,   0.0000000000,   0.0000000000)
 A2 = (   0.0000000000,  40.0000000000,   0.0000000000)
 A3 = (   0.0000000000,   0.0000000000,  40.0000000000)


Analysis of symmetry for initial positions (statically):
=====================================================================
 Subroutine PRICEL returns:
 Original cell was already a primitive cell.
 

 Routine SETGRP: Setting up the symmetry group for a 
 simple cubic supercell.


 Subroutine GETGRP returns: Found  1 space group operations
 (whereof  1 operations were pure point group operations)
 out of a pool of 48 trial point group operations.


The static configuration has the point symmetry C_1 .


Analysis of symmetry for dynamics (positions and initial velocities):
=====================================================================
 Subroutine PRICEL returns:
 Original cell was already a primitive cell.
 

 Routine SETGRP: Setting up the symmetry group for a 
 simple cubic supercell.


 Subroutine GETGRP returns: Found  1 space group operations
 (whereof  1 operations were pure point group operations)
 out of a pool of 48 trial point group operations.


The dynamic configuration has the point symmetry C_1 .


Analysis of constrained symmetry for selective dynamics:
=====================================================================
 Subroutine PRICEL returns:
 Original cell was already a primitive cell.
 

 Routine SETGRP: Setting up the symmetry group for a 
 simple cubic supercell.


 Subroutine GETGRP returns: Found  1 space group operations
 (whereof  1 operations were pure point group operations)
 out of a pool of 48 trial point group operations.


The constrained configuration has the point symmetry C_1 .


Analysis of structural, dynamic, and magnetic symmetry:
=====================================================================
 Subroutine PRICEL returns:
 Original cell was already a primitive cell.
 

 Routine SETGRP: Setting up the symmetry group for a 
 simple cubic supercell.


 Subroutine GETGRP returns: Found  1 space group operations
 (whereof  1 operations were pure point group operations)
 out of a pool of 48 trial point group operations.


The overall configuration has the point symmetry C_1 .


 Subroutine INISYM returns: Found  1 space group operations
 (whereof  1 operations are pure point group operations),
 and found     1 'primitive' translations


----------------------------------------------------------------------------------------

                                     Primitive cell                                     

  volume of cell :   64000.0000

  direct lattice vectors                    reciprocal lattice vectors
    40.000000000  0.000000000  0.000000000     0.025000000  0.000000000  0.000000000
     0.000000000 40.000000000  0.000000000     0.000000000  0.025000000  0.000000000
     0.000000000  0.000000000 40.000000000     0.000000000  0.000000000  0.025000000

  length of vectors
    40.000000000 40.000000000 40.000000000     0.025000000  0.025000000  0.025000000

  position of ions in fractional coordinates (direct lattice)
     0.514650252  0.471097767  0.495110964
     0.514656367  0.528909882  0.495145043
     0.477622294  0.519415474  0.501672987
     0.477633722  0.480577854  0.501718337
     0.535115229  0.499994875  0.505243623
     0.537027025  0.499978537  0.530762446
     0.469455874  0.470855223  0.526084595
     0.460821686  0.470063000  0.482711432
     0.469349096  0.529195235  0.525982857
     0.460868869  0.529865500  0.482578165
     0.518700234  0.533131258  0.468198059
     0.522713329  0.551570708  0.508369666
     0.518654260  0.466940505  0.468148780
     0.522732763  0.448407180  0.508272045

  ion indices of the primitive-cell ions
   primitive index   ion index
                 1           1
                 2           2
                 3           3
                 4           4
                 5           5
                 6           6
                 7           7
                 8           8
                 9           9
                10          10
                11          11
                12          12
                13          13
                14          14

----------------------------------------------------------------------------------------

 
 
 KPOINTS: K-Point Grid                            

Automatic generation of k-mesh.
 Grid dimensions read from file:
 generate k-points for:    1    1    1

 Generating k-lattice:

  Cartesian coordinates                     Fractional coordinates (reciprocal lattice)
     0.025000000  0.000000000  0.000000000     1.000000000  0.000000000  0.000000000
     0.000000000  0.025000000  0.000000000     0.000000000  1.000000000  0.000000000
     0.000000000  0.000000000  0.025000000     0.000000000  0.000000000  1.000000000

  Length of vectors
     0.025000000  0.025000000  0.025000000

  Shift w.r.t. Gamma in fractional coordinates (k-lattice)
     0.000000000  0.000000000  0.000000000

 
 Subroutine IBZKPT returns following result:
 ===========================================
 
 Found      1 irreducible k-points:
 
 Following reciprocal coordinates:
            Coordinates               Weight
  0.000000  0.000000  0.000000      1.000000
 
 Following cartesian coordinates:
            Coordinates               Weight
  0.000000  0.000000  0.000000      1.000000
 
 
 Subroutine IBZKPT_HF returns following result:
 ==============================================
 
 Found      1 k-points in 1st BZ
 the following      1 k-points will be used (e.g. in the exchange kernel)
 Following reciprocal coordinates:   # in IRBZ
  0.000000  0.000000  0.000000    1.00000000   1 t-inv F


--------------------------------------------------------------------------------------------------------




 Dimension of arrays:
   k-points           NKPTS =      1   k-points in BZ     NKDIM =      1   number of bands    NBANDS=     36
   number of dos      NEDOS =    301   number of ions     NIONS =     14
   non local maximal  LDIM  =      4   non local SUM 2l+1 LMDIM =      8
   total plane-waves  NPLWV = ******
   max r-space proj   IRMAX =   4928   max aug-charges    IRDMAX=   5085
   dimension x,y,z NGX =   294 NGY =  294 NGZ =  294
   dimension x,y,z NGXF=   588 NGYF=  588 NGZF=  588
   support grid    NGXF=   588 NGYF=  588 NGZF=  588
   ions per type =               4   1   9
   NGX,Y,Z   is equivalent  to a cutoff of  12.22, 12.22, 12.22 a.u.
   NGXF,Y,Z  is equivalent  to a cutoff of  24.44, 24.44, 24.44 a.u.

 SYSTEM =  072_red                                 
 POSCAR =  C N H                                   

 Startparameter for this run:
   NWRITE =      2    write-flag & timer
   PREC   = accura    normal or accurate (medium, high low for compatibility)
   ISTART =      1    job   : 0-new  1-cont  2-samecut
   ICHARG =      2    charge: 1-file 2-atom 10-const
   ISPIN  =      2    spin polarized calculation?
   LNONCOLLINEAR =      F non collinear calculations
   LSORBIT =      F    spin-orbit coupling
   INIWAV =      1    electr: 0-lowe 1-rand  2-diag
   LASPH  =      F    aspherical Exc in radial PAW
 Electronic Relaxation 1
   ENCUT  =  500.0 eV  36.75 Ry    6.06 a.u.  72.93 72.93 72.93*2*pi/ulx,y,z
   ENINI  =  500.0     initial cutoff
   ENAUG  =  644.9 eV  augmentation charge cutoff
   NELM   =    500;   NELMIN=  2; NELMDL=  0     # of ELM steps 
   EDIFF  = 0.1E-04   stopping-criterion for ELM
   LREAL  =      T    real-space projection
   NLSPLINE    = F    spline interpolate recip. space projectors
   LCOMPAT=      F    compatible to vasp.4.4
   GGA_COMPAT  = T    GGA compatible to vasp.4.4-vasp.4.6
   LMAXPAW     = -100 max onsite density
   LMAXMIX     =    2 max onsite mixed and CHGCAR
   VOSKOWN=      0    Vosko Wilk Nusair interpolation
   ROPT   =   -0.00025  -0.00025  -0.00025
 Ionic relaxation
   EDIFFG = -.2E-01   stopping-criterion for IOM
   NSW    =      0    number of steps for IOM
   NBLOCK =      1;   KBLOCK =      1    inner block; outer block 
   IBRION =     -1    ionic relax: 0-MD 1-quasi-New 2-CG
   NFREE  =      1    steps in history (QN), initial steepest desc. (CG)
   ISIF   =      2    stress and relaxation
   IWAVPR =     10    prediction:  0-non 1-charg 2-wave 3-comb
   ISYM   =      3    0-nonsym 1-usesym 2-fastsym
   LCORR  =      T    Harris-Foulkes like correction to forces

   POTIM  = 0.5000    time-step for ionic-motion
   TEIN   =    0.0    initial temperature
   TEBEG  =    0.0;   TEEND  =   0.0 temperature during run
   SMASS  =  -3.00    Nose mass-parameter (am)
   estimated Nose-frequenzy (Omega)   =  0.10E-29 period in steps = 0.13E+47 mass=  -0.366E-25a.u.
   SCALEE = 1.0000    scale energy and forces
   NPACO  =    256;   APACO  = 10.0  distance and # of slots for P.C.
   PSTRESS=    0.0 pullay stress

  Mass of Ions in am
   POMASS =  12.01 14.00  1.00
  Ionic Valenz
   ZVAL   =   4.00  5.00  1.00
  Atomic Wigner-Seitz radii
   RWIGS  =  -1.00 -1.00 -1.00
  virtual crystal weights 
   VCA    =   1.00  1.00  1.00
   NELECT =      30.0000    total number of electrons
   NUPDOWN=      -1.0000    fix difference up-down

 DOS related values:
   EMIN   =  10.00;   EMAX   =-10.00  energy-range for DOS
   EFERMI =   0.00
   ISMEAR =     0;   SIGMA  =   0.05  broadening in eV -4-tet -1-fermi 0-gaus

 Electronic relaxation 2 (details)
   IALGO  =     53    algorithm
   LDIAG  =      F    sub-space diagonalisation (order eigenvalues)
   LSUBROT=      F    optimize rotation matrix (better conditioning)
   TURBO    =      0    0=normal 1=particle mesh
   IRESTART =      0    0=no restart 2=restart with 2 vectors
   NREBOOT  =      0    no. of reboots
   NMIN     =      0    reboot dimension
   EREF     =   0.00    reference energy to select bands
   IMIX   =      4    mixing-type and parameters
     AMIX     =   0.40;   BMIX     =  1.00
     AMIX_MAG =   1.60;   BMIX_MAG =  1.00
     AMIN     =   0.10
     WC   =   100.;   INIMIX=   1;  MIXPRE=   1;  MAXMIX= -45

 Intra band minimization:
   WEIMIN = 0.0000     energy-eigenvalue tresh-hold
   EBREAK =  0.69E-07  absolut break condition
   DEPER  =   0.30     relativ break condition  

   TIME   =   0.40     timestep for ELM

  volume/ion in A,a.u.               =    4571.43     30849.52
  Fermi-wavevector in a.u.,A,eV,Ry     =   0.127171  0.240319  0.220040  0.016173
  Thomas-Fermi vector in A             =   0.760411
 
 Write flags
   LWAVE        =      T    write WAVECAR
   LDOWNSAMPLE  =      F    k-point downsampling of WAVECAR
   LCHARG       =      F    write CHGCAR
   LVTOT        =      F    write LOCPOT, total local potential
   LVHAR        =      F    write LOCPOT, Hartree potential only
   LELF         =      F    write electronic localiz. function (ELF)
   LORBIT       =      0    0 simple, 1 ext, 2 COOP (PROOUT), +10 PAW based schemes


 Dipole corrections
   LMONO  =      F    monopole corrections only (constant potential shift)
   LDIPOL =      F    correct potential (dipole corrections)
   IDIPOL =      0    1-x, 2-y, 3-z, 4-all directions 
   EPSILON=  1.0000000 bulk dielectric constant

 Exchange correlation treatment:
   GGA     =    --    GGA type
   LEXCH   =     8    internal setting for exchange type
   LIBXC   =     F    Libxc                    
   VOSKOWN =     0    Vosko Wilk Nusair interpolation
   EXXOEP  =     0    0=HF, 1=EXX-LHF (local Hartree Fock) 2=EXX OEP
   LHFCALC =     T    Hartree Fock is set to
   LSYMGRAD=     F    symmetrize gradient (conserves proper symmetry)
   PRECFOCK=normal    Normal, Fast or Accurate (Low or Medium for compatibility)
   LRHFCALC=     F    long range Hartree Fock
   LRSCOR  =     F    long range correlation only (use DFT for short range part)
   LTHOMAS =     F    Thomas Fermi screening in HF
   LMODELHF=     F    short range full HF, long range fraction AEXX
   FOCKCORR=     1    mode to apply convergence corrections
   LFOCKACE=     T    use Adeptively-Compressed-Exchange operator
   ENCUT4O =  -1.0   cutoff for four orbital integrals eV
   LMAXFOCK=     4    L truncation for augmentation on plane wave grid
   LMAXFOCKAE=  -1    L truncation for all-electron charge restoration on plane wave grid
   NMAXFOCKAE=   1    number of basis functions for all-electron charge restoration
   LFOCKAEDFT=     F  apply the AE augmentation even for DFT
   NKREDX  =     1    reduce k-point grid by
   NKREDY  =     1    reduce k-point grid by
   NKREDZ  =     1    reduce k-point grid by
   SHIFTRED=     F    shift reduced grid of Gamma
   HFKIDENT=     F    idential grid for each k-point
   ODDONLY =     F    use only odd q-grid points
   EVENONLY=     F    use only even q-grid points
   HFALPHA =   -1.0000 decay constant for conv. correction
   MCALPHA =    0.0000 extent of test-charge in conv. correction in multipole expansion
   AEXX    =    0.2500 exact exchange contribution
   HFSCREEN=    0.2000 screening length (either q_TF or 0.3 A-1)
   HFSCREENC=   0.2000 screening length for correlation (either q_TF or 0.3 A-1)
   HFRCUT  =    0.0000 spherical cutoff for potential kernel
   ALDAX   =    0.7500 LDA exchange part
   AGGAX   =    0.7500 GGA exchange part
   ALDAC   =    1.0000 LDA correlation
   AGGAC   =    1.0000 GGA correlation
   ENCUTFOCK=  -1.0 apply spherical cutoff to Coloumb kernel
   NBANDSGWLOW=     1    first orbital included in HF term
   NBLOCK_FOCK=    64    blocking factor in FOCK_ACC

 Linear response parameters
   LEPSILON=     F    determine dielectric tensor
   LRPA    =     F    only Hartree local field effects (RPA)
   LNABLA  =     F    use nabla operator in PAW spheres
   LVEL    =     F    velocity operator in full k-point grid
   CSHIFT  =0.1000    complex shift for real part using Kramers Kronig
   OMEGAMAX=  -1.0    maximum frequency
   DEG_THRESHOLD= 0.2000000E-02 threshold for treating states as degnerate
   RTIME   =   -0.100 relaxation time in fs
  (WPLASMAI=    0.000 imaginary part of plasma frequency in eV, 0.658/RTIME)
   DFIELD  = 0.0000000 0.0000000 0.0000000 field for delta impulse in time
 
  Optional k-point grid parameters
   LKPOINTS_OPT  =     F    use optional k-point grid
   KPOINTS_OPT_MODE=     1    mode for optional k-point grid
 
 Orbital magnetization related:
   ORBITALMAG=     F  switch on orbital magnetization
   LCHIMAG   =     F  perturbation theory with respect to B field
   DQ        =  0.001000  dq finite difference perturbation B field
   LLRAUG    =     F  two centre corrections for induced B field

 Solvation model:
   LSOL             =     T         switch on solvation model
   LSOL_SCF         =     T         include solvation in SCF
   ISOL             =     2         solvation model type
   EFERMI_ref       =  0.000000         reference Fermi level
   capacitance_init =  1.000000         initial capacitance
 Nonlinear solvation model:
   LNLDIEL     =     T         switch on non-linear dielectric mode
   LNLION      =     T         switch on non-linear ionic mode
   LNLTEST     =     F         test non-linear model in linear regime
   I_NLOC_SOL  =     1         type of nonlocal dielectric response
   NC_K        =  0.015000     cutoff charge density for cavities (1/Angstrom**3)
   TAU         =  0.000879     cavity formation energy (eV/Angstrom**2)
   SIGMA_K     =  0.600000     cavity width
   A_K         =  0.125000     smoothing length (Angstrom)
   R_SOLV      =  2.190000     solvent radius (Angstrom)
   R_CAV       =  0.000000     cavity radius (Angstrom)
   R_DIEL      =  1.000000     dielectric radius (Angstrom)
   R_ION       =  0.000000     ionic radius (Angstrom)
   R_B         =  0.000000     bound charge radius (Angstrom)
   SOLTEMP     =298.000000     solvent temperature (K)
   EB_K        = 35.688000     relative permittivity of the bulk solvent
   EPSILON_INF =  1.806900     optical relative permittivity of bulk solvent
   N_MOL       =  0.011500     molar density of solvent (1/Angstrom**3)
   P_MOL       =  0.820000     solvent dipole moment (e*Angstrom)
   C_MOLAR     =  0.000000     electrolyte concentration (mol/L)
   LAMBDA_D_K  =  0.000000     Debye length (Angstrom)
   ZION        =  1.000000     charge of ions in electrolyte (e)
   D_ION       = -1.000000     minimum ion packing diameter (Angstrom)



--------------------------------------------------------------------------------------------------------


 Static calculation
 charge density and potential will be updated during run
 spin polarized calculation
 Conjugate gradient for all bands (Kresse, et al. variant)
 perform Loewdin sub-space diagonalisation
    ordering is kept fixed
    before iterative eigenvector-optimisation
 modified Broyden-mixing scheme, WC =      100.0
 initial mixing is a Kerker type mixing with AMIX =  0.4000 and BMIX =      1.0000
 Hartree-type preconditioning will be used
 using additional bands           21
 real space projection scheme for non local part
 use partial core corrections
 no Harris-corrections to forces 
 use gradient corrections 
 use of overlap-Matrix (Vanderbilt PP)
 Gauss-broadening in eV      SIGMA  =   0.05


--------------------------------------------------------------------------------------------------------


  energy-cutoff  :      500.00
  volume of cell :    64000.00
      direct lattice vectors                 reciprocal lattice vectors
    40.000000000  0.000000000  0.000000000     0.025000000  0.000000000  0.000000000
     0.000000000 40.000000000  0.000000000     0.000000000  0.025000000  0.000000000
     0.000000000  0.000000000 40.000000000     0.000000000  0.000000000  0.025000000

  length of vectors
    40.000000000 40.000000000 40.000000000     0.025000000  0.025000000  0.025000000


 
 old parameters found on file WAVECAR:
  energy-cutoff  :      500.00
  volume of cell :    64000.00
      direct lattice vectors                 reciprocal lattice vectors
    40.000000000  0.000000000  0.000000000     0.025000000  0.000000000  0.000000000
     0.000000000 40.000000000  0.000000000     0.000000000  0.025000000  0.000000000
     0.000000000  0.000000000 40.000000000     0.000000000  0.000000000  0.025000000

  length of vectors

 
 k-points in units of 2pi/SCALE and weight: K-Point Grid                            
   0.00000000  0.00000000  0.00000000       1.000
 
 k-points in reciprocal lattice and weights: K-Point Grid                            
   0.00000000  0.00000000  0.00000000       1.000
 
 position of ions in fractional coordinates (direct lattice) 
   0.51465025  0.47109777  0.49511096
   0.51465637  0.52890988  0.49514504
   0.47762229  0.51941547  0.50167299
   0.47763372  0.48057785  0.50171834
   0.53511523  0.49999488  0.50524362
   0.53702703  0.49997854  0.53076245
   0.46945587  0.47085522  0.52608459
   0.46082169  0.47006300  0.48271143
   0.46934910  0.52919524  0.52598286
   0.46086887  0.52986550  0.48257817
   0.51870023  0.53313126  0.46819806
   0.52271333  0.55157071  0.50836967
   0.51865426  0.46694051  0.46814878
   0.52273276  0.44840718  0.50827205
 
 position of ions in cartesian coordinates  (Angst):
  20.58601008 18.84391067 19.80443858
  20.58625468 21.15639528 19.80580171
  19.10489177 20.77661898 20.06691949
  19.10534887 19.22311416 20.06873348
  21.40460915 19.99979501 20.20974494
  21.48108102 19.99914147 21.23049785
  18.77823495 18.83420893 21.04338379
  18.43286745 18.80252001 19.30845728
  18.77396384 21.16780942 21.03931426
  18.43475475 21.19462002 19.30312660
  20.74800936 21.32525032 18.72792238
  20.90853317 22.06282833 20.33478664
  20.74617041 18.67762021 18.72595121
  20.90931050 17.93628720 20.33088180
 


--------------------------------------------------------------------------------------------------------


 k-point   1 :   0.0000 0.0000 0.0000  plane waves: 1624525

 maximum and minimum number of plane-waves per node :    162473   162437

 maximum number of plane-waves:   1624525
 maximum index in each direction: 
   IXMAX=   72   IYMAX=   72   IZMAX=   72
   IXMIN=  -72   IYMIN=  -72   IZMIN=  -72


 real space projection operators:
  total allocation   :       1717.84 KBytes
  max/ min on nodes  :        178.03        168.07


 parallel 3D FFT for wavefunctions:
    minimum data exchange during FFTs selected (reduces bandwidth)
 parallel 3D FFT for charge:
    minimum data exchange during FFTs selected (reduces bandwidth)


 FFT grid for exact exchange (Hartree Fock) 
  NGX =224; NGY =224; NGZ =224

 
 Radii for the augmentation spheres in the non-local exchange
 for species   1 augmentation radius   0.874 (default was   0.699)
       energy cutoff for augmentation   2000.0
 for species   2 augmentation radius   0.886 (default was   0.709)
       energy cutoff for augmentation   2000.0
 for species   3 augmentation radius   0.650 (default was   0.520)
       energy cutoff for augmentation   2000.0

 real space projection operators:
  total allocation   :        302.20 KBytes
  max/ min on nodes  :         42.19         17.23

 Maximum index for augmentation-charges in exchange           76
  SETUP_FOCK is finished

 total amount of memory used by VASP MPI-rank0   739576. kBytes
=======================================================================

   base      :      30000. kBytes
   nonlr-proj:       1524. kBytes
   fftplans  :     224335. kBytes
   grid      :     421299. kBytes
   one-center:         12. kBytes
   HF        :          9. kBytes
   wavefun   :      62397. kBytes
 
     INWAV:  cpu time      9.8834: real time      9.8999
 Broyden mixing: mesh for mixing (old mesh)
   NGX =145   NGY =145   NGZ =145
  (NGX  =588   NGY  =588   NGZ  =588)
  gives a total of ****** points

 initial charge density was supplied:
 charge density of overlapping atoms calculated
 number of electron      30.0000000 magnetization      14.0000000
 charge density for first step will be calculated from the start-wavefunctions


--------------------------------------------------------------------------------------------------------


 Maximum index for non-local projection operator          486
 Maximum index for augmentation-charges          180 (set IRDMAX)


--------------------------------------------------------------------------------------------------------


 initial charge from wavefunction
 First call to EWALD:  gamma=   0.044
 Maximum number of real-space cells 3x 3x 3
 Maximum number of reciprocal cells 3x 3x 3

    FEWALD:  cpu time      0.0035: real time      0.0035


--------------------------------------- Iteration      1(   1)  ---------------------------------------


    POTLOK:  cpu time     13.5248: real time     13.5263
    SETDIJ:  cpu time      0.0701: real time      0.0701
    TRIAL :  cpu time     89.9087: real time     89.9166
    CORREC:  cpu time      0.3967: real time      0.3967
    CHARGE:  cpu time      2.7932: real time      2.7934
    --------------------------------------------
      LOOP:  cpu time    106.7310: real time    106.7410

 eigenvalue-minimisations  :     0
 total energy-change (2. order) :-0.8997248E+02  (-0.1567576E-01)
 number of electron      30.0000002 magnetization       0.0000000
 augmentation part        0.7915303 magnetization       0.0000002

 Free energy of the ion-electron system (eV)
  ---------------------------------------------------
  alpha Z        PSCENC =         0.05888504
  Ewald energy   TEWEN  =      2437.32000108
  -Hartree energ DENC   =     -3221.64573160
  -exchange      EXHF   =        67.20723584
  -V(xc)+E(xc)   XCENC  =        77.76808378
  PAW double counting   =      2380.98249824    -2383.89322251
  entropy T*S    EENTRO =        -0.00000000
  eigenvalues    EBANDS =      -399.18156636
  atomic energy  EATOM  =       951.41134137
  ---------------------------------------------------
  free energy    TOTEN  =       -89.97247511 eV

  energy without entropy =      -89.97247511  energy(sigma->0) =      -89.97247511
  exchange ACFDT corr.  =        -0.00000000  see jH, gK, PRB 81, 115126


--------------------------------------------------------------------------------------------------------




--------------------------------------- Iteration      1(   2)  ---------------------------------------


    --------------------------------------------
      INIT:  cpu time      0.3953: real time      0.3954
  FINALIZE:  cpu time    114.2681: real time    114.2771
    --------------------------------------------
    POTLOK:  cpu time    128.6602: real time    128.6706
    SETDIJ:  cpu time      0.0719: real time      0.0719
    TRIAL :  cpu time     87.6562: real time     87.6671
    CORREC:  cpu time      0.3838: real time      0.3839
    CHARGE:  cpu time      3.2075: real time      3.2078
    --------------------------------------------
      LOOP:  cpu time    220.0251: real time    220.0559

 eigenvalue-minimisations  :     0
 total energy-change (2. order) : 0.1505037E+00  (-0.7229637E-02)
 number of electron      30.0000002 magnetization      -0.0000000
 augmentation part        0.7917055 magnetization       0.0000002

 Free energy of the ion-electron system (eV)
  ---------------------------------------------------
  alpha Z        PSCENC =         0.05888504
  Ewald energy   TEWEN  =      2437.32000108
  -Hartree energ DENC   =     -3222.13492958
  -exchange      EXHF   =        67.21453969
  -V(xc)+E(xc)   XCENC  =        77.77608719
  PAW double counting   =      2380.40953754    -2383.32095382
  entropy T*S    EENTRO =        -0.00000000
  eigenvalues    EBANDS =      -398.20049655
  atomic energy  EATOM  =       951.41134137
  ---------------------------------------------------
  free energy    TOTEN  =       -89.82197141 eV

  energy without entropy =      -89.82197141  energy(sigma->0) =      -89.82197141
  exchange ACFDT corr.  =         0.00000000  see jH, gK, PRB 81, 115126


--------------------------------------------------------------------------------------------------------




--------------------------------------- Iteration      1(   3)  ---------------------------------------


    --------------------------------------------
      INIT:  cpu time      0.5867: real time      0.5868
  FINALIZE:  cpu time     56.8697: real time     56.8750
    --------------------------------------------
    POTLOK:  cpu time     75.0242: real time     75.0310
    SETDIJ:  cpu time      0.0738: real time      0.0738
    TRIAL :  cpu time     91.1152: real time     91.1244
    CORREC:  cpu time      0.3219: real time      0.3219
    CHARGE:  cpu time      2.8155: real time      2.8158
    --------------------------------------------
      LOOP:  cpu time    169.3969: real time    169.4199

 eigenvalue-minimisations  :     0
 total energy-change (2. order) :-0.4810592E-02  (-0.2618514E-02)
 number of electron      30.0000002 magnetization      -0.0000000
 augmentation part        0.7915354 magnetization       0.0000001

 Free energy of the ion-electron system (eV)
  ---------------------------------------------------
  alpha Z        PSCENC =         0.05888504
  Ewald energy   TEWEN  =      2437.32000108
  -Hartree energ DENC   =     -3222.58740309
  -exchange      EXHF   =        67.22639196
  -V(xc)+E(xc)   XCENC  =        77.78696571
  PAW double counting   =      2381.14304710    -2384.05481668
  entropy T*S    EENTRO =        -0.00000000
  eigenvalues    EBANDS =      -397.74703154
  atomic energy  EATOM  =       951.41134137
  ---------------------------------------------------
  free energy    TOTEN  =       -89.82678200 eV

  energy without entropy =      -89.82678200  energy(sigma->0) =      -89.82678200
  exchange ACFDT corr.  =         0.00000000  see jH, gK, PRB 81, 115126


--------------------------------------------------------------------------------------------------------




--------------------------------------- Iteration      1(   4)  ---------------------------------------


    --------------------------------------------
      INIT:  cpu time      0.3882: real time      0.3882
  FINALIZE:  cpu time     53.7208: real time     53.7225
    --------------------------------------------
    POTLOK:  cpu time     66.9092: real time     66.9120
    SETDIJ:  cpu time      0.0709: real time      0.0709
    TRIAL :  cpu time     90.2397: real time     90.2456
    CORREC:  cpu time      0.1441: real time      0.1441
    CHARGE:  cpu time      2.6417: real time      2.6419
    --------------------------------------------
      LOOP:  cpu time    160.0475: real time    160.0629

 eigenvalue-minimisations  :     0
 total energy-change (2. order) :-0.1335464E-02  (-0.4957812E-03)
 number of electron      30.0000002 magnetization      -0.0000000
 augmentation part        0.7914471 magnetization      -0.0000000

 Free energy of the ion-electron system (eV)
  ---------------------------------------------------
  alpha Z        PSCENC =         0.05888504
  Ewald energy   TEWEN  =      2437.32000108
  -Hartree energ DENC   =     -3222.43243815
  -exchange      EXHF   =        67.22244002
  -V(xc)+E(xc)   XCENC  =        77.78279790
  PAW double counting   =      2381.82362803    -2384.73460074
  entropy T*S    EENTRO =        -0.00000000
  eigenvalues    EBANDS =      -397.86756572
  atomic energy  EATOM  =       951.41134137
  ---------------------------------------------------
  free energy    TOTEN  =       -89.82811746 eV

  energy without entropy =      -89.82811746  energy(sigma->0) =      -89.82811746
  exchange ACFDT corr.  =         0.00000000  see jH, gK, PRB 81, 115126


--------------------------------------------------------------------------------------------------------




--------------------------------------- Iteration      1(   5)  ---------------------------------------


    --------------------------------------------
      INIT:  cpu time      0.3925: real time      0.3925
  FINALIZE:  cpu time     52.5593: real time     52.5636
    --------------------------------------------
    POTLOK:  cpu time     67.4703: real time     67.4759
    SETDIJ:  cpu time      0.0727: real time      0.0727
    TRIAL :  cpu time     90.9874: real time     90.9964
    CORREC:  cpu time      0.1438: real time      0.1438
    CHARGE:  cpu time      3.0343: real time      3.0345
    --------------------------------------------
      LOOP:  cpu time    161.7419: real time    161.7655

 eigenvalue-minimisations  :     0
 total energy-change (2. order) :-0.1928539E-03  (-0.1858679E-03)
 number of electron      30.0000002 magnetization      -0.0000000
 augmentation part        0.7915108 magnetization      -0.0000001

 Free energy of the ion-electron system (eV)
  ---------------------------------------------------
  alpha Z        PSCENC =         0.05888504
  Ewald energy   TEWEN  =      2437.32000108
  -Hartree energ DENC   =     -3222.33744755
  -exchange      EXHF   =        67.21938280
  -V(xc)+E(xc)   XCENC  =        77.77967169
  PAW double counting   =      2382.30457703    -2385.21510576
  entropy T*S    EENTRO =        -0.00000000
  eigenvalues    EBANDS =      -397.95309997
  atomic energy  EATOM  =       951.41134137
  ---------------------------------------------------
  free energy    TOTEN  =       -89.82831032 eV

  energy without entropy =      -89.82831032  energy(sigma->0) =      -89.82831032
  exchange ACFDT corr.  =        -0.00000000  see jH, gK, PRB 81, 115126


--------------------------------------------------------------------------------------------------------




--------------------------------------- Iteration      1(   6)  ---------------------------------------


    --------------------------------------------
      INIT:  cpu time      0.3870: real time      0.3870
  FINALIZE:  cpu time     60.7459: real time     60.7506
    --------------------------------------------
    POTLOK:  cpu time     75.0622: real time     75.0681
    SETDIJ:  cpu time      0.0716: real time      0.0716
    TRIAL :  cpu time     89.4405: real time     89.4471
    CORREC:  cpu time      0.0043: real time      0.0043
    CHARGE:  cpu time      2.6374: real time      2.6376
    --------------------------------------------
      LOOP:  cpu time    167.2611: real time    167.2806

 eigenvalue-minimisations  :     0
 total energy-change (2. order) :-0.8602640E-04  (-0.9086928E-04)
 number of electron      30.0000002 magnetization      -0.0000000
 augmentation part        0.7915718 magnetization      -0.0000001

 Free energy of the ion-electron system (eV)
  ---------------------------------------------------
  alpha Z        PSCENC =         0.05888504
  Ewald energy   TEWEN  =      2437.32000108
  -Hartree energ DENC   =     -3222.42864087
  -exchange      EXHF   =        67.22172683
  -V(xc)+E(xc)   XCENC  =        77.78176060
  PAW double counting   =      2382.57289339    -2385.48355451
  entropy T*S    EENTRO =        -0.00000000
  eigenvalues    EBANDS =      -397.87292136
  atomic energy  EATOM  =       951.41134137
  ---------------------------------------------------
  free energy    TOTEN  =       -89.82839634 eV

  energy without entropy =      -89.82839634  energy(sigma->0) =      -89.82839634
  exchange ACFDT corr.  =        -0.00000000  see jH, gK, PRB 81, 115126


--------------------------------------------------------------------------------------------------------




--------------------------------------- Iteration      1(   7)  ---------------------------------------


    --------------------------------------------
      INIT:  cpu time      0.3949: real time      0.3949
  FINALIZE:  cpu time     64.8356: real time     64.8443
    --------------------------------------------
    POTLOK:  cpu time     78.0346: real time     78.0444
    SETDIJ:  cpu time      0.0721: real time      0.0721
    TRIAL :  cpu time     90.1919: real time     90.2000
    CORREC:  cpu time      0.3277: real time      0.3278
    CHARGE:  cpu time      2.8260: real time      2.8262
    --------------------------------------------
      LOOP:  cpu time    171.4917: real time    171.5152

 eigenvalue-minimisations  :     0
 total energy-change (2. order) :-0.5048495E-04  (-0.5200838E-04)
 number of electron      30.0000002 magnetization      -0.0000000
 augmentation part        0.7915856 magnetization      -0.0000001

 Free energy of the ion-electron system (eV)
  ---------------------------------------------------
  alpha Z        PSCENC =         0.05888504
  Ewald energy   TEWEN  =      2437.32000108
  -Hartree energ DENC   =     -3222.46126219
  -exchange      EXHF   =        67.22281486
  -V(xc)+E(xc)   XCENC  =        77.78275097
  PAW double counting   =      2382.58678791    -2385.49760273
  entropy T*S    EENTRO =        -0.00000000
  eigenvalues    EBANDS =      -397.84534069
  atomic energy  EATOM  =       951.41134137
  ---------------------------------------------------
  free energy    TOTEN  =       -89.82844683 eV

  energy without entropy =      -89.82844683  energy(sigma->0) =      -89.82844683
  exchange ACFDT corr.  =        -0.00000000  see jH, gK, PRB 81, 115126


--------------------------------------------------------------------------------------------------------




--------------------------------------- Iteration      1(   8)  ---------------------------------------


    --------------------------------------------
      INIT:  cpu time      0.3889: real time      0.3890
  FINALIZE:  cpu time     62.1836: real time     62.1883
    --------------------------------------------
    POTLOK:  cpu time     77.6675: real time     77.6733
    SETDIJ:  cpu time      0.0719: real time      0.0720
    TRIAL :  cpu time     88.0283: real time     88.0349
    CORREC:  cpu time      0.1927: real time      0.1927
    CHARGE:  cpu time      2.6419: real time      2.6421
    --------------------------------------------
      LOOP:  cpu time    168.6363: real time    168.6539

 eigenvalue-minimisations  :     0
 total energy-change (2. order) :-0.3180603E-04  (-0.2085409E-04)
 number of electron      30.0000002 magnetization      -0.0000000
 augmentation part        0.7915917 magnetization      -0.0000001

 Free energy of the ion-electron system (eV)
  ---------------------------------------------------
  alpha Z        PSCENC =         0.05888504
  Ewald energy   TEWEN  =      2437.32000108
  -Hartree energ DENC   =     -3222.42153194
  -exchange      EXHF   =        67.22193004
  -V(xc)+E(xc)   XCENC  =        77.78194061
  PAW double counting   =      2382.48524836    -2385.39610532
  entropy T*S    EENTRO =        -0.00000000
  eigenvalues    EBANDS =      -397.88304152
  atomic energy  EATOM  =       951.41134137
  ---------------------------------------------------
  free energy    TOTEN  =       -89.82847863 eV

  energy without entropy =      -89.82847863  energy(sigma->0) =      -89.82847863
  exchange ACFDT corr.  =        -0.00000000  see jH, gK, PRB 81, 115126


--------------------------------------------------------------------------------------------------------




--------------------------------------- Iteration      1(   9)  ---------------------------------------


    --------------------------------------------
      INIT:  cpu time      0.3932: real time      0.3932
  FINALIZE:  cpu time     59.5255: real time     59.5327
    --------------------------------------------
    POTLOK:  cpu time     77.0530: real time     77.0616
    SETDIJ:  cpu time      0.0723: real time      0.0723
    TRIAL :  cpu time     88.5187: real time     88.5281
    CORREC:  cpu time      0.3773: real time      0.3773
    CHARGE:  cpu time      2.6349: real time      2.6351
    --------------------------------------------
      LOOP:  cpu time    168.6935: real time    168.7181

 eigenvalue-minimisations  :     0
 total energy-change (2. order) :-0.1251125E-04  (-0.6785876E-05)
 number of electron      30.0000002 magnetization      -0.0000000
 augmentation part        0.7915984 magnetization      -0.0000001

 Free energy of the ion-electron system (eV)
  ---------------------------------------------------
  alpha Z        PSCENC =         0.05888504
  Ewald energy   TEWEN  =      2437.32000108
  -Hartree energ DENC   =     -3222.41345852
  -exchange      EXHF   =        67.22181669
  -V(xc)+E(xc)   XCENC  =        77.78184810
  PAW double counting   =      2382.44697809    -2385.35788399
  entropy T*S    EENTRO =        -0.00000000
  eigenvalues    EBANDS =      -397.89012468
  atomic energy  EATOM  =       951.41134137
  ---------------------------------------------------
  free energy    TOTEN  =       -89.82849115 eV

  energy without entropy =      -89.82849115  energy(sigma->0) =      -89.82849115
  exchange ACFDT corr.  =        -0.00000000  see jH, gK, PRB 81, 115126


--------------------------------------------------------------------------------------------------------




--------------------------------------- Iteration      1(  10)  ---------------------------------------


    --------------------------------------------
      INIT:  cpu time      0.5678: real time      0.5679
  FINALIZE:  cpu time     58.5313: real time     58.5357
    --------------------------------------------
    POTLOK:  cpu time     74.5368: real time     74.5429
    SETDIJ:  cpu time      0.0721: real time      0.0721
    TRIAL :  cpu time     87.8915: real time     87.9009
    CORREC:  cpu time      0.5308: real time      0.5308
    CHARGE:  cpu time      3.7765: real time      3.7768
    --------------------------------------------
      LOOP:  cpu time    166.8418: real time    166.8636

 eigenvalue-minimisations  :     0
 total energy-change (2. order) :-0.3833441E-05  (-0.2320120E-05)
 number of electron      30.0000002 magnetization      -0.0000000
 augmentation part        0.7915973 magnetization      -0.0000000

 Free energy of the ion-electron system (eV)
  ---------------------------------------------------
  alpha Z        PSCENC =         0.05888504
  Ewald energy   TEWEN  =      2437.32000108
  -Hartree energ DENC   =     -3222.42510130
  -exchange      EXHF   =        67.22214303
  -V(xc)+E(xc)   XCENC  =        77.78216807
  PAW double counting   =      2382.45084026    -2385.36178218
  entropy T*S    EENTRO =        -0.00000000
  eigenvalues    EBANDS =      -397.87886378
  atomic energy  EATOM  =       951.41134137
  ---------------------------------------------------
  free energy    TOTEN  =       -89.82849498 eV

  energy without entropy =      -89.82849498  energy(sigma->0) =      -89.82849498
  exchange ACFDT corr.  =        -0.00000000  see jH, gK, PRB 81, 115126


--------------------------------------------------------------------------------------------------------


  average scaling for gradient   1.6895


 average (electrostatic) potential at core
  the test charge radii are     0.6991  0.7089  0.5201
  (the norm of the test charge is              1.0000)
       1 -55.0452       2 -55.0451       3 -54.4448       4 -54.4450       5 -67.6934
       6 -38.8490       7 -37.2542       8 -37.2999       9 -37.2545      10 -37.2988
      11 -37.2665      12 -37.5012      13 -37.2676      14 -37.5010
 
 
 
 E-fermi :  -5.9641     XC(G=0):  -0.0148     alpha+bet : -0.0115

 Fermi energy:        -5.9640523387

 spin component 1

 k-point     1 :       0.0000    0.0000    0.0000
  band No.  band energies     occupation 
      1     -25.1531      1.00000
      2     -20.6356      1.00000
      3     -19.6107      1.00000
      4     -16.3279      1.00000
      5     -15.6045      1.00000
      6     -13.6199      1.00000
      7     -12.5924      1.00000
      8     -11.5615      1.00000
      9     -11.4827      1.00000
     10      -9.9636      1.00000
     11      -9.4125      1.00000
     12      -9.1280      1.00000
     13      -9.0890      1.00000
     14      -8.4779      1.00000
     15      -6.2801      1.00000
     16      -0.3735      0.00000
     17       0.0119      0.00000
     18       0.0739      0.00000
     19       0.0254      0.00000
     20       0.0768      0.00000
     21       0.1089      0.00000
     22       0.1090      0.00000
     23       0.1235      0.00000
     24       0.1423      0.00000
     25       0.1446      0.00000
     26       0.1371      0.00000
     27       0.2010      0.00000
     28       0.2017      0.00000
     29       0.2015      0.00000
     30       0.2024      0.00000
     31       0.3518      0.00000
     32       0.2640      0.00000
     33       0.2337      0.00000
     34       0.4238      0.00000
     35       0.2924      0.00000
     36       0.3087      0.00000
 Fermi energy:        -5.9640523387

 spin component 2

 k-point     1 :       0.0000    0.0000    0.0000
  band No.  band energies     occupation 
      1     -25.1531      1.00000
      2     -20.6356      1.00000
      3     -19.6107      1.00000
      4     -16.3279      1.00000
      5     -15.6045      1.00000
      6     -13.6199      1.00000
      7     -12.5924      1.00000
      8     -11.5615      1.00000
      9     -11.4827      1.00000
     10      -9.9636      1.00000
     11      -9.4125      1.00000
     12      -9.1280      1.00000
     13      -9.0890      1.00000
     14      -8.4779      1.00000
     15      -6.2801      1.00000
     16      -0.3735      0.00000
     17       0.0119      0.00000
     18       0.0738      0.00000
     19       0.0254      0.00000
     20       0.0768      0.00000
     21       0.1089      0.00000
     22       0.1090      0.00000
     23       0.1235      0.00000
     24       0.1422      0.00000
     25       0.1445      0.00000
     26       0.1371      0.00000
     27       0.2011      0.00000
     28       0.2017      0.00000
     29       0.2016      0.00000
     30       0.2030      0.00000
     31       0.4128      0.00000
     32       0.2475      0.00000
     33       0.2620      0.00000
     34       0.2955      0.00000
     35       0.2868      0.00000
     36       0.3089      0.00000


--------------------------------------------------------------------------------------------------------


 soft charge-density along one line, spin component           1
         0         1         2         3         4         5         6         7         8         9
 total charge-density along one line
 
 soft charge-density along one line, spin component           2
         0         1         2         3         4         5         6         7         8         9
 total charge-density along one line
 
 pseudopotential strength for first ion, spin component:           1
  9.981  13.271   0.003   0.001   0.002  -0.008  -0.003  -0.007
 13.271  17.646   0.004   0.001   0.003  -0.011  -0.004  -0.009
  0.003   0.004  -4.211  -0.002  -0.003   8.215   0.003   0.006
  0.001   0.001  -0.002  -4.206  -0.002   0.003   8.205   0.003
  0.002   0.003  -0.003  -0.002  -4.207   0.006   0.003   8.209
 -0.008  -0.011   8.215   0.003   0.006 -18.142  -0.006  -0.013
 -0.003  -0.004   0.003   8.205   0.003  -0.006 -18.122  -0.005
 -0.007  -0.009   0.006   0.003   8.209  -0.013  -0.005 -18.132
 pseudopotential strength for first ion, spin component:           2
  9.981  13.271   0.003   0.001   0.002  -0.008  -0.003  -0.007
 13.271  17.646   0.004   0.001   0.003  -0.011  -0.004  -0.009
  0.003   0.004  -4.211  -0.002  -0.003   8.215   0.003   0.006
  0.001   0.001  -0.002  -4.206  -0.002   0.003   8.205   0.003
  0.002   0.003  -0.003  -0.002  -4.207   0.006   0.003   8.209
 -0.008  -0.011   8.215   0.003   0.006 -18.142  -0.006  -0.013
 -0.003  -0.004   0.003   8.205   0.003  -0.006 -18.122  -0.005
 -0.007  -0.009   0.006   0.003   8.209  -0.013  -0.005 -18.132
 total augmentation occupancy for first ion, spin component:           1
  8.354  -3.769   0.027  -0.012   0.078   0.025   0.005   0.017
 -3.769   1.744  -0.056  -0.007  -0.071  -0.021  -0.005  -0.011
  0.027  -0.056   1.571  -0.039  -0.074   0.144   0.001   0.001
 -0.012  -0.007  -0.039   1.636  -0.013   0.001   0.137   0.002
  0.078  -0.071  -0.074  -0.013   1.516   0.001   0.002   0.135
  0.025  -0.021   0.144   0.001   0.001   0.014   0.001   0.001
  0.005  -0.005   0.001   0.137   0.002   0.001   0.012   0.000
  0.017  -0.011   0.001   0.002   0.135   0.001   0.000   0.013
 total augmentation occupancy for first ion, spin component:           2
 -0.000   0.000   0.000   0.000  -0.000   0.000   0.000  -0.000
  0.000  -0.000  -0.000  -0.000   0.000  -0.000  -0.000   0.000
  0.000  -0.000   0.000   0.000  -0.000  -0.000  -0.000   0.000
  0.000  -0.000   0.000   0.000  -0.000   0.000  -0.000  -0.000
 -0.000   0.000  -0.000  -0.000  -0.000   0.000   0.000  -0.000
  0.000  -0.000  -0.000   0.000   0.000  -0.000   0.000   0.000
  0.000  -0.000  -0.000  -0.000   0.000   0.000  -0.000   0.000
 -0.000   0.000   0.000  -0.000  -0.000   0.000   0.000   0.000


------------------------ aborting loop because EDIFF is reached ----------------------------------------


    FORLOC:  cpu time      0.2738: real time      0.2738
    FORHF :  cpu time     37.0008: real time     37.0033
    FORNL :  cpu time      3.2938: real time      3.2941
    STRESS:  cpu time      9.9580: real time      9.9587
    FORCOR:  cpu time     15.8660: real time     15.8672
    OFIELD:  cpu time      0.0203: real time      0.0203
 WARNING: Using user supplied parameters
     VDW_A1 = 0.383
     VDW_A2 = 5.685
     VDW_S8 = 2.31
     because the xc functional is not supported. Required parameters not
     defined in the INCAR file will be replaced with PBE defaults ones.


 ---------------------------------------------------------------------------------------------

         DFTD3 V3.0 Rev 1        
 IVDW         = 12
 DF unknown   
 parameters
 VDW_S6       =    1.0000
 VDW_S8       =    2.3100
 VDW_A1       =    0.3830
 VDW_A2       =    5.6850
 k1-k3        =   16.0000    1.3333   -4.0000
 VDW_RADIUS   =   50.2022 A
 VDW_CNRADIUS =   21.1671 A
 Edisp (eV)   -0.17207

 E6    (eV) :    -0.0938
 E8    (eV) :    -0.0783
 % E8        : 45.49
    FORVDW:  cpu time      0.0082: real time      0.0082

  FORCE on cell =-STRESS in cart. coord.  units (eV):
  Direction    XX          YY          ZZ          XY          YZ          ZX
  --------------------------------------------------------------------------------------
  Alpha Z     0.05889     0.05889     0.05889
  Ewald     965.36938  1046.30412   425.64580    -0.00676     0.00156    38.89282
  Hartree  1221.79356  1243.39558   757.79856     0.00509    -0.01271    11.53811
  E(xc)     -83.14244   -82.99769   -83.15716    -0.00001    -0.00001     0.06620
  Local   -2480.32937 -2563.87832 -1446.86022    -0.00273     0.01640   -41.30108
  n-local   -50.26501   -47.98833   -51.97722    -0.00049    -0.00065     0.97793
  augment     0.96173     0.39141     0.42302     0.00015    -0.00009    -0.26499
  Kinetic   453.17576   432.31368   426.21134     0.00468    -0.00403    -9.97724
  Fock      -29.48473   -29.56873   -30.17678     0.00006    -0.00003    -0.05749
  vdW        -0.03147    -0.03877    -0.01009    -0.00000     0.00000    -0.00001
  -------------------------------------------------------------------------------------
  Total      -1.89371    -2.00816    -2.04387    -0.00001     0.00043    -0.12576
  in kB      -0.04741    -0.05027    -0.05117    -0.00000     0.00001    -0.00315
  external pressure =       -0.05 kB  Pullay stress =        0.00 kB


 VOLUME and BASIS-vectors are now :
 -----------------------------------------------------------------------------
  energy-cutoff  :      500.00
  volume of cell :    64000.00
      direct lattice vectors                 reciprocal lattice vectors
    40.000000000  0.000000000  0.000000000     0.025000000  0.000000000  0.000000000
     0.000000000 40.000000000  0.000000000     0.000000000  0.025000000  0.000000000
     0.000000000  0.000000000 40.000000000     0.000000000  0.000000000  0.025000000

  length of vectors
    40.000000000 40.000000000 40.000000000     0.025000000  0.025000000  0.025000000


 FORCES acting on ions:
    Electron-Ion                     Ewald-Force                    Non-Local-Force
 -----------------------------------------------------------------------------------------------
   -.430E+02 0.180E+03 0.457E+02   0.411E+02 -.182E+03 -.464E+02   0.183E+01 0.219E+01 0.629E+00
   -.430E+02 -.180E+03 0.454E+02   0.411E+02 0.182E+03 -.461E+02   0.183E+01 -.219E+01 0.625E+00
   0.143E+03 -.105E+03 -.124E+02   -.143E+03 0.105E+03 0.122E+02   -.213E+00 -.265E+00 0.169E+00
   0.143E+03 0.105E+03 -.127E+02   -.143E+03 -.105E+03 0.126E+02   -.211E+00 0.265E+00 0.173E+00
   -.252E+03 0.227E-01 -.429E+02   0.278E+03 -.160E-01 0.305E+02   -.236E+02 -.571E-02 0.116E+02
   -.363E+02 0.558E-01 -.935E+02   0.371E+02 -.601E-01 0.100E+03   -.800E+00 0.433E-02 -.691E+01
   0.390E+02 0.376E+02 -.620E+02   -.406E+02 -.396E+02 0.668E+02   0.163E+01 0.192E+01 -.474E+01
   0.576E+02 0.382E+02 0.446E+02   -.609E+02 -.403E+02 -.483E+02   0.332E+01 0.207E+01 0.370E+01
   0.392E+02 -.378E+02 -.618E+02   -.409E+02 0.397E+02 0.665E+02   0.165E+01 -.194E+01 -.473E+01
   0.575E+02 -.381E+02 0.448E+02   -.608E+02 0.401E+02 -.486E+02   0.331E+01 -.206E+01 0.371E+01
   -.178E+02 -.350E+02 0.745E+02   0.187E+02 0.359E+02 -.798E+02   -.834E+00 -.868E+00 0.526E+01
   -.258E+02 -.754E+02 -.275E+02   0.274E+02 0.800E+02 0.301E+02   -.161E+01 -.455E+01 -.259E+01
   -.177E+02 0.349E+02 0.746E+02   0.186E+02 -.357E+02 -.799E+02   -.826E+00 0.856E+00 0.526E+01
   -.259E+02 0.755E+02 -.273E+02   0.275E+02 -.800E+02 0.299E+02   -.162E+01 0.456E+01 -.258E+01
 -----------------------------------------------------------------------------------------------
   0.179E+02 0.808E-02 -.105E+02   0.711E-14 -.142E-13 -.711E-14   -.161E+02 -.924E-02 0.955E+01
 
 
 POSITION                                       TOTAL-FORCE (eV/Angst)
 -----------------------------------------------------------------------------------
     20.58601     18.84391     19.80444         0.036189      0.148072      0.006493
     20.58625     21.15640     19.80580         0.036701     -0.150351      0.001571
     19.10489     20.77662     20.06692         0.094377     -0.050062      0.002569
     19.10535     19.22311     20.06873         0.096301      0.049154      0.003722
     21.40461     19.99980     20.20974        -0.424061      0.000652      0.147908
     21.48108     19.99914     21.23050        -0.039754      0.000258     -0.382048
     18.77823     18.83421     21.04338         0.074148      0.096631     -0.216239
     18.43287     18.80252     19.30846         0.159132      0.098521      0.166029
     18.77396     21.16781     21.03931         0.075312     -0.096519     -0.215365
     18.43475     21.19462     19.30313         0.158788     -0.097424      0.167588
     20.74801     21.32525     18.72792        -0.047126     -0.043477      0.264591
     20.90853     22.06283     20.33479        -0.086169     -0.207580     -0.104886
     20.74617     18.67762     18.72595        -0.046557      0.042634      0.263103
     20.90931     17.93629     20.33088        -0.087282      0.209491     -0.105035
 -----------------------------------------------------------------------------------
    total drift:                                0.021664     -0.001768     -0.000886


--------------------------------------------------------------------------------------------------------



  FREE ENERGIE OF THE ION-ELECTRON SYSTEM (eV)
  ---------------------------------------------------
  free  energy   TOTEN  =       -90.00056348 eV

  energy  without entropy=      -90.00056348  energy(sigma->0) =      -90.00056348
 


--------------------------------------------------------------------------------------------------------


    --------------------------------------------
      INIT:  cpu time      0.5776: real time      0.5776
  FINALIZE:  cpu time     56.5982: real time     56.6065
    --------------------------------------------
    POTLOK:  cpu time     73.7295: real time     73.7392


--------------------------------------------------------------------------------------------------------


 writing wavefunctions
     LOOP+:  cpu time   1851.2243: real time   1852.4534
    4ORBIT:  cpu time      0.0000: real time      0.0000

 total amount of memory used by VASP MPI-rank0  2257341. kBytes
=======================================================================

   base      :      30000. kBytes
   nonlr-proj:       2631. kBytes
   fftplans  :     224335. kBytes
   grid      :     421299. kBytes
   one-center:         12. kBytes
   HF        :          9. kBytes
   wavefun   :      62397. kBytes
   fock_wrk  :    1516658. kBytes
 
  
  
 General timing and accounting informations for this job:
 ========================================================
  
                  Total CPU time used (sec):     1902.357
                            User time (sec):     1088.140
                          System time (sec):      814.216
                         Elapsed time (sec):     1904.592
  
                   Maximum memory used (kb):     3611536.
                   Average memory used (kb):          N/A
  
                          Minor page faults:     19911918
                          Major page faults:            0
                 Voluntary context switches:         9938
