
                                 *****************
                                 * O   R   C   A *
                                 *****************

                                            #,                                       
                                            ###                                      
                                            ####                                     
                                            #####                                    
                                            ######                                   
                                           ########,                                 
                                     ,,################,,,,,                         
                               ,,#################################,,                 
                          ,,##########################################,,             
                       ,#########################################, ''#####,          
                    ,#############################################,,   '####,        
                  ,##################################################,,,,####,       
                ,###########''''           ''''###############################       
              ,#####''   ,,,,##########,,,,          '''####'''          '####       
            ,##' ,,,,###########################,,,                        '##       
           ' ,,###''''                  '''############,,,                           
         ,,##''                                '''############,,,,        ,,,,,,###''
      ,#''                                            '''#######################'''  
     '                                                          ''''####''''         
             ,#######,   #######,   ,#######,      ##                                
            ,#'     '#,  ##    ##  ,#'     '#,    #''#        ,####,   ,####,        
            ##       ##  ##   ,#'  ##            #'  '#       #'       #'  '#        
            ##       ##  #######   ##           ,######,      #####,   #    #        
            '#,     ,#'  ##    ##  '#,     ,#' ,#      #,     #,   #   #,  ,#        
             '#######'   ##     ##  '#######'  #'      '#     '####' # '####'        



                #########################################################
                #                        -***-                          #
                #          Department of theory and spectroscopy        #
                #                                                       #
                #                      Frank Neese                      #
                #                                                       #
                #     Directorship, Architecture, Infrastructure        #
                #                    SHARK, DRIVERS                     #
                #        Core code/Algorithms in most modules           #
                #                                                       #
                #        Max Planck Institute fuer Kohlenforschung      #
                #                Kaiser Wilhelm Platz 1                 #
                #                 D-45470 Muelheim/Ruhr                 #
                #                      Germany                          #
                #                                                       #
                #                  All rights reserved                  #
                #                        -***-                          #
                #########################################################


                         Program Version 6.0.0  -   RELEASE  -


 With contributions from (in alphabetic order):
   Daniel Aravena         : Magnetic Suceptibility
   Michael Atanasov       : Ab Initio Ligand Field Theory (pilot matlab implementation)
   Alexander A. Auer      : GIAO ZORA, VPT2 properties, NMR spectrum
   Ute Becker             : All parallelization in ORCA, NUMFREQ, NUMCALC
   Giovanni Bistoni       : ED, misc. LED, open-shell LED, HFLD
   Martin Brehm           : Molecular dynamics
   Dmytro Bykov           : pre 5.0 version of the SCF Hessian
   Marcos Casanova-Páez   : Triplet and SCS-CIS(D). UHF-(DLPNO)-IP/EA/STEOM-CCSD. UHF-CVS-IP/STEOM-CCSD
   Vijay G. Chilkuri      : MRCI spin determinant printing, contributions to CSF-ICE
   Pauline Colinet        : FMM embedding
   Dipayan Datta          : RHF DLPNO-CCSD density
   Achintya Kumar Dutta   : EOM-CC, STEOM-CC
   Nicolas Foglia         : Exact transition moments, OPA infrastructure, MCD improvements
   Dmitry Ganyushin       : Spin-Orbit,Spin-Spin,Magnetic field MRCI
   Miquel Garcia          : C-PCM and meta-GGA Hessian, CCSD/C-PCM, Gaussian charge scheme
   Tiago L. C. Gouveia    : GS-ROHF, GS-ROCIS
   Yang Guo               : DLPNO-NEVPT2, F12-NEVPT2, CIM, IAO-localization
   Andreas Hansen         : Spin unrestricted coupled pair/coupled cluster methods
   Ingolf Harden          : AUTO-CI MPn and infrastructure 
   Benjamin Helmich-Paris : MC-RPA, TRAH-(SCF,CASSCF), AVAS, COSX integrals, SCF dyn. polar.
   Lee Huntington         : MR-EOM, pCC
   Robert Izsak           : Overlap fitted RIJCOSX, COSX-SCS-MP3, EOM
   Riya Kayal             : Wick's Theorem for AUTO-CI, AUTO-CI UHF-CCSDT
   Emily Kempfer          : AUTO-CI, RHF CISDT and CCSDT
   Christian Kollmar      : KDIIS, OOCD, Brueckner-CCSD(T), CCSD density, CASPT2, CASPT2-K, improved NEVPT2
   Axel Koslowski         : Symmetry handling
   Simone Kossmann        : Meta GGA functionals, TD-DFT gradient, OOMP2, (MP2 Hessian; deprecated post 5.0)
   Lucas Lang             : DCDCAS
   Marvin Lechner         : AUTO-CI (C++ implementation), FIC-MRCC
   Spencer Leger          : CASSCF response
   Dagmar Lenk            : GEPOL surface, SMD, ORCA-2-JSON
   Dimitrios Liakos       : Extrapolation schemes; Compound Job, initial MDCI parallelization
   Dimitrios Manganas     : Further ROCIS development; embedding schemes. LFT, Crystal Embedding
   Dimitrios Pantazis     : SARC Basis sets
   Anastasios Papadopoulos: AUTO-CI, single reference methods and gradients
   Taras Petrenko         : pre 6.0 DFT Hessian and TD-DFT gradient, (ASA, deprecated), ECA, 1-Electron XAS/XES, NRVS
   Peter Pinski           : DLPNO-MP2, DLPNO-MP2 Gradient
   Christoph Reimann      : Effective Core Potentials
   Marius Retegan         : Local ZFS, SOC
   Christoph Riplinger    : Optimizer, TS searches, QM/MM, DLPNO-CCSD(T), (RO)-DLPNO pert. Triples
   Michael Roemelt        : Original ROCIS implementation
   Masaaki Saitow         : Open-shell DLPNO-CCSD energy and density
   Barbara Sandhoefer     : DKH picture change effects
   Kantharuban Sivalingam : CASSCF convergence/infrastructure, NEVPT2 and variants, FIC-MRCI
   Bernardo de Souza      : ESD, SOC TD-DFT
   Georgi Stoychev        : AutoAux, RI-MP2 NMR, DLPNO-MP2 response, X2C
   Van Anh Tran           : RI-MP2 g-tensors
   Willem Van den Heuvel  : Paramagnetic NMR
   Zikuan Wang            : NOTCH, Electric field optimization 
   Frank Wennmohs         : Technical directorship and infrastructure
   Hang Xu                : AUTO-CI-Response properties 


 We gratefully acknowledge several colleagues who have allowed us to
 interface, adapt or use parts of their codes:
   Stefan Grimme, W. Hujo, H. Kruse, P. Pracht,  : VdW corrections, initial TS optimization,
                  C. Bannwarth, S. Ehlert,         DFT functionals, gCP, sTDA/sTD-DF
                  L. Wittmann, M. Mueller
   Ed Valeev, F. Pavosevic, A. Kumar             : LibInt (2-el integral package), F12 methods
   Garnet Chan, S. Sharma, J. Yang, R. Olivares  : DMRG
   Ulf Ekstrom                                   : XCFun DFT Library
   Mihaly Kallay                                 : mrcc  (arbitrary order and MRCC methods)
   Frank Weinhold                                : gennbo (NPA and NBO analysis)
   Simon Mueller                                 : openCOSMO-RS
   Christopher J. Cramer and Donald G. Truhlar   : smd solvation model
   Lars Goerigk                                  : TD-DFT with DH, B97 family of functionals
   V. Asgeirsson, H. Jonsson                     : NEB implementation
   FAccTs GmbH                                   : IRC, NEB, NEB-TS, DLPNO-Multilevel, CI-OPT
                                                   MM, QMMM, 2- and 3-layer-ONIOM, Crystal-QMMM,
                                                   LR-CPCM, SF, NACMEs, symmetry and pop. for TD-DFT,
                                                   nearIR, NL-DFT gradient (VV10), updates on ESD,
                                                   ML-optimized integration grids, MBIS, APM,
                                                   GOAT, DOCKER, SOLVATOR, interface openCOSMO-RS
   S Lehtola, MJT Oliveira, MAL Marques          : LibXC Library
   Liviu Ungur et al                             : ANISO software


 Your calculation uses the libint2 library for the computation of 2-el integrals
 For citations please refer to: http://libint.valeyev.net

 Your ORCA version has been built with support for libXC version: 6.2.2
 For citations please refer to: https://libxc.gitlab.io

 This ORCA versions uses:
   CBLAS   interface :  Fast vector & matrix operations
   LAPACKE interface :  Fast linear algebra routines
   SCALAPACK package :  Parallel linear algebra routines
   Shared memory     :  Shared parallel matrices
   BLAS/LAPACK       :  OpenBLAS 0.3.27  USE64BITINT DYNAMIC_ARCH NO_AFFINITY SkylakeX SINGLE_THREADED
        Core in use  :  SkylakeX
   Copyright (c) 2011-2014, The OpenBLAS Project


NOTE: MaxCore=3000 MB was set to SCF,MP2,MDCI,CIPSI,MRCI and CIS
      => If you want to overwrite this, your respective input block should be placed after the MaxCore statement
Your calculation utilizes the atom-pairwise dispersion correction
with the Becke-Johnson damping scheme (D3BJ)


Warning: RI is on but no J-basis has been assigned. Assigning Def2/J (nothing to worry about!)
================================================================================

----- Orbital basis set information -----
Your calculation utilizes the basis: def2-SV(P)
   F. Weigend and R. Ahlrichs, Phys. Chem. Chem. Phys. 7, 3297 (2005).

----- AuxJ basis set information -----
Your calculation utilizes the auxiliary basis: def2/J
   F. Weigend, Phys. Chem. Chem. Phys. 8, 1057 (2006).

================================================================================
                                        WARNINGS
                       Please study these warnings very carefully!
================================================================================


WARNING: your system is open-shell and RHF/RKS was chosen
  ===> : WILL SWITCH to UHF/UKS


WARNING: Geometry Optimization
  ===> : Switching off AutoStart
         For restart on a previous wavefunction, please use MOREAD

================================================================================
                                       INPUT FILE
================================================================================
NAME = cs_rporg_100_ox_opt_01.inp
|  1> !PBE0 def2-SV(p) Opt Freq d3 TightSCF SlowConv RIJCOSX defgrid2
|  2>  
|  3> %pal
|  4> nprocs 4
|  5> end
|  6>  
|  7> %scf
|  8> MaxIter 1500
|  9> end
| 10>  
| 11> %maxcore 3000
| 12>  
| 13> 
| 14>  
| 15> * xyz 1 2
| 16> C     0.8810293   -1.4186872    0.0000041 
| 17> C     2.1136641   -0.7223261   -0.0000062 
| 18> C     2.1751592    0.6673959   -0.0000102 
| 19> C     1.0238385    1.4386152   -0.0000040 
| 20> C    -0.2245209    0.7700422    0.0000063 
| 21> C    -0.2573440   -0.6537205    0.0000103 
| 22> O    -1.5602932   -1.0698938    0.0000199 
| 23> C    -2.3160862   -0.0042557    0.0000220 
| 24> C    -1.5652741    1.1834004    0.0000141 
| 25> H    -1.9528592    2.1836398    0.0000140 
| 26> H    -3.3845305   -0.1411806    0.0000310 
| 27> H     1.0631537    2.5169155   -0.0000072 
| 28> H     3.1391888    1.1518688   -0.0000182 
| 29> H     3.0282478   -1.2959000   -0.0000121 
| 30> H     0.8456882   -2.4969533    0.0000068
| 31> *
| 32> 
| 33>                          ****END OF INPUT****
================================================================================

                       *****************************
                       * Geometry Optimization Run *
                       *****************************

Geometry optimization settings:
Update method            Update   .... BFGS
Choice of coordinates    CoordSys .... (2022) Redundant Internals
Initial Hessian          InHess   .... Almloef's Model
Max. no of cycles        MaxIter  .... 50

Convergence Tolerances:
Energy Change            TolE     ....  5.0000e-06 Eh
Max. Gradient            TolMAXG  ....  3.0000e-04 Eh/bohr
RMS Gradient             TolRMSG  ....  1.0000e-04 Eh/bohr
Max. Displacement        TolMAXD  ....  4.0000e-03 bohr
RMS Displacement         TolRMSD  ....  2.0000e-03 bohr
Strict Convergence                .... False

------------------------------------------------------------------------------
                        ORCA OPTIMIZATION COORDINATE SETUP
------------------------------------------------------------------------------

The optimization will be done in redundant internal coordinates (2022)
Making redundant internal coordinates   ...  (2022 redundants) done
Evaluating the initial hessian          ...  (Almloef) done
Evaluating the coordinates              ...  done
Calculating the B-matrix                .... done
Calculating the G-matrix                .... done
Diagonalizing the G-matrix              .... done
The first mode is                       ....   38
The number of degrees of freedom        ....   39

    -----------------------------------------------------------------
                    Redundant Internal Coordinates


    -----------------------------------------------------------------
         Definition                    Initial Value    Approx d2E/dq
    -----------------------------------------------------------------
      1. B(C   1,C   0)                  1.4157         0.568433   
      2. B(C   2,C   1)                  1.3911         0.622318   
      3. B(C   3,C   2)                  1.3858         0.634615   
      4. B(C   4,C   3)                  1.4161         0.567634   
      5. B(C   5,C   4)                  1.4241         0.551149   
      6. B(C   5,C   0)                  1.3715         0.668685   
      7. B(O   6,C   5)                  1.3678         0.607147   
      8. B(C   7,O   6)                  1.3064         0.760636   
      9. B(C   8,C   7)                  1.4051         0.591128   
     10. B(C   8,C   4)                  1.4030         0.595601   
     11. B(H   9,C   8)                  1.0727         0.383718   
     12. B(H  10,C   7)                  1.0772         0.377462   
     13. B(H  11,C   3)                  1.0790         0.374927   
     14. B(H  12,C   2)                  1.0789         0.375061   
     15. B(H  13,C   1)                  1.0796         0.374179   
     16. B(H  14,C   0)                  1.0788         0.375163   
     17. A(C   1,C   0,H  14)          121.3410         0.350184   
     18. A(C   5,C   0,H  14)          122.0232         0.359965   
     19. A(C   1,C   0,C   5)          116.6359         0.433189   
     20. A(C   0,C   1,H  13)          118.4427         0.350029   
     21. A(C   0,C   1,C   2)          121.9974         0.427636   
     22. A(C   2,C   1,H  13)          119.5599         0.355435   
     23. A(C   3,C   2,H  12)          119.5018         0.356760   
     24. A(C   1,C   2,H  12)          119.2155         0.355577   
     25. A(C   1,C   2,C   3)          121.2827         0.436184   
     26. A(C   2,C   3,C   4)          118.0118         0.429031   
     27. A(C   4,C   3,H  11)          120.2599         0.350064   
     28. A(C   2,C   3,H  11)          121.7283         0.356738   
     29. A(C   5,C   4,C   8)          105.8140         0.421954   
     30. A(C   3,C   4,C   8)          134.6935         0.424183   
     31. A(C   3,C   4,C   5)          119.4924         0.418350   
     32. A(C   0,C   5,O   6)          128.3857         0.435486   
     33. A(C   0,C   5,C   4)          122.5798         0.430792   
     34. A(C   4,C   5,O   6)          109.0346         0.420653   
     35. A(C   5,O   6,C   7)          107.6319         0.442803   
     36. A(O   6,C   7,C   8)          112.3540         0.443586   
     37. A(C   8,C   7,H  10)          129.6031         0.352873   
     38. A(O   6,C   7,H  10)          118.0429         0.366070   
     39. A(C   7,C   8,H   9)          126.5188         0.353857   
     40. A(C   4,C   8,H   9)          128.3157         0.354309   
     41. A(C   4,C   8,C   7)          105.1656         0.427274   
     42. D(H  13,C   1,C   0,H  14)      0.0000         0.022160   
     43. D(C   2,C   1,C   0,C   5)     -0.0000         0.022160   
     44. D(C   2,C   1,C   0,H  14)    180.0000         0.022160   
     45. D(H  13,C   1,C   0,C   5)   -180.0000         0.022160   
     46. D(C   3,C   2,C   1,H  13)    179.9999         0.026811   
     47. D(H  12,C   2,C   1,C   0)   -180.0000         0.026811   
     48. D(C   3,C   2,C   1,C   0)      0.0000         0.026811   
     49. D(H  12,C   2,C   1,H  13)     -0.0001         0.026811   
     50. D(H  11,C   3,C   2,H  12)      0.0000         0.027950   
     51. D(H  11,C   3,C   2,C   1)   -180.0000         0.027950   
     52. D(C   4,C   3,C   2,H  12)    180.0000         0.027950   
     53. D(C   4,C   3,C   2,C   1)     -0.0000         0.027950   
     54. D(C   8,C   4,C   3,C   2)   -180.0000         0.022095   
     55. D(C   5,C   4,C   3,H  11)    180.0000         0.022095   
     56. D(C   5,C   4,C   3,C   2)      0.0000         0.022095   
     57. D(C   8,C   4,C   3,H  11)      0.0000         0.022095   
     58. D(O   6,C   5,C   4,C   8)      0.0000         0.020783   
     59. D(C   0,C   5,C   4,C   8)    180.0000         0.020783   
     60. D(C   0,C   5,C   4,C   3)     -0.0000         0.020783   
     61. D(O   6,C   5,C   0,H  14)     -0.0000         0.031262   
     62. D(O   6,C   5,C   0,C   1)    180.0000         0.031262   
     63. D(O   6,C   5,C   4,C   3)   -180.0000         0.020783   
     64. D(C   4,C   5,C   0,H  14)   -180.0000         0.031262   
     65. D(C   4,C   5,C   0,C   1)      0.0000         0.031262   
     66. D(C   7,O   6,C   5,C   4)     -0.0000         0.026966   
     67. D(C   7,O   6,C   5,C   0)   -180.0000         0.026966   
     68. D(H  10,C   7,O   6,C   5)   -179.9999         0.044077   
     69. D(C   8,C   7,O   6,C   5)     -0.0000         0.044077   
     70. D(H   9,C   8,C   4,C   3)     -0.0000         0.024436   
     71. D(C   7,C   8,C   4,C   5)     -0.0000         0.024436   
     72. D(C   7,C   8,C   4,C   3)    180.0000         0.024436   
     73. D(H   9,C   8,C   7,H  10)     -0.0001         0.024052   
     74. D(H   9,C   8,C   7,O   6)    180.0000         0.024052   
     75. D(C   4,C   8,C   7,H  10)    179.9999         0.024052   
     76. D(C   4,C   8,C   7,O   6)      0.0000         0.024052   
     77. D(H   9,C   8,C   4,C   5)   -180.0000         0.024436   
    -----------------------------------------------------------------

Number of atoms                         .... 15
Number of degrees of freedom            .... 77


         *************************************************************
         *                GEOMETRY OPTIMIZATION CYCLE   1            *
         *************************************************************
---------------------------------
CARTESIAN COORDINATES (ANGSTROEM)
---------------------------------
  C      0.881029   -1.418687    0.000004
  C      2.113664   -0.722326   -0.000006
  C      2.175159    0.667396   -0.000010
  C      1.023839    1.438615   -0.000004
  C     -0.224521    0.770042    0.000006
  C     -0.257344   -0.653721    0.000010
  O     -1.560293   -1.069894    0.000020
  C     -2.316086   -0.004256    0.000022
  C     -1.565274    1.183400    0.000014
  H     -1.952859    2.183640    0.000014
  H     -3.384530   -0.141181    0.000031
  H      1.063154    2.516916   -0.000007
  H      3.139189    1.151869   -0.000018
  H      3.028248   -1.295900   -0.000012
  H      0.845688   -2.496953    0.000007

----------------------------
CARTESIAN COORDINATES (A.U.)
----------------------------
  NO LB      ZA    FRAG     MASS         X           Y           Z
   0 C     6.0000    0    12.011    1.664904   -2.680930    0.000008
   1 C     6.0000    0    12.011    3.994246   -1.364999   -0.000012
   2 C     6.0000    0    12.011    4.110455    1.261195   -0.000019
   3 C     6.0000    0    12.011    1.934774    2.718589   -0.000008
   4 C     6.0000    0    12.011   -0.424283    1.455169    0.000012
   5 C     6.0000    0    12.011   -0.486310   -1.235353    0.000019
   6 O     8.0000    0    15.999   -2.948527   -2.021806    0.000038
   7 C     6.0000    0    12.011   -4.376769   -0.008042    0.000042
   8 C     6.0000    0    12.011   -2.957939    2.236303    0.000027
   9 H     1.0000    0     1.008   -3.690369    4.126481    0.000026
  10 H     1.0000    0     1.008   -6.395836   -0.266793    0.000059
  11 H     1.0000    0     1.008    2.009069    4.756281   -0.000014
  12 H     1.0000    0     1.008    5.932207    2.176717   -0.000034
  13 H     1.0000    0     1.008    5.722559   -2.448896   -0.000023
  14 H     1.0000    0     1.008    1.598119   -4.718558    0.000013

--------------------------------
INTERNAL COORDINATES (ANGSTROEM)
--------------------------------
 C      0   0   0     0.000000000000     0.00000000     0.00000000
 C      1   0   0     1.415735615103     0.00000000     0.00000000
 C      2   1   0     1.391081911544   121.99739668     0.00000000
 C      3   2   1     1.385755592801   121.28271670     0.00000000
 C      4   3   2     1.416118302969   118.01182247     0.00000000
 C      1   2   3     1.371520259530   116.63588285     0.00000000
 O      6   1   2     1.367799997626   128.38566427   179.99997140
 C      7   6   1     1.306448475457   107.63185087   180.00004305
 C      5   4   3     1.403026779815   134.69353445   180.00003289
 H      9   5   4     1.072707353874   128.31565371     0.00000000
 H      8   7   6     1.077182273584   118.04293428   180.00010064
 H      4   3   2     1.079016784828   121.72829916   180.00000966
 H      3   2   1     1.078919394846   119.21548833   180.00000610
 H      2   1   3     1.079560263766   118.44273067   180.00006414
 H      1   2   3     1.078845112037   121.34096183   179.99998027

---------------------------
INTERNAL COORDINATES (A.U.)
---------------------------
 C      0   0   0     0.000000000000     0.00000000     0.00000000
 C      1   0   0     2.675352590583     0.00000000     0.00000000
 C      2   1   0     2.628763842669   121.99739668     0.00000000
 C      3   2   1     2.618698558944   121.28271670     0.00000000
 C      4   3   2     2.676075765844   118.01182247     0.00000000
 C      1   2   3     2.591797677636   116.63588285     0.00000000
 O      6   1   2     2.584767401491   128.38566427   179.99997140
 C      7   6   1     2.468829826693   107.63185087   180.00004305
 C      5   4   3     2.651336372408   134.69353445   180.00003289
 H      9   5   4     2.027123120664   128.31565371     0.00000000
 H      8   7   6     2.035579493388   118.04293428   180.00010064
 H      4   3   2     2.039046217230   121.72829916   180.00000966
 H      3   2   1     2.038862176835   119.21548833   180.00000610
 H      2   1   3     2.040073243581   118.44273067   180.00006414
 H      1   2   3     2.038721802669   121.34096183   179.99998027

---------------------
BASIS SET INFORMATION
---------------------
There are 3 groups of distinct atoms

 Group   1 Type C   : 7s4p1d contracted to 3s2p1d pattern {511/31/1}
 Group   2 Type O   : 7s4p1d contracted to 3s2p1d pattern {511/31/1}
 Group   3 Type H   : 4s contracted to 2s pattern {31}

Atom   0C    basis set group =>   1
Atom   1C    basis set group =>   1
Atom   2C    basis set group =>   1
Atom   3C    basis set group =>   1
Atom   4C    basis set group =>   1
Atom   5C    basis set group =>   1
Atom   6O    basis set group =>   2
Atom   7C    basis set group =>   1
Atom   8C    basis set group =>   1
Atom   9H    basis set group =>   3
Atom  10H    basis set group =>   3
Atom  11H    basis set group =>   3
Atom  12H    basis set group =>   3
Atom  13H    basis set group =>   3
Atom  14H    basis set group =>   3
---------------------------------
AUXILIARY/J BASIS SET INFORMATION
---------------------------------
There are 3 groups of distinct atoms

 Group   1 Type C   : 12s5p4d2f1g contracted to 6s4p3d1f1g pattern {711111/2111/211/2/1}
 Group   2 Type O   : 12s5p4d2f1g contracted to 6s4p3d1f1g pattern {711111/2111/211/2/1}
 Group   3 Type H   : 5s2p1d contracted to 3s1p1d pattern {311/2/1}

Atom   0C    basis set group =>   1
Atom   1C    basis set group =>   1
Atom   2C    basis set group =>   1
Atom   3C    basis set group =>   1
Atom   4C    basis set group =>   1
Atom   5C    basis set group =>   1
Atom   6O    basis set group =>   2
Atom   7C    basis set group =>   1
Atom   8C    basis set group =>   1
Atom   9H    basis set group =>   3
Atom  10H    basis set group =>   3
Atom  11H    basis set group =>   3
Atom  12H    basis set group =>   3
Atom  13H    basis set group =>   3
Atom  14H    basis set group =>   3


           ************************************************************
           *        Program running with 4 parallel MPI-processes     *
           *              working on a common directory               *
           ************************************************************
------------------------------------------------------------------------------
                             ORCA STARTUP CALCULATIONS
                           -- RI-GTO INTEGRALS CHOSEN --
------------------------------------------------------------------------------
------------------------------------------------------------------------------
                   ___                                                        
                  /   \      - P O W E R E D   B Y -                         
                 /     \                                                     
                 |  |  |   _    _      __       _____    __    __             
                 |  |  |  | |  | |    /  \     |  _  \  |  |  /  |          
                  \  \/   | |  | |   /    \    | | | |  |  | /  /          
                 / \  \   | |__| |  /  /\  \   | |_| |  |  |/  /          
                |  |  |   |  __  | /  /__\  \  |    /   |      \           
                |  |  |   | |  | | |   __   |  |    \   |  |\   \          
                \     /   | |  | | |  |  |  |  | |\  \  |  | \   \       
                 \___/    |_|  |_| |__|  |__|  |_| \__\ |__|  \__/        
                                                                              
                      - O R C A' S   B I G   F R I E N D -                    
                                      &                                       
                       - I N T E G R A L  F E E D E R -                       
                                                                              
 v1 FN, 2020, v2 2021, v3 2022-2024                                           
------------------------------------------------------------------------------


----------------------
SHARK INTEGRAL PACKAGE
----------------------

Number of atoms                             ...     15
Number of basis functions                   ...    138
Number of shells                            ...     66
Maximum angular momentum                    ...      2
Integral batch strategy                     ... SHARK/LIBINT Hybrid
RI-J (if used) integral strategy            ... SPLIT-RIJ (Revised 2003 algorithm where possible)
Printlevel                                  ...      1
Contraction scheme used                     ... SEGMENTED contraction
Prescreening option                         ... SCHWARTZ
   Thresh                                   ... 2.500e-11
   Tcut                                     ... 2.500e-12
   Tpresel                                  ... 2.500e-12 
Coulomb Range Separation                    ... NOT USED
Exchange Range Separation                   ... NOT USED
Multipole approximations                    ... NOT USED
Finite Nucleus Model                        ... NOT USED
CABS basis                                  ... NOT available
Auxiliary Coulomb fitting basis             ... AVAILABLE
   # of basis functions in Aux-J            ...    507
   # of shells in Aux-J                     ...    165
   Maximum angular momentum in Aux-J        ...      4
Auxiliary J/K fitting basis                 ... NOT available
Auxiliary Correlation fitting basis         ... NOT available
Auxiliary 'external' fitting basis          ... NOT available

Checking pre-screening integrals            ... done (  0.1 sec) Dimension = 66
Check shell pair data                       ... done (  0.1 sec)
Shell pair information
Shell pair cut-off parameter TPreSel        ...   2.5e-12
Total number of shell pairs                 ...      2211
Shell pairs after pre-screening             ...      2125
Total number of primitive shell pairs       ...      8913
Primitive shell pairs kept                  ...      6222
          la=0 lb=0:    728 shell pairs
          la=1 lb=0:    691 shell pairs
          la=1 lb=1:    171 shell pairs
          la=2 lb=0:    328 shell pairs
          la=2 lb=1:    162 shell pairs
          la=2 lb=2:     45 shell pairs

Calculating one electron integrals          ... done (  0.0 sec)
Calculating RI/J V-Matrix + Cholesky decomp.... done (  0.1 sec)
Calculating Nuclear repulsion               ... done (  0.0 sec) ENN=    402.742652840049 Eh

Diagonalization of the overlap matrix:
Smallest eigenvalue                        ... 2.743e-04
Time for diagonalization                   ...    0.002 sec
Threshold for overlap eigenvalues          ... 1.000e-07
Number of eigenvalues below threshold      ... 0
Time for construction of square roots      ...    0.027 sec
Total time needed                          ...    0.093 sec

-------------------
DFT GRID GENERATION
-------------------

General Integration Accuracy     IntAcc      ... 4.388
Radial Grid Type                 RadialGrid  ... OptM3 with GC (2021)
Angular Grid (max. ang.)         AngularGrid ... 4 (Lebedev-302)
Angular grid pruning method      GridPruning ... 4 (adaptive)
Weight generation scheme         WeightScheme... mBecke (2022)
Basis function cutoff            BFCut       ... 1.0000e-11
Integration weight cutoff        WCut        ... 1.0000e-14
Partially contracted basis set               ... off
Rotationally invariant grid construction     ... off
Angular grids for H and He will be reduced by one unit

Total number of grid points                  ...    73398
Total number of batches                      ...     1154
Average number of points per batch           ...       63
Average number of grid points per atom       ...     4893

--------------------
COSX GRID GENERATION
--------------------

GRIDX 1
-------
General Integration Accuracy     IntAcc      ... 3.816
Radial Grid Type                 RadialGrid  ... OptM3 with GC (2021)
Angular Grid (max. ang.)         AngularGrid ... 1 (Lebedev-50)
Angular grid pruning method      GridPruning ... 4 (adaptive)
Weight generation scheme         WeightScheme... mBecke (2022)
Basis function cutoff            BFCut       ... 1.0000e-11
Integration weight cutoff        WCut        ... 1.0000e-14
Partially contracted basis set               ... on
Rotationally invariant grid construction     ... off
Angular grids for H and He will be reduced by one unit

Total number of grid points                  ...     9379
Total number of batches                      ...       79
Average number of points per batch           ...      118
Average number of grid points per atom       ...      625
UseSFitting                                  ... on

GRIDX 2
-------
General Integration Accuracy     IntAcc      ... 4.020
Radial Grid Type                 RadialGrid  ... OptM3 with GC (2021)
Angular Grid (max. ang.)         AngularGrid ... 2 (Lebedev-110)
Angular grid pruning method      GridPruning ... 4 (adaptive)
Weight generation scheme         WeightScheme... mBecke (2022)
Basis function cutoff            BFCut       ... 1.0000e-11
Integration weight cutoff        WCut        ... 1.0000e-14
Partially contracted basis set               ... on
Rotationally invariant grid construction     ... off
Angular grids for H and He will be reduced by one unit

Total number of grid points                  ...    20752
Total number of batches                      ...      171
Average number of points per batch           ...      121
Average number of grid points per atom       ...     1383
UseSFitting                                  ... on

GRIDX 3
-------
General Integration Accuracy     IntAcc      ... 4.338
Radial Grid Type                 RadialGrid  ... OptM3 with GC (2021)
Angular Grid (max. ang.)         AngularGrid ... 3 (Lebedev-194)
Angular grid pruning method      GridPruning ... 4 (adaptive)
Weight generation scheme         WeightScheme... mBecke (2022)
Basis function cutoff            BFCut       ... 1.0000e-11
Integration weight cutoff        WCut        ... 1.0000e-14
Partially contracted basis set               ... on
Rotationally invariant grid construction     ... off
Angular grids for H and He will be reduced by one unit

Total number of grid points                  ...    45694
Total number of batches                      ...      365
Average number of points per batch           ...      125
Average number of grid points per atom       ...     3046
UseSFitting                                  ... on
Initializing property integral containers    ... done (  0.2 sec)

SHARK setup successfully completed in   2.4 seconds

Maximum memory used throughout the entire STARTUP-calculation: 20.6 MB


           ************************************************************
           *        Program running with 4 parallel MPI-processes     *
           *              working on a common directory               *
           ************************************************************
-------------------------------------------------------------------------------
                                 ORCA GUESS
                   Start orbitals & Density for SCF / CASSCF
-------------------------------------------------------------------------------

------------
SCF SETTINGS
------------
Hamiltonian:
 Density Functional     Method          .... DFT(GTOs)
 Exchange Functional    Exchange        .... PBE
   PBE kappa parameter   XKappa         ....  0.804000
   PBE mue parameter    XMuePBE         ....  0.219520
 Correlation Functional Correlation     .... PBE
   PBE beta parameter  CBetaPBE         ....  0.066725
 LDA part of GGA corr.  LDAOpt          .... PW91-LDA
 Gradients option       PostSCFGGA      .... off
 Hybrid DFT is turned on
   Fraction HF Exchange ScalHFX         ....  0.250000
   Scaling of DF-GGA-X  ScalDFX         ....  0.750000
   Scaling of DF-GGA-C  ScalDFC         ....  1.000000
   Scaling of DF-LDA-C  ScalLDAC        ....  1.000000
   Perturbative correction              ....  0.000000
   NL short-range parameter             ....  6.900000
 RI-approximation to the Coulomb term is turned on
   Number of AuxJ basis functions       .... 507
   RIJ-COSX (HFX calculated with COS-X)).... on


General Settings:
 Integral files         IntName         .... cs_rporg_100_ox_opt_01
 Hartree-Fock type      HFTyp           .... UHF
 Total Charge           Charge          ....    1
 Multiplicity           Mult            ....    2
 Number of Electrons    NEL             ....   61
 Basis Dimension        Dim             ....  138
 Nuclear Repulsion      ENuc            ....    402.7426528400 Eh

Convergence Acceleration:
 AO-DIIS                CNVDIIS         .... on
   Start iteration      DIISMaxIt       ....     0
   Startup error        DIISStart       ....  0.200000
   # of expansion vecs  DIISMaxEq       ....     5
   Bias factor          DIISBfac        ....   1.050
   Max. coefficient     DIISMaxC        ....  10.000
 MO-DIIS                CNVKDIIS        .... off
 Trust-Rad. Augm. Hess. CNVTRAH         .... auto
   Auto Start mean grad. ratio tolernc. ....  1.125000
   Auto Start start iteration           ....    50
   Auto Start num. interpolation iter.  ....    10
   Max. Number of Micro iterations      ....    24
   Max. Number of Macro iterations      .... Maxiter - #DIIS iter
   Number of Davidson start vectors     ....     2
   Converg. threshold    (grad. norm)   ....   1.000e-05
   Grad. Scal. Fac. for Micro threshold ....   0.100
   Minimum threshold for Micro iter.    ....   1.000e-02
   NR start threshold (gradient norm)   ....   1.000e-04
   Initial trust radius                 ....   0.400
   Minimum AH scaling param. (alpha)    ....   1.000
   Maximum AH scaling param. (alpha)    .... 1000.000
   Quad. conv. algorithm                .... NR
   White noise on init. David. guess    .... on
   Maximum white noise                  ....   0.010
   Pseudo random numbers                .... off
   Inactive MOs                         .... canonical
   Orbital update algorithm             .... Taylor
   Preconditioner                       .... Diag
   Full preconditioner red. dimension   ....   250
 SOSCF                  CNVSOSCF        .... on
   Start iteration      SOSCFMaxIt      ....   150
   Startup grad/error   SOSCFStart      ....  0.001000
   Hessian update       SOSCFHessUp     .... L-BFGS
 Level Shifting         CNVShift        .... on
   Level shift para.    LevelShift      ....    0.2500
   Turn off err/grad.   ShiftErr        ....    0.0000
 Zerner damping         CNVZerner       .... off
 Static damping         CNVDamp         .... on
   Fraction old density DampFac         ....    0.8500
   Max. Damping (<1)    DampMax         ....    0.9800
   Min. Damping (>=0)   DampMin         ....    0.0000
   Turn off err/grad.   DampErr         ....    0.0300

SCF Procedure:
 Maximum # iterations   MaxIter         ....  1500
 SCF integral mode      SCFMode         .... Direct
   Integral package                     .... SHARK and LIBINT hybrid scheme
 Reset frequency        DirectResetFreq ....    20
 Integral Threshold     Thresh          ....  2.500e-11 Eh
 Primitive CutOff       TCut            ....  2.500e-12 Eh

Convergence Tolerance:
 Convergence Check Mode ConvCheckMode   .... Total+1el-Energy
 Convergence forced     ConvForced      .... 0
 Energy Change          TolE            ....  1.000e-08 Eh
 1-El. energy change                    ....  1.000e-05 Eh
 Orbital Gradient       TolG            ....  1.000e-05
 Orbital Rotation angle TolX            ....  1.000e-05
 DIIS Error             TolErr          ....  5.000e-07

------------------------------
INITIAL GUESS: MODEL POTENTIAL
------------------------------
Loading Hartree-Fock densities                     ... done
Calculating cut-offs                               ... done
Initializing the effective Hamiltonian             ... done
Setting up the integral package (SHARK)            ... done
Starting the Coulomb interaction                   ... done (   1.2 sec)
Making the grid                                    ... done (   0.3 sec)
Mapping shells                                     ... done
Starting the XC term evaluation                    ... done (   0.1 sec)
  promolecular density results
     # of electrons  =     61.993502361
     EX              =    -50.874103839
     EC              =     -2.073283831
     EX+EC           =    -52.947387671
Transforming the Hamiltonian                       ... done (   0.0 sec)
Diagonalizing the Hamiltonian                      ... done (   0.0 sec)
Back transforming the eigenvectors                 ... done (   0.1 sec)
Now organizing SCF variables                       ... done
                      ------------------
                      INITIAL GUESS DONE (   2.2 sec)
                      ------------------
             **** ENERGY FILE WAS UPDATED (cs_rporg_100_ox_opt_01.en.tmp) ****
Finished Guess after   3.3 sec
Maximum memory used throughout the entire GUESS-calculation: 11.3 MB


           ************************************************************
           *        Program running with 4 parallel MPI-processes     *
           *              working on a common directory               *
           ************************************************************

-------------------------------------------------------------------------------------------
                                      ORCA LEAN-SCF
                              memory conserving SCF solver
-------------------------------------------------------------------------------------------

----------------------------------------D-I-I-S--------------------------------------------
Iteration    Energy (Eh)           Delta-E    RMSDP     MaxDP     DIISErr   Damp  Time(sec)
-------------------------------------------------------------------------------------------
               ***  Starting incremental Fock matrix formation  ***
    1    -382.5443773842454789     0.00e+00  8.47e-04  1.22e-02  5.18e-02  0.850   5.5
Warning: op=1 Small HOMO/LUMO gap (   0.049) - skipping pre-diagonalization
         Will do a full diagonalization
    2    -382.5690362869121941    -2.47e-02  8.26e-04  1.25e-02  4.05e-02  0.850   5.6
                               ***Turning on AO-DIIS***
    3    -382.5861194071945306    -1.71e-02  5.55e-04  7.50e-03  2.90e-02  0.850   4.2
    4    -382.5971394316631518    -1.10e-02  2.87e-03  3.53e-02  2.30e-02  0.000   3.8
    5    -382.6416447352582395    -4.45e-02  3.22e-04  5.75e-03  6.09e-03  0.000   4.2
    6    -382.6428836988951048    -1.24e-03  1.24e-04  3.21e-03  3.18e-03  0.000   4.3
    7    -382.6430970017273125    -2.13e-04  8.10e-05  2.26e-03  1.86e-03  0.000   4.0
    8    -382.6431899494340882    -9.29e-05  6.32e-05  2.04e-03  1.48e-03  0.000   3.9
    9    -382.6432384223560916    -4.85e-05  4.41e-05  1.54e-03  1.10e-03  0.000   4.0
                              *** Initializing SOSCF ***
---------------------------------------S-O-S-C-F--------------------------------------
Iteration    Energy (Eh)           Delta-E    RMSDP     MaxDP     MaxGrad    Time(sec)
--------------------------------------------------------------------------------------
   10    -382.6432658248572238    -2.74e-05  3.61e-05  1.42e-03  7.32e-04     3.7
               *** Restarting incremental Fock matrix formation ***
   11    -382.6433217702247589    -5.59e-05  4.10e-05  1.22e-03  5.36e-04     3.1
   12    -382.6433312555947737    -9.49e-06  7.96e-05  2.59e-03  5.01e-04     3.1
   13    -382.6433376672482041    -6.41e-06  2.81e-05  6.57e-04  4.31e-04     2.6
   14    -382.6433403871154155    -2.72e-06  1.34e-05  3.94e-04  1.50e-04     2.6
   15    -382.6433406565602695    -2.69e-07  7.12e-06  1.96e-04  1.18e-04     2.9
   16    -382.6433410188959101    -3.62e-07  4.49e-06  1.08e-04  3.04e-05     3.1
   17    -382.6433410740178829    -5.51e-08  3.96e-06  1.32e-04  2.41e-05     3.0
   18    -382.6433411064897996    -3.25e-08  1.35e-06  4.47e-05  1.76e-05     3.1
   19    -382.6433411154353621    -8.95e-09  7.72e-07  2.77e-05  8.25e-06     3.1
                 **** Energy Check signals convergence ****

               *****************************************************
               *                     SUCCESS                       *
               *           SCF CONVERGED AFTER  19 CYCLES          *
               *****************************************************

Recomputing exchange energy using gridx3       ... done (    1.380 sec)
Old exchange energy                            :    -12.869959298 Eh
New exchange energy                            :    -12.869951202 Eh
Exchange energy change after final integration :      0.000008095 Eh
Total energy after final integration           :   -382.643333020 Eh
             **** ENERGY FILE WAS UPDATED (cs_rporg_100_ox_opt_01.en.tmp) ****

----------------
TOTAL SCF ENERGY
----------------

Total Energy       :       -382.64333302004684 Eh          -10412.25444 eV

Components:
Nuclear Repulsion  :        402.74265284004906 Eh           10959.18474 eV
Electronic Energy  :       -785.38599395548442 Eh          -21371.43940 eV
One Electron Energy:      -1302.79689233137742 Eh          -35450.90573 eV
Two Electron Energy:        517.41089837589300 Eh           14079.46633 eV

Virial components:
Potential Energy   :       -762.13564755880259 Eh          -20738.76531 eV
Kinetic Energy     :        379.49231453875575 Eh           10326.51087 eV
Virial Ratio       :          2.00830324715567

DFT components:
N(Alpha)           :       31.000000881349 electrons
N(Beta)            :       30.000001091197 electrons
N(Total)           :       61.000001972546 electrons
E(X)               :      -38.527934555315 Eh       
E(C)               :       -2.043949274402 Eh       
E(XC)              :      -40.571883829717 Eh       

---------------
SCF CONVERGENCE
---------------

  Last Energy change         ...    8.9456e-09  Tolerance :   1.0000e-08
  Last MAX-Density change    ...    2.7665e-05  Tolerance :   1.0000e-07
  Last RMS-Density change    ...    7.7179e-07  Tolerance :   5.0000e-09
  Last DIIS Error            ...    7.3216e-04  Tolerance :   5.0000e-07
  Last Orbital Gradient      ...    8.2538e-06  Tolerance :   1.0000e-05
  Last Orbital Rotation      ...    3.8308e-05  Tolerance :   1.0000e-05


----------------------
UHF SPIN CONTAMINATION
----------------------

Warning: in a DFT calculation there is little theoretical justification to 
         calculate <S**2> as in Hartree-Fock theory. We will do it anyways
         but you should keep in mind that the values have only limited relevance

Expectation value of <S**2>     :     0.771412
Ideal value S*(S+1) for S=0.5   :     0.750000
Deviation                       :     0.021412

----------------
ORBITAL ENERGIES
----------------
                 SPIN UP ORBITALS
  NO   OCC          E(Eh)            E(eV) 
   0   1.0000     -19.502198      -530.6818 
   1   1.0000     -10.530935      -286.5613 
   2   1.0000     -10.503488      -285.8144 
   3   1.0000     -10.463221      -284.7187 
   4   1.0000     -10.459639      -284.6213 
   5   1.0000     -10.453339      -284.4498 
   6   1.0000     -10.453051      -284.4420 
   7   1.0000     -10.448581      -284.3203 
   8   1.0000     -10.423702      -283.6433 
   9   1.0000      -1.374554       -37.4035 
  10   1.0000      -1.092430       -29.7265 
  11   1.0000      -1.038188       -28.2505 
  12   1.0000      -0.984351       -26.7855 
  13   1.0000      -0.959139       -26.0995 
  14   1.0000      -0.869059       -23.6483 
  15   1.0000      -0.828849       -22.5541 
  16   1.0000      -0.811450       -22.0807 
  17   1.0000      -0.748917       -20.3791 
  18   1.0000      -0.726025       -19.7561 
  19   1.0000      -0.708177       -19.2705 
  20   1.0000      -0.699127       -19.0242 
  21   1.0000      -0.658503       -17.9188 
  22   1.0000      -0.649336       -17.6693 
  23   1.0000      -0.637676       -17.3520 
  24   1.0000      -0.608866       -16.5681 
  25   1.0000      -0.584802       -15.9133 
  26   1.0000      -0.576696       -15.6927 
  27   1.0000      -0.558331       -15.1930 
  28   1.0000      -0.529711       -14.4142 
  29   1.0000      -0.465780       -12.6745 
  30   1.0000      -0.451745       -12.2926 
  31   0.0000      -0.242741        -6.6053 
  32   0.0000      -0.188602        -5.1321 
  33   0.0000      -0.161207        -4.3867 
  34   0.0000      -0.079645        -2.1672 
  35   0.0000      -0.060798        -1.6544 
  36   0.0000      -0.048590        -1.3222 
  37   0.0000      -0.030750        -0.8367 
  38   0.0000      -0.026315        -0.7161 
  39   0.0000      -0.024117        -0.6563 
  40   0.0000      -0.006999        -0.1905 
  41   0.0000       0.017062         0.4643 

                 SPIN DOWN ORBITALS
  NO   OCC          E(Eh)            E(eV) 
   0   1.0000     -19.501157      -530.6535 
   1   1.0000     -10.525679      -286.4183 
   2   1.0000     -10.502425      -285.7855 
   3   1.0000     -10.460401      -284.6420 
   4   1.0000     -10.459390      -284.6145 
   5   1.0000     -10.448732      -284.3245 
   6   1.0000     -10.448607      -284.3210 
   7   1.0000     -10.448207      -284.3102 
   8   1.0000     -10.425843      -283.7016 
   9   1.0000      -1.370496       -37.2931 
  10   1.0000      -1.086836       -29.5743 
  11   1.0000      -1.029282       -28.0082 
  12   1.0000      -0.980809       -26.6892 
  13   1.0000      -0.946123       -25.7453 
  14   1.0000      -0.865048       -23.5391 
  15   1.0000      -0.823102       -22.3977 
  16   1.0000      -0.806631       -21.9495 
  17   1.0000      -0.745724       -20.2922 
  18   1.0000      -0.721613       -19.6361 
  19   1.0000      -0.696992       -18.9661 
  20   1.0000      -0.691591       -18.8192 
  21   1.0000      -0.656721       -17.8703 
  22   1.0000      -0.646183       -17.5835 
  23   1.0000      -0.635501       -17.2929 
  24   1.0000      -0.605996       -16.4900 
  25   1.0000      -0.574981       -15.6460 
  26   1.0000      -0.566158       -15.4059 
  27   1.0000      -0.556926       -15.1547 
  28   1.0000      -0.499535       -13.5930 
  29   1.0000      -0.459399       -12.5009 
  30   0.0000      -0.362657        -9.8684 
  31   0.0000      -0.209251        -5.6940 
  32   0.0000      -0.176667        -4.8073 
  33   0.0000      -0.135893        -3.6978 
  34   0.0000      -0.078090        -2.1249 
  35   0.0000      -0.059261        -1.6126 
  36   0.0000      -0.045088        -1.2269 
  37   0.0000      -0.024083        -0.6553 
  38   0.0000      -0.021560        -0.5867 
  39   0.0000      -0.016299        -0.4435 
  40   0.0000      -0.004939        -0.1344 
*Only the first 10 virtual orbitals were printed.

                    ********************************
                    * MULLIKEN POPULATION ANALYSIS *
                    ********************************

--------------------------------------------
MULLIKEN ATOMIC CHARGES AND SPIN POPULATIONS
--------------------------------------------
   0 C :   -0.113729    0.024407
   1 C :   -0.030122    0.330416
   2 C :   -0.069125   -0.169893
   3 C :   -0.034488    0.299230
   4 C :    0.044471   -0.011423
   5 C :    0.230710    0.046872
   6 O :   -0.158641    0.024535
   7 C :    0.183343    0.307213
   8 C :   -0.096324    0.200829
   9 H :    0.176056   -0.009539
  10 H :    0.204581   -0.016568
  11 H :    0.157349   -0.014225
  12 H :    0.163853    0.005915
  13 H :    0.177574   -0.016379
  14 H :    0.164491   -0.001389
Sum of atomic charges         :    1.0000000
Sum of atomic spin populations:    1.0000000

-----------------------------------------------------
MULLIKEN REDUCED ORBITAL CHARGES AND SPIN POPULATIONS
-----------------------------------------------------
CHARGE
  0 C s       :     3.314890  s :     3.314890
      pz      :     0.910737  p :     2.762736
      px      :     0.976511
      py      :     0.875488
      dz2     :     0.003591  d :     0.036103
      dxz     :     0.006029
      dyz     :     0.003158
      dx2y2   :     0.012595
      dxy     :     0.010730

  1 C s       :     3.209076  s :     3.209076
      pz      :     0.832439  p :     2.783076
      px      :     0.967383
      py      :     0.983254
      dz2     :     0.003510  d :     0.037969
      dxz     :     0.003517
      dyz     :     0.005716
      dx2y2   :     0.010746
      dxy     :     0.014479

  2 C s       :     3.188230  s :     3.188230
      pz      :     0.960117  p :     2.844779
      px      :     0.938568
      py      :     0.946094
      dz2     :     0.003505  d :     0.036116
      dxz     :     0.003261
      dyz     :     0.004171
      dx2y2   :     0.012164
      dxy     :     0.013015

  3 C s       :     3.273934  s :     3.273934
      pz      :     0.854066  p :     2.723154
      px      :     0.964521
      py      :     0.904566
      dz2     :     0.003534  d :     0.037401
      dxz     :     0.006434
      dyz     :     0.002643
      dx2y2   :     0.014405
      dxy     :     0.010385

  4 C s       :     3.017059  s :     3.017059
      pz      :     0.983578  p :     2.893976
      px      :     0.884239
      py      :     1.026159
      dz2     :     0.003431  d :     0.044493
      dxz     :     0.007701
      dyz     :     0.005744
      dx2y2   :     0.017332
      dxy     :     0.010286

  5 C s       :     2.988931  s :     2.988931
      pz      :     1.006806  p :     2.706852
      px      :     0.736660
      py      :     0.963386
      dz2     :     0.005797  d :     0.073507
      dxz     :     0.013525
      dyz     :     0.007174
      dx2y2   :     0.026216
      dxy     :     0.020795

  6 O s       :     3.732910  s :     3.732910
      pz      :     1.627562  p :     4.403072
      px      :     1.246882
      py      :     1.528628
      dz2     :     0.002583  d :     0.022659
      dxz     :     0.003101
      dyz     :     0.003856
      dx2y2   :     0.005966
      dxy     :     0.007153

  7 C s       :     3.219167  s :     3.219167
      pz      :     0.803506  p :     2.522900
      px      :     0.918364
      py      :     0.801030
      dz2     :     0.006180  d :     0.074590
      dxz     :     0.006003
      dyz     :     0.014489
      dx2y2   :     0.023805
      dxy     :     0.024113

  8 C s       :     3.316025  s :     3.316025
      pz      :     0.915542  p :     2.744275
      px      :     0.952282
      py      :     0.876451
      dz2     :     0.003734  d :     0.036024
      dxz     :     0.005024
      dyz     :     0.004100
      dx2y2   :     0.009838
      dxy     :     0.013327

  9 H s       :     0.823944  s :     0.823944

 10 H s       :     0.795419  s :     0.795419

 11 H s       :     0.842651  s :     0.842651

 12 H s       :     0.836147  s :     0.836147

 13 H s       :     0.822426  s :     0.822426

 14 H s       :     0.835509  s :     0.835509


SPIN
  0 C s       :     0.006644  s :     0.006644
      pz      :     0.028589  p :     0.015832
      px      :    -0.010997
      py      :    -0.001760
      dz2     :    -0.000139  d :     0.001931
      dxz     :     0.001956
      dyz     :     0.000041
      dx2y2   :     0.000051
      dxy     :     0.000021

  1 C s       :     0.041606  s :     0.041606
      pz      :     0.269389  p :     0.289985
      px      :     0.007945
      py      :     0.012651
      dz2     :    -0.000945  d :    -0.001176
      dxz     :     0.000228
      dyz     :    -0.000436
      dx2y2   :    -0.000031
      dxy     :     0.000008

  2 C s       :    -0.032323  s :    -0.032323
      pz      :    -0.108869  p :    -0.141053
      px      :    -0.014476
      py      :    -0.017708
      dz2     :     0.000280  d :     0.003482
      dxz     :     0.000732
      dyz     :     0.002410
      dx2y2   :     0.000028
      dxy     :     0.000034

  3 C s       :     0.044102  s :     0.044102
      pz      :     0.240435  p :     0.256160
      px      :     0.007484
      py      :     0.008242
      dz2     :    -0.000841  d :    -0.001032
      dxz     :    -0.000118
      dyz     :    -0.000011
      dx2y2   :    -0.000053
      dxy     :    -0.000009

  4 C s       :    -0.010250  s :    -0.010250
      pz      :     0.025308  p :    -0.004128
      px      :    -0.021244
      py      :    -0.008193
      dz2     :    -0.000158  d :     0.002955
      dxz     :     0.002789
      dyz     :     0.000306
      dx2y2   :     0.000027
      dxy     :    -0.000008

  5 C s       :     0.001965  s :     0.001965
      pz      :     0.051106  p :     0.044967
      px      :    -0.006550
      py      :     0.000411
      dz2     :    -0.000217  d :    -0.000060
      dxz     :     0.000426
      dyz     :    -0.000146
      dx2y2   :    -0.000013
      dxy     :    -0.000109

  6 O s       :    -0.000970  s :    -0.000970
      pz      :     0.033611  p :     0.024716
      px      :    -0.003662
      py      :    -0.005233
      dz2     :    -0.000018  d :     0.000788
      dxz     :     0.000838
      dyz     :    -0.000020
      dx2y2   :    -0.000007
      dxy     :    -0.000005

  7 C s       :     0.022340  s :     0.022340
      pz      :     0.278639  p :     0.283741
      px      :     0.005651
      py      :    -0.000549
      dz2     :    -0.000982  d :     0.001133
      dxz     :    -0.000173
      dyz     :     0.002322
      dx2y2   :     0.000014
      dxy     :    -0.000047

  8 C s       :     0.034112  s :     0.034112
      pz      :     0.168257  p :     0.164945
      px      :    -0.003339
      py      :     0.000027
      dz2     :    -0.000616  d :     0.001773
      dxz     :     0.001345
      dyz     :     0.001047
      dx2y2   :    -0.000090
      dxy     :     0.000087

  9 H s       :    -0.009539  s :    -0.009539

 10 H s       :    -0.016568  s :    -0.016568

 11 H s       :    -0.014225  s :    -0.014225

 12 H s       :     0.005915  s :     0.005915

 13 H s       :    -0.016379  s :    -0.016379

 14 H s       :    -0.001389  s :    -0.001389



                     *******************************
                     * LOEWDIN POPULATION ANALYSIS *
                     *******************************

-------------------------------------------
LOEWDIN ATOMIC CHARGES AND SPIN POPULATIONS
-------------------------------------------
   0 C :   -0.066305    0.031543
   1 C :   -0.003463    0.268795
   2 C :   -0.105067   -0.096858
   3 C :   -0.012498    0.240135
   4 C :   -0.026542    0.034776
   5 C :    0.066698    0.054583
   6 O :    0.067813    0.036881
   7 C :    0.100382    0.284805
   8 C :   -0.064914    0.172772
   9 H :    0.179639   -0.005316
  10 H :    0.176962   -0.008954
  11 H :    0.169753   -0.007247
  12 H :    0.167691    0.002797
  13 H :    0.172000   -0.007983
  14 H :    0.177852   -0.000729

----------------------------------------------------
LOEWDIN REDUCED ORBITAL CHARGES AND SPIN POPULATIONS
----------------------------------------------------
CHARGE
  0 C s       :     2.903539  s :     2.903539
      pz      :     0.912377  p :     3.073982
      px      :     1.063881
      py      :     1.097724
      dz2     :     0.007582  d :     0.088785
      dxz     :     0.012353
      dyz     :     0.004511
      dx2y2   :     0.033137
      dxy     :     0.031202

  1 C s       :     2.909696  s :     2.909696
      pz      :     0.825004  p :     3.002922
      px      :     1.082289
      py      :     1.095629
      dz2     :     0.007107  d :     0.090845
      dxz     :     0.006012
      dyz     :     0.011027
      dx2y2   :     0.029213
      dxy     :     0.037486

  2 C s       :     2.893195  s :     2.893195
      pz      :     0.956444  p :     3.121295
      px      :     1.089310
      py      :     1.075541
      dz2     :     0.007499  d :     0.090577
      dxz     :     0.005272
      dyz     :     0.008475
      dx2y2   :     0.033719
      dxy     :     0.035612

  3 C s       :     2.905743  s :     2.905743
      pz      :     0.853737  p :     3.016151
      px      :     1.063785
      py      :     1.098629
      dz2     :     0.007202  d :     0.090603
      dxz     :     0.013101
      dyz     :     0.003808
      dx2y2   :     0.036815
      dxy     :     0.029677

  4 C s       :     2.843565  s :     2.843565
      pz      :     0.950741  p :     3.068184
      px      :     1.062983
      py      :     1.054460
      dz2     :     0.008306  d :     0.114794
      dxz     :     0.014282
      dyz     :     0.011573
      dx2y2   :     0.050711
      dxy     :     0.029922

  5 C s       :     2.836056  s :     2.836056
      pz      :     0.992108  p :     2.930572
      px      :     0.894730
      py      :     1.043734
      dz2     :     0.012287  d :     0.166674
      dxz     :     0.025289
      dyz     :     0.013742
      dx2y2   :     0.065979
      dxy     :     0.049378

  6 O s       :     3.415941  s :     3.415941
      pz      :     1.594866  p :     4.474806
      px      :     1.297432
      py      :     1.582508
      dz2     :     0.004411  d :     0.041441
      dxz     :     0.006021
      dyz     :     0.004188
      dx2y2   :     0.011864
      dxy     :     0.014957

  7 C s       :     2.926107  s :     2.926107
      pz      :     0.810965  p :     2.815848
      px      :     1.059396
      py      :     0.945487
      dz2     :     0.011999  d :     0.157662
      dxz     :     0.008456
      dyz     :     0.027970
      dx2y2   :     0.052759
      dxy     :     0.056479

  8 C s       :     2.918434  s :     2.918434
      pz      :     0.911807  p :     3.058161
      px      :     1.056190
      py      :     1.090164
      dz2     :     0.007608  d :     0.088318
      dxz     :     0.010080
      dyz     :     0.005792
      dx2y2   :     0.027942
      dxy     :     0.036897

  9 H s       :     0.820361  s :     0.820361

 10 H s       :     0.823038  s :     0.823038

 11 H s       :     0.830247  s :     0.830247

 12 H s       :     0.832309  s :     0.832309

 13 H s       :     0.828000  s :     0.828000

 14 H s       :     0.822148  s :     0.822148


SPIN
  0 C s       :    -0.000218  s :    -0.000218
      pz      :     0.030757  p :     0.026926
      px      :    -0.003356
      py      :    -0.000476
      dz2     :    -0.000107  d :     0.004835
      dxz     :     0.004359
      dyz     :     0.000157
      dx2y2   :     0.000179
      dxy     :     0.000248

  1 C s       :     0.009716  s :     0.009716
      pz      :     0.251335  p :     0.261650
      px      :     0.004526
      py      :     0.005789
      dz2     :    -0.001024  d :    -0.002570
      dxz     :     0.000066
      dyz     :    -0.001023
      dx2y2   :    -0.000349
      dxy     :    -0.000241

  2 C s       :    -0.005571  s :    -0.005571
      pz      :    -0.089239  p :    -0.099673
      px      :    -0.004268
      py      :    -0.006165
      dz2     :     0.000392  d :     0.008386
      dxz     :     0.001774
      dyz     :     0.005399
      dx2y2   :     0.000440
      dxy     :     0.000380

  3 C s       :     0.008483  s :     0.008483
      pz      :     0.225101  p :     0.233989
      px      :     0.003914
      py      :     0.004974
      dz2     :    -0.000923  d :    -0.002338
      dxz     :    -0.000503
      dyz     :    -0.000297
      dx2y2   :    -0.000330
      dxy     :    -0.000284

  4 C s       :    -0.001202  s :    -0.001202
      pz      :     0.033914  p :     0.028830
      px      :    -0.002707
      py      :    -0.002377
      dz2     :    -0.000096  d :     0.007149
      dxz     :     0.006156
      dyz     :     0.000633
      dx2y2   :     0.000295
      dxy     :     0.000161

  5 C s       :     0.001532  s :     0.001532
      pz      :     0.052404  p :     0.052789
      px      :     0.000150
      py      :     0.000235
      dz2     :    -0.000204  d :     0.000263
      dxz     :     0.001077
      dyz     :    -0.000259
      dx2y2   :    -0.000150
      dxy     :    -0.000201

  6 O s       :     0.000711  s :     0.000711
      pz      :     0.038263  p :     0.033938
      px      :    -0.001770
      py      :    -0.002555
      dz2     :     0.000028  d :     0.002233
      dxz     :     0.001568
      dyz     :     0.000499
      dx2y2   :     0.000035
      dxy     :     0.000103

  7 C s       :     0.009740  s :     0.009740
      pz      :     0.266004  p :     0.271846
      px      :     0.004483
      py      :     0.001359
      dz2     :    -0.000920  d :     0.003219
      dxz     :    -0.000308
      dyz     :     0.004728
      dx2y2   :    -0.000100
      dxy     :    -0.000182

  8 C s       :     0.005004  s :     0.005004
      pz      :     0.162878  p :     0.163818
      px      :     0.000696
      py      :     0.000245
      dz2     :    -0.000631  d :     0.003950
      dxz     :     0.003088
      dyz     :     0.001468
      dx2y2   :    -0.000177
      dxy     :     0.000201

  9 H s       :    -0.005316  s :    -0.005316

 10 H s       :    -0.008954  s :    -0.008954

 11 H s       :    -0.007247  s :    -0.007247

 12 H s       :     0.002797  s :     0.002797

 13 H s       :    -0.007983  s :    -0.007983

 14 H s       :    -0.000729  s :    -0.000729



                      *****************************
                      * MAYER POPULATION ANALYSIS *
                      *****************************

  NA   - Mulliken gross atomic population
  ZA   - Total nuclear charge
  QA   - Mulliken gross atomic charge
  VA   - Mayer's total valence
  BVA  - Mayer's bonded valence
  FA   - Mayer's free valence

  ATOM       NA         ZA         QA         VA         BVA        FA
  0 C      6.1137     6.0000    -0.1137     3.8148     3.8132     0.0016
  1 C      6.0301     6.0000    -0.0301     3.7925     3.7183     0.0742
  2 C      6.0691     6.0000    -0.0691     3.8232     3.8102     0.0129
  3 C      6.0345     6.0000    -0.0345     3.8014     3.7419     0.0594
  4 C      5.9555     6.0000     0.0445     3.8098     3.8074     0.0024
  5 C      5.7693     6.0000     0.2307     3.8503     3.8469     0.0033
  6 O      8.1586     8.0000    -0.1586     2.4221     2.4206     0.0015
  7 C      5.8167     6.0000     0.1833     3.7293     3.6492     0.0800
  8 C      6.0963     6.0000    -0.0963     3.7638     3.7328     0.0311
  9 H      0.8239     1.0000     0.1761     0.9526     0.9525     0.0001
 10 H      0.7954     1.0000     0.2046     0.9464     0.9461     0.0003
 11 H      0.8427     1.0000     0.1573     0.9504     0.9502     0.0002
 12 H      0.8361     1.0000     0.1639     0.9441     0.9440     0.0000
 13 H      0.8224     1.0000     0.1776     0.9404     0.9401     0.0003
 14 H      0.8355     1.0000     0.1645     0.9502     0.9502     0.0000

  Mayer bond orders larger than 0.100000
B(  0-C ,  1-C ) :   1.2260 B(  0-C ,  5-C ) :   1.4861 B(  0-C , 14-H ) :   0.9668 
B(  1-C ,  2-C ) :   1.3501 B(  1-C , 13-H ) :   0.9492 B(  2-C ,  3-C ) :   1.4330 
B(  2-C , 12-H ) :   0.9546 B(  3-C ,  4-C ) :   1.1808 B(  3-C , 11-H ) :   0.9654 
B(  4-C ,  5-C ) :   1.1830 B(  4-C ,  8-C ) :   1.3554 B(  5-C ,  6-O ) :   1.0271 
B(  6-O ,  7-C ) :   1.2689 B(  7-C ,  8-C ) :   1.2739 B(  7-C , 10-H ) :   0.9486 
B(  8-C ,  9-H ) :   0.9665 

-------
TIMINGS
-------

Total SCF time: 0 days 0 hours 1 min 14 sec 

Total time                  ....      74.381 sec
Sum of individual times     ....      72.117 sec  ( 97.0%)

SCF preparation             ....       1.246 sec  (  1.7%)
Fock matrix formation       ....      46.941 sec  ( 63.1%)
  Startup                   ....       7.129 sec  ( 15.2% of F)
  Split-RI-J                ....       5.804 sec  ( 12.4% of F)
  Chain of spheres X        ....      16.625 sec  ( 35.4% of F)
  XC integration            ....       8.123 sec  ( 17.3% of F)
    XC Preparation          ....       0.000 sec  (  0.0% of XC)
    Basis function eval.    ....       1.042 sec  ( 12.8% of XC)
    Density eval.           ....       0.838 sec  ( 10.3% of XC)
    XC-Functional eval.     ....       0.346 sec  (  4.3% of XC)
    XC-Potential eval.      ....       1.334 sec  ( 16.4% of XC)
Diagonalization             ....       0.000 sec  (  0.0%)
Density matrix formation    ....       7.706 sec  ( 10.4%)
Total Energy calculation    ....       3.217 sec  (  4.3%)
Population analysis         ....       0.865 sec  (  1.2%)
Orbital Transformation      ....       0.856 sec  (  1.2%)
Orbital Orthonormalization  ....       0.000 sec  (  0.0%)
DIIS solution               ....       7.830 sec  ( 10.5%)
SOSCF solution              ....       3.455 sec  (  4.6%)
Finished LeanSCF after  74.9 sec

Maximum memory used throughout the entire LEANSCF-calculation: 16.0 MB


           ************************************************************
           *        Program running with 4 parallel MPI-processes     *
           *              working on a common directory               *
           ************************************************************

------------------------------------------------------------------------------
                         ORCA PROPERTY INTEGRAL CALCULATIONS
------------------------------------------------------------------------------

GBWName                                   ... cs_rporg_100_ox_opt_01.gbw
Number of atoms                           ...     15
Number of basis functions                 ...    138
Max core memory                           ...   3000 MB

Dipole integrals                          ... YES
Quadrupole integrals                      ...  NO
Linear momentum integrals                 ...  NO
Angular momentum integrals                ...  NO
Higher moments length integrals           ...  NO
Higher moments velocity integrals         ...  NO
Kinetic energy integrals                  ...  NO
GIAO right hand sides                     ...  NO
GIAO dipole derivative integrals          ...  NO
SOC integrals                             ...  NO
EPR diamagnetic integrals (GIAO)          ...  NO
EPR gauge integrals                       ...  NO
Field gradient integrals                  ...  NO (   0 nuclei)
Spin-dipole/Fermi contact integrals       ...  NO (   0 nuclei)
Contact density integrals                 ...  NO (   0 nuclei)
Nucleus-orbit integrals                   ...  NO (   0 nuclei)
Geometric perturbations                   ...  NO (  15 nuclei)

Choice of electric origin   ... Center of mass
Position of electric origin ... ( -0.0035, -0.0007,  0.0000) 
Choice of magnetic origin   ... GIAO
Position of magnetic origin ... (  0.0000,  0.0000,  0.0000) 

Calculating integrals                     ... Electric Dipole (Length)     done (  0.1 sec)

Property integrals calculated in   0.1 sec

Maximum memory used throughout the entire PROPINT-calculation: 9.0 MB


-------------------------------------------------------------------------------
                          DFT DISPERSION CORRECTION                            
                                                                               
                              DFTD3 V3.1  Rev 1                                
                          USING Becke-Johnson damping                          
-------------------------------------------------------------------------------
The PBE0 functional is recognized
Active option DFTDOPT                   ...         4   

molecular C6(AA) [au] = 2821.558586 


            DFT-D V3
 parameters
 s6 scaling factor         :     1.0000 
 a1 scaling factor         :     0.4145 
 s8 scaling factor         :     1.2177 
 a2 scaling factor         :     4.8593 
 ad hoc parameters k1-k3   :    16.0000     1.3333    -4.0000 

 Edisp/kcal,au: -8.612648523247  -0.013725127604 
 E6   /kcal   :  -5.306651633 
 E8   /kcal   :  -3.305996890 
 % E8         :  38.385368692 

-------------------------   ----------------
Dispersion correction           -0.013725128
-------------------------   ----------------


-------------------------   --------------------
FINAL SINGLE POINT ENERGY      -382.657058147651
-------------------------   --------------------



           ************************************************************
           *        Program running with 4 parallel MPI-processes     *
           *              working on a common directory               *
           ************************************************************
------------------------------------------------------------------------------
                         ORCA SCF GRADIENT CALCULATION
------------------------------------------------------------------------------

Nuc. rep. gradient        (SHARK) ... done (  0.0 sec)
HCore & Overlap gradient  (SHARK) ... done (  0.1 sec)
Split-RIJ-J gradient      (SHARK) ... done (  0.6 sec)
COSX-gradient                     ... done (  6.1 sec)
XC gradient                       ... done (  1.3 sec)
Dispersion correction             ... done (  0.1 sec)

-------------------
DISPERSION GRADIENT
-------------------

   1   C   :    0.000133844   -0.000265409   -0.000000000
   2   C   :    0.000251104   -0.000119411   -0.000000001
   3   C   :    0.000269983    0.000084263   -0.000000002
   4   C   :    0.000168155    0.000225241   -0.000000002
   5   C   :   -0.000083900    0.000107365    0.000000000
   6   C   :   -0.000073894   -0.000124310    0.000000001
   7   O   :   -0.000195938   -0.000115907    0.000000002
   8   C   :   -0.000305778   -0.000006944    0.000000002
   9   C   :   -0.000284294    0.000135391    0.000000002
  10   H   :   -0.000110269    0.000118955    0.000000000
  11   H   :   -0.000135778   -0.000020060    0.000000001
  12   H   :    0.000063962    0.000170800   -0.000000001
  13   H   :    0.000139161    0.000066841   -0.000000001
  14   H   :    0.000130180   -0.000079693   -0.000000001
  15   H   :    0.000033462   -0.000177121    0.000000000

Difference to translation invariance:
           :    0.0000000000    0.0000000000   -0.0000000000

Difference to rotation invariance:
           :   -0.0000000000    0.0000000000    0.0000000000

Norm of the Dispersion gradient    ...    0.0008756205
RMS gradient                       ...    0.0001305298
MAX gradient                       ...    0.0003057780

------------------
CARTESIAN GRADIENT
------------------

   1   C   :    0.012020163   -0.003208428   -0.000000437
   2   C   :    0.008243254    0.001259812    0.000000027
   3   C   :    0.004370137   -0.008870588   -0.000000224
   4   C   :   -0.004114479    0.006194107    0.000000483
   5   C   :    0.010151599    0.005638062   -0.000000849
   6   C   :   -0.009736842   -0.007333448    0.000000906
   7   O   :   -0.000089205    0.010522451   -0.000000096
   8   C   :   -0.006929202   -0.007464004   -0.000000367
   9   C   :   -0.011873209    0.009781191    0.000000121
  10   H   :    0.005878034   -0.011948008    0.000000180
  11   H   :    0.010826257    0.004376281    0.000000119
  12   H   :   -0.001318395   -0.010176601    0.000000111
  13   H   :   -0.009075545   -0.004600960   -0.000000034
  14   H   :   -0.008808560    0.005641435    0.000000177
  15   H   :    0.000455993    0.010188698   -0.000000115

Difference to translation invariance:
           :   -0.0000000000   -0.0000000000   -0.0000000000

Difference to rotation invariance:
           :    0.0000009578    0.0000003223   -0.0000685241

Norm of the Cartesian gradient     ...    0.0429867630
RMS gradient                       ...    0.0064080883
MAX gradient                       ...    0.0120201635

-------
TIMINGS
-------

Total SCF gradient time     ....        8.235 sec

Densities                   ....       0.000 sec  (  0.0%)
One electron gradient       ....       0.056 sec  (  0.7%)
RI-J Coulomb gradient       ....       0.602 sec  (  7.3%)
COSX gradient               ....       6.145 sec  ( 74.6%)
XC gradient                 ....       1.274 sec  ( 15.5%)

Maximum memory used throughout the entire SCFGRAD-calculation: 28.7 MB
------------------------------------------------------------------------------
                         ORCA GEOMETRY RELAXATION STEP
------------------------------------------------------------------------------

Reading the OPT-File                    .... done
Getting information on internals        .... done
Copying old internal coords+grads       .... done
Making the new internal coordinates     .... (2022 redundants) done
Validating the new internal coordinates .... (2022 redundants) done
Calculating the B-matrix                .... done
Calculating the G,G- and P matrices     .... done
Transforming gradient to internals      .... done
Projecting the internal gradient        .... done
Number of atoms                         ....  15
Number of internal coordinates          ....  77
Current Energy                          ....  -382.657058148 Eh
Current gradient norm                   ....     0.042986763 Eh/bohr
Maximum allowed component of the step   ....  0.300
Current trust radius                    ....  0.300
Evaluating the initial hessian          ....  (Almloef) done
Projecting the Hessian                  .... done
Forming the augmented Hessian           .... done
Diagonalizing the augmented Hessian     .... done
Last element of RFO vector              ....  0.996649760
Lowest eigenvalues of augmented Hessian:
 -0.002807835  0.022749476  0.023004658  0.024134926  0.024249001
Length of the computed step             ....  0.082062796
The final length of the internal step   ....  0.082062796
Converting the step to Cartesian space:
 Initial RMS(Int)=    0.0093519236
Transforming coordinates:
 Iter   0:  RMS(Cart)=    0.0153417878 RMS(Int)=    2.0252747764
done
Storing new coordinates                 .... done

                                .--------------------.
          ----------------------|Geometry convergence|-------------------------
          Item                value                   Tolerance       Converged
          ---------------------------------------------------------------------
          RMS gradient        0.0039705434            0.0001000000      NO
          MAX gradient        0.0132652057            0.0003000000      NO
          RMS step            0.0093519236            0.0020000000      NO
          MAX step            0.0343190456            0.0040000000      NO
          ........................................................
          Max(Bonds)      0.0182      Max(Angles)    0.86
          Max(Dihed)        0.00      Max(Improp)    0.00
          ---------------------------------------------------------------------

The optimization has not yet converged - more geometry cycles are needed


    ---------------------------------------------------------------------------
                         Redundant Internal Coordinates
                            (Angstroem and degrees)

        Definition                    Value    dE/dq     Step     New-Value
    ----------------------------------------------------------------------------
     1. B(C   1,C   0)                1.4157 -0.006115  0.0057    1.4215   
     2. B(C   2,C   1)                1.3911 -0.012360  0.0108    1.4018   
     3. B(C   3,C   2)                1.3858 -0.000342  0.0005    1.3863   
     4. B(C   4,C   3)                1.4161 -0.008363  0.0077    1.4238   
     5. B(C   5,C   4)                1.4241  0.000349 -0.0010    1.4232   
     6. B(C   5,C   0)                1.3715  0.006091 -0.0050    1.3665   
     7. B(O   6,C   5)                1.3678 -0.002042  0.0018    1.3696   
     8. B(C   7,O   6)                1.3064 -0.004532  0.0034    1.3098   
     9. B(C   8,C   7)                1.4051 -0.003570  0.0034    1.4084   
    10. B(C   8,C   4)                1.4030  0.002487 -0.0024    1.4006   
    11. B(H   9,C   8)                1.0727 -0.013265  0.0182    1.0909   
    12. B(H  10,C   7)                1.0772 -0.011295  0.0157    1.0929   
    13. B(H  11,C   3)                1.0790 -0.010218  0.0143    1.0933   
    14. B(H  12,C   2)                1.0789 -0.010175  0.0142    1.0932   
    15. B(H  13,C   1)                1.0796 -0.010460  0.0147    1.0942   
    16. B(H  14,C   0)                1.0788 -0.010198  0.0143    1.0931   
[...]
     26       0.000000  -0.000000  -0.000000   0.000000   0.000000   0.000000
     27      -0.239972  -0.245233   0.141211   0.000144  -0.000038   0.000608
     28      -0.176908  -0.189280   0.107599   0.000438   0.002278  -0.002742
     29       0.000001   0.000001   0.000002   0.000000  -0.000000   0.000000
     30      -0.036558  -0.002867   0.111528  -0.006169   0.004451   0.004244
     31      -0.138131  -0.077146   0.017099  -0.000774   0.000861   0.000369
     32      -0.000001  -0.000001  -0.000001  -0.000000   0.000000  -0.000000
     33       0.255201  -0.293499   0.270105  -0.013413  -0.034427   0.019384
     34       0.128859   0.113426   0.015147  -0.285296  -0.774524   0.492573
     35      -0.000006   0.000007  -0.000003   0.000003   0.000007  -0.000004
     36      -0.060425  -0.195273   0.006968   0.397975   0.364120   0.607228
     37       0.513835   0.068599   0.159313   0.192749   0.181630   0.295242
     38      -0.000001  -0.000003   0.000001  -0.000007  -0.000006  -0.000011
     39       0.230284  -0.287035  -0.160480  -0.695385   0.379921   0.046966
     40       0.522753  -0.388577  -0.041314   0.436170  -0.240543  -0.034032
     41      -0.000002   0.000005   0.000004   0.000011  -0.000006  -0.000000
     42       0.000780  -0.035655  -0.392661  -0.004772   0.003914   0.018341
     43       0.077964  -0.215906  -0.195765  -0.203799   0.153036   0.537781
     44       0.000000   0.000002   0.000004   0.000000  -0.000000  -0.000001
                 42         43         44    
      0       0.002246  -0.000502   0.000356
      1       0.072484   0.000489  -0.001166
      2      -0.000000   0.000000   0.000000
      3      -0.026995   0.000503  -0.000167
      4       0.015441  -0.000153   0.000295
      5       0.000000  -0.000000   0.000000
      6      -0.034787   0.000018   0.000326
      7      -0.016863   0.000066  -0.000159
      8       0.000001   0.000000   0.000000
      9       0.000985   0.000142  -0.000031
     10      -0.023933  -0.000412  -0.000024
     11       0.000000  -0.000000   0.000000
     12       0.001119  -0.003038  -0.003984
     13       0.000242   0.001618   0.001240
     14       0.000000   0.000000   0.000000
     15       0.004052   0.002138  -0.002168
     16      -0.002720  -0.000141   0.001153
     17       0.000000  -0.000000  -0.000000
     18      -0.000050   0.000476  -0.001156
     19       0.000150   0.000257   0.001521
     20      -0.000000   0.000000  -0.000000
     21       0.000404  -0.061248   0.066653
     22       0.000280  -0.007939   0.013703
     23      -0.000000   0.000000  -0.000000
     24       0.000002   0.026948   0.021161
     25      -0.000428  -0.058682  -0.061923
     26       0.000000   0.000000   0.000000
     27      -0.001715  -0.269644  -0.254159
     28       0.003532   0.664937   0.641736
     29       0.000000  -0.000002  -0.000002
     30      -0.007458   0.682530  -0.707912
     31      -0.001079   0.106133  -0.115729
     32      -0.000000  -0.000002   0.000003
     33       0.009812   0.000423   0.000653
     34       0.255992   0.002330   0.000465
     35      -0.000002   0.000000  -0.000000
     36       0.376691   0.000399  -0.001128
     37       0.184309  -0.000043  -0.000680
     38      -0.000006  -0.000000   0.000000
     39       0.283218  -0.003783   0.001738
     40      -0.176771   0.002415  -0.001181
     41      -0.000004  -0.000000   0.000000
     42      -0.028544   0.000040   0.000329
     43      -0.798648  -0.003484   0.009870
     44       0.000001  -0.000000   0.000000


-----------
IR SPECTRUM
-----------

 Mode   freq       eps      Int      T**2         TX        TY        TZ
       cm**-1   L/(mol*cm) km/mol    a.u.
----------------------------------------------------------------------------
  6:    198.84   0.002027   10.24  0.003182  (-0.000001 -0.000001  0.056405)
  7:    241.04   0.000010    0.05  0.000013  (-0.000001 -0.000002 -0.003672)
  8:    402.07   0.001874    9.47  0.001454  (-0.000000 -0.000003  0.038135)
  9:    411.73   0.001621    8.19  0.001229  ( 0.028606  0.020262  0.000001)
 10:    507.07   0.000664    3.36  0.000409  (-0.000000  0.000002  0.020219)
 11:    517.84   0.000514    2.60  0.000310  ( 0.013340  0.011489  0.000000)
 12:    565.52   0.000008    0.04  0.000004  (-0.000002 -0.000004  0.002039)
 13:    615.66   0.000237    1.20  0.000120  ( 0.010938  0.000826 -0.000000)
 14:    737.82   0.004271   21.58  0.001806  (-0.000001 -0.000003 -0.042500)
 15:    783.09   0.000290    1.47  0.000116  ( 0.002332 -0.010493  0.000004)
 16:    787.73   0.002263   11.44  0.000897  ( 0.000000 -0.000001 -0.029942)
 17:    839.25   0.010245   51.78  0.003810  (-0.000002 -0.000001 -0.061722)
 18:    872.45   0.001985   10.03  0.000710  ( 0.006042  0.025953 -0.000000)
 19:    894.30   0.002992   15.12  0.001044  (-0.030421 -0.010896  0.000004)
 20:    902.37   0.000242    1.23  0.000084  ( 0.000000  0.000002  0.009157)
 21:    941.78   0.000101    0.51  0.000034  ( 0.000003 -0.000001 -0.005788)
 22:    991.45   0.000614    3.10  0.000193  ( 0.000001 -0.000001 -0.013903)
 23:   1019.78   0.001809    9.14  0.000554  ( 0.019375 -0.013355  0.000000)
 24:   1028.52   0.000202    1.02  0.000061  (-0.000002  0.000001 -0.007821)
 25:   1068.74   0.000112    0.57  0.000033  (-0.002991  0.004878 -0.000000)
 26:   1125.79   0.000167    0.84  0.000046  (-0.000050 -0.006801 -0.000000)
 27:   1157.33   0.003206   16.20  0.000864  (-0.019736  0.021793  0.000001)
 28:   1173.53   0.007146   36.11  0.001900  (-0.043444 -0.003583  0.000000)
 29:   1223.34   0.011834   59.80  0.003019  ( 0.042735  0.034531 -0.000000)
 30:   1293.67   0.005078   25.66  0.001225  ( 0.031775 -0.014669 -0.000000)
 31:   1296.41   0.008143   41.15  0.001960  ( 0.042507 -0.012385  0.000000)
 32:   1412.23   0.005273   26.65  0.001165  ( 0.033293 -0.007532 -0.000000)
 33:   1425.26   0.011250   56.86  0.002463  ( 0.000892 -0.049624 -0.000000)
 34:   1477.18   0.000707    3.57  0.000149  ( 0.011921 -0.002677 -0.000000)
 35:   1496.03   0.032341  163.44  0.006746  ( 0.080353  0.017014 -0.000001)
 36:   1531.42   0.010710   54.12  0.002182  (-0.028834  0.036756  0.000000)
 37:   1629.61   0.000228    1.15  0.000044  ( 0.003865 -0.005355  0.000000)
 38:   1706.44   0.008698   43.96  0.001591  (-0.034893  0.019315  0.000000)
 39:   3226.95   0.000136    0.69  0.000013  (-0.003274 -0.001563  0.000000)
 40:   3234.69   0.000524    2.65  0.000051  ( 0.005659 -0.004304  0.000000)
 41:   3244.85   0.002762   13.96  0.000266  ( 0.006094  0.015116 -0.000000)
 42:   3248.37   0.001602    8.09  0.000154  ( 0.007471 -0.009902 -0.000000)
 43:   3272.56   0.004507   22.77  0.000430  ( 0.010727  0.017739 -0.000000)
 44:   3286.20   0.005113   25.84  0.000486  (-0.020498  0.008087  0.000000)

* The epsilon (eps) is given for a Dirac delta lineshape.
** The dipole moment derivative (T) already includes vibrational overlap.

The first frequency considered to be a vibration is 6
The total number of vibrations considered is 39


--------------------------
THERMOCHEMISTRY AT 298.15K
--------------------------

Temperature         ...   298.15 K
Pressure            ...     1.00 atm
Total Mass          ...   118.13 AMU
Quasi RRHO          ...     True
Cut-Off Frequency   ...     1.00 cm^-1

Throughout the following assumptions are being made:
  (1) The electronic state is orbitally nondegenerate
      but the spin degeneracy is treated
  (2) There are no thermally accessible electronically excited states
  (3) Hindered rotations indicated by low frequency modes are not
      treated as such but are treated as vibrations and this may
      cause some error
  (4) All equations used are the standard statistical mechanics
      equations for an ideal gas
  (5) All vibrations are strictly harmonic

freq.     198.84  E(vib)   ...       0.35 
freq.     241.04  E(vib)   ...       0.31 
freq.     402.07  E(vib)   ...       0.19 
freq.     411.73  E(vib)   ...       0.19 
freq.     507.07  E(vib)   ...       0.14 
freq.     517.84  E(vib)   ...       0.13 
freq.     565.52  E(vib)   ...       0.11 
freq.     615.66  E(vib)   ...       0.10 
freq.     737.82  E(vib)   ...       0.06 
freq.     783.09  E(vib)   ...       0.05 
freq.     787.73  E(vib)   ...       0.05 
freq.     839.25  E(vib)   ...       0.04 
freq.     872.45  E(vib)   ...       0.04 
freq.     894.30  E(vib)   ...       0.03 
freq.     902.37  E(vib)   ...       0.03 
freq.     941.78  E(vib)   ...       0.03 
freq.     991.45  E(vib)   ...       0.02 
freq.    1019.78  E(vib)   ...       0.02 
freq.    1028.52  E(vib)   ...       0.02 
freq.    1068.74  E(vib)   ...       0.02 
freq.    1125.79  E(vib)   ...       0.01 
freq.    1157.33  E(vib)   ...       0.01 
freq.    1173.53  E(vib)   ...       0.01 
freq.    1223.34  E(vib)   ...       0.01 
freq.    1293.67  E(vib)   ...       0.01 
freq.    1296.41  E(vib)   ...       0.01 
freq.    1412.23  E(vib)   ...       0.00 
freq.    1425.26  E(vib)   ...       0.00 
freq.    1477.18  E(vib)   ...       0.00 
freq.    1496.03  E(vib)   ...       0.00 
freq.    1531.42  E(vib)   ...       0.00 
freq.    1629.61  E(vib)   ...       0.00 
freq.    1706.44  E(vib)   ...       0.00 
freq.    3226.95  E(vib)   ...       0.00 
freq.    3234.69  E(vib)   ...       0.00 
freq.    3244.85  E(vib)   ...       0.00 
freq.    3248.37  E(vib)   ...       0.00 
freq.    3272.56  E(vib)   ...       0.00 
freq.    3286.20  E(vib)   ...       0.00 

------------
INNER ENERGY
------------

The inner energy is: U= E(el) + E(ZPE) + E(vib) + E(rot) + E(trans)
    E(el)   - is the total energy from the electronic structure calculation
              = E(kin-el) + E(nuc-el) + E(el-el) + E(nuc-nuc)
    E(ZPE)  - the the zero temperature vibrational energy from the frequency calculation
    E(vib)  - the the finite temperature correction to E(ZPE) due to population
              of excited vibrational states
    E(rot)  - is the rotational thermal energy
    E(trans)- is the translational thermal energy

Summary of contributions to the inner energy U:
Electronic energy                ...   -382.65876451 Eh
Zero point energy                ...      0.11798383 Eh      74.04 kcal/mol
Thermal vibrational correction   ...      0.00324126 Eh       2.03 kcal/mol
Thermal rotational correction    ...      0.00141627 Eh       0.89 kcal/mol
Thermal translational correction ...      0.00141627 Eh       0.89 kcal/mol
-----------------------------------------------------------------------
Total thermal energy                   -382.53470686 Eh


Summary of corrections to the electronic energy:
(perhaps to be used in another calculation)
Total thermal correction                  0.00607381 Eh       3.81 kcal/mol
Non-thermal (ZPE) correction              0.11798383 Eh      74.04 kcal/mol
-----------------------------------------------------------------------
Total correction                          0.12405764 Eh      77.85 kcal/mol


--------
ENTHALPY
--------

The enthalpy is H = U + kB*T
                kB is Boltzmann's constant
Total thermal energy              ...   -382.53470686 Eh 
Thermal Enthalpy correction       ...      0.00094421 Eh       0.59 kcal/mol
-----------------------------------------------------------------------
Total Enthalpy                    ...   -382.53376266 Eh


Note: Rotational entropy computed according to Herzberg 
Infrared and Raman Spectra, Chapter V,1, Van Nostrand Reinhold, 1945 
Point Group:  Cs, Symmetry Number:   1  
Rotational constants in cm-1:     0.129539     0.055719     0.038960 

Vibrational entropy computed according to the QRRHO of S. Grimme
Chem.Eur.J. 2012 18 9955 using a reference frequency of 100.0 cm-1


-------
ENTROPY
-------

The entropy contributions are T*S = T*(S(el)+S(vib)+S(rot)+S(trans))
     S(el)   - electronic entropy
     S(vib)  - vibrational entropy
     S(rot)  - rotational entropy
     S(trans)- translational entropy
The entropies will be listed as multiplied by the temperature to get
units of energy

Electronic entropy                ...      0.00065446 Eh      0.41 kcal/mol
Vibrational entropy               ...      0.00480852 Eh      3.02 kcal/mol
Rotational entropy                ...      0.01337082 Eh      8.39 kcal/mol
Translational entropy             ...      0.01910727 Eh     11.99 kcal/mol
-----------------------------------------------------------------------
Final entropy term                ...      0.03794107 Eh     23.81 kcal/mol

In case the symmetry of your molecule has not been determined correctly
or in case you have a reason to use a different symmetry number we print 
out the resulting rotational entropy values for sn=1,12:

 non-linear molecules -----------------------------------
|  sn= 1 | S(rot)=       0.01337082 Eh      8.39 kcal/mol|
|  sn= 2 | S(rot)=       0.01271637 Eh      7.98 kcal/mol|
|  sn= 3 | S(rot)=       0.01233353 Eh      7.74 kcal/mol|
|  sn= 4 | S(rot)=       0.01206191 Eh      7.57 kcal/mol|
|  sn= 5 | S(rot)=       0.01185122 Eh      7.44 kcal/mol|
|  sn= 6 | S(rot)=       0.01167908 Eh      7.33 kcal/mol|
|  sn= 7 | S(rot)=       0.01153353 Eh      7.24 kcal/mol|
|  sn= 8 | S(rot)=       0.01140745 Eh      7.16 kcal/mol|
|  sn= 9 | S(rot)=       0.01129624 Eh      7.09 kcal/mol|
|  sn=10 | S(rot)=       0.01119676 Eh      7.03 kcal/mol|
|  sn=11 | S(rot)=       0.01110677 Eh      6.97 kcal/mol|
|  sn=12 | S(rot)=       0.01102462 Eh      6.92 kcal/mol|
 linear molecules ---------------------------------------
|  Dinfh | S(rot)=       0.00838987 Eh      5.26 kcal/mol|
|  Cinfv | S(rot)=       0.00904433 Eh      5.68 kcal/mol|
 --------------------------------------------------------


-------------------
GIBBS FREE ENERGY
-------------------

The Gibbs free energy is G = H - T*S

Total enthalpy                    ...   -382.53376266 Eh 
Total entropy correction          ...     -0.03794107 Eh    -23.81 kcal/mol
-----------------------------------------------------------------------
Final Gibbs free energy         ...   -382.57170373 Eh

For completeness - the Gibbs free energy minus the electronic energy
G-E(el)                           ...      0.08706078 Eh     54.63 kcal/mol


Maximum memory used throughout the entire PROP-calculation: 66.8 MB

--------------------------------
SUGGESTED CITATIONS FOR THIS RUN
--------------------------------

Below you find a list of papers that are relevant to this ORCA run
We neither can nor want to force you to cite these papers, but we appreciate if you do
You receive ORCA, which is the product of decades of hard work by many enthusiastic individuals, for free
The only thing we kindly ask in return is that you cite our papers,
We deeply appreciate it, if you show your appreciation for ORCA by not just citing the generic ORCA reference.

Please note that relegating all ORCA citations to the supporting information does *not* help us.
SI sections are not indexed - citations you put there will not count into any citation statistics
But we need these citations in order to attract the funding resources that allow us to do what we are doing

Therefore, if you are a happy ORCA user, please consider citing a few of the papers listed below in the main body of your paper

In addition to the list printed below, the program has created the file cs_rporg_100_ox_opt_01.bibtex that contains the list in bibtex format
You can import this file easily into all common literature databanks and citation aid programs


List of essential papers. We consider these as the minimum necessary citations

  1. Neese,F.
     Software update: the ORCA program system, version 5.0
     WIRES Comput. Molec. Sci., 2022 12(1)e1606
     doi.org/10.1002/wcms.1606

List of papers to cite with high priority. The work reported in these papers was absolutely
necessary for this run to complete.
Our perspective: the developers of density functionals and basis sets usually get cited in chemistry papers
Good! But without the algorithms to do something with them, the functionals or basis sets would not do anything.
Hence, in our opinion, the algorithm design and method developments papers are equally worthy of getting cited

  1. Neese,F.
     An improvement of the resolution of the identity approximation for the formation of the Coulomb matrix
     J. Comp. Chem., 2003 24(14)1740-1747
     doi.org/10.1002/jcc.10318
  2. Neese,F.; Wennmohs,F.; Hansen,A.; Becker,U.
     Efficient, approximate and parallel Hartree-Fock and hybrid DFT calculations. A 'chain-of-spheres' algorithm for the Hartree-Fock exchange
     Chem. Phys., 2009 356(1-3)98-109
     doi.org/10.1016/j.chemphys.2008.10.036
  3. Bykov,D.; Petrenko,T.; Izsak,R.; Kossmann,S.; Becker,U.; Valeev,E.; Neese,F.
     Efficient implementation of the analytic second derivatives of Hartree-Fock and hybrid DFT energies: a detailed analysis of different approximations
     Molec. Phys., 2015 113 1961-1977
     doi.org/10.1080/00268976.2015.1025114
  4. Helmich-Paris,B.; de Souza,B.; Neese,F.; Izsák,R.
     An improved chain of spheres for exchange algorithm
     J. Chem. Phys., 2021 155 104109
     doi.org/doi: 10.1063/5.0058766.
  5. Neese,F.
     The SHARK Integral Generation and Digestion System
     J. Comp. Chem., 2022  1-16
     doi.org/10.1002/jcc.26942
  6. Grimme,S.; Antony,J.; Ehrlich,S.; Krieg,H.
     A consistent and accurate ab initio parametrization of density functional dispersion correction (DFT-D) for the 94 elements H-Pu
     J. Chem. Phys., 2010 132 154104-XXXX
     doi.org/10.1063/1.3382344
  7. Grimme,S.; Ehrlich,S.; Goerigk,L.
     Effect of the damping function in dispersion corrected density functional theory
     J. Comput. Chem., 2011 32(7)1456-1465
     doi.org/10.1002/jcc.21759

List of suggested additional citations. These are papers that are important in the 'surrounding' of 
of this run, or papers that preceded the highly important papers. If you like your results we are grateful for a citation.

  1. Izsak,R.; Neese,F.
     An overlap fitted chain of spheres exchange method
     J. Chem. Phys., 2011 135 144105
     doi.org/10.1063/1.3646921
  2. Izsak,R.; Hansen,A.; Neese,F.
     The resolution of identity and chain of spheres approximations for the LPNO-CCSD singles Fock term
     Molec. Phys., 2012 110 2413-2417
     doi.org/10.1080/00268976.2012.687466
  3. Neese,F.
     The ORCA program system
     WIRES Comput. Molec. Sci., 2012 2(1)73-78
     doi.org/10.1002/wcms.81
  4. Izsak,R.; Neese,F.; Klopper,W.
     Robust fitting techniques in the chain of spheres approximation to the Fock exchange: The role of the complementary space
     J. Chem. Phys., 2013 139 
     doi.org/10.1063/1.4819264
  5. Neese,F.
     Software update: the ORCA program system, version 4.0
     WIRES Comput. Molec. Sci., 2018 8(1)1-6
     doi.org/10.1002/wcms.1327
  6. Neese,F.; Wennmohs,F.; Becker,U.; Riplinger,C.
     The ORCA quantum chemistry program package
     J. Chem. Phys., 2020 152 Art. No. L224108
     doi.org/10.1063/5.0004608

List of optional additional citations

  1. Neese,F.
     Approximate second-order SCF convergence for spin unrestricted wavefunctions
     Chem. Phys. Lett., 2000 325(1-3)93-98
     doi.org/10.1016/s0009-2614(00)00662-x

Timings for individual modules:

Sum of individual times          ...      570.027 sec (=   9.500 min)
Startup calculation              ...       25.884 sec (=   0.431 min)   4.5 %
SCF iterations                   ...      257.198 sec (=   4.287 min)  45.1 %
Property integrals               ...       44.924 sec (=   0.749 min)   7.9 %
SCF Response                     ...      121.077 sec (=   2.018 min)  21.2 %
Property calculations            ...       71.250 sec (=   1.188 min)  12.5 %
SCF Gradient evaluation          ...       48.941 sec (=   0.816 min)   8.6 %
Geometry relaxation              ...        0.753 sec (=   0.013 min)   0.1 %
                             ****ORCA TERMINATED NORMALLY****
TOTAL RUN TIME: 0 days 0 hours 9 minutes 56 seconds 313 msec
