
                                 *****************
                                 * O   R   C   A *
                                 *****************

                                            #,                                       
                                            ###                                      
                                            ####                                     
                                            #####                                    
                                            ######                                   
                                           ########,                                 
                                     ,,################,,,,,                         
                               ,,#################################,,                 
                          ,,##########################################,,             
                       ,#########################################, ''#####,          
                    ,#############################################,,   '####,        
                  ,##################################################,,,,####,       
                ,###########''''           ''''###############################       
              ,#####''   ,,,,##########,,,,          '''####'''          '####       
            ,##' ,,,,###########################,,,                        '##       
           ' ,,###''''                  '''############,,,                           
         ,,##''                                '''############,,,,        ,,,,,,###''
      ,#''                                            '''#######################'''  
     '                                                          ''''####''''         
             ,#######,   #######,   ,#######,      ##                                
            ,#'     '#,  ##    ##  ,#'     '#,    #''#        ,####,   ,####,        
            ##       ##  ##   ,#'  ##            #'  '#       #'       #'  '#        
            ##       ##  #######   ##           ,######,      #####,   #    #        
            '#,     ,#'  ##    ##  '#,     ,#' ,#      #,     #,   #   #,  ,#        
             '#######'   ##     ##  '#######'  #'      '#     '####' # '####'        



                #########################################################
                #                        -***-                          #
                #          Department of theory and spectroscopy        #
                #                                                       #
                #                      Frank Neese                      #
                #                                                       #
                #     Directorship, Architecture, Infrastructure        #
                #                    SHARK, DRIVERS                     #
                #        Core code/Algorithms in most modules           #
                #                                                       #
                #        Max Planck Institute fuer Kohlenforschung      #
                #                Kaiser Wilhelm Platz 1                 #
                #                 D-45470 Muelheim/Ruhr                 #
                #                      Germany                          #
                #                                                       #
                #                  All rights reserved                  #
                #                        -***-                          #
                #########################################################


                         Program Version 6.0.0  -   RELEASE  -


 With contributions from (in alphabetic order):
   Daniel Aravena         : Magnetic Suceptibility
   Michael Atanasov       : Ab Initio Ligand Field Theory (pilot matlab implementation)
   Alexander A. Auer      : GIAO ZORA, VPT2 properties, NMR spectrum
   Ute Becker             : All parallelization in ORCA, NUMFREQ, NUMCALC
   Giovanni Bistoni       : ED, misc. LED, open-shell LED, HFLD
   Martin Brehm           : Molecular dynamics
   Dmytro Bykov           : pre 5.0 version of the SCF Hessian
   Marcos Casanova-Páez   : Triplet and SCS-CIS(D). UHF-(DLPNO)-IP/EA/STEOM-CCSD. UHF-CVS-IP/STEOM-CCSD
   Vijay G. Chilkuri      : MRCI spin determinant printing, contributions to CSF-ICE
   Pauline Colinet        : FMM embedding
   Dipayan Datta          : RHF DLPNO-CCSD density
   Achintya Kumar Dutta   : EOM-CC, STEOM-CC
   Nicolas Foglia         : Exact transition moments, OPA infrastructure, MCD improvements
   Dmitry Ganyushin       : Spin-Orbit,Spin-Spin,Magnetic field MRCI
   Miquel Garcia          : C-PCM and meta-GGA Hessian, CCSD/C-PCM, Gaussian charge scheme
   Tiago L. C. Gouveia    : GS-ROHF, GS-ROCIS
   Yang Guo               : DLPNO-NEVPT2, F12-NEVPT2, CIM, IAO-localization
   Andreas Hansen         : Spin unrestricted coupled pair/coupled cluster methods
   Ingolf Harden          : AUTO-CI MPn and infrastructure 
   Benjamin Helmich-Paris : MC-RPA, TRAH-(SCF,CASSCF), AVAS, COSX integrals, SCF dyn. polar.
   Lee Huntington         : MR-EOM, pCC
   Robert Izsak           : Overlap fitted RIJCOSX, COSX-SCS-MP3, EOM
   Riya Kayal             : Wick's Theorem for AUTO-CI, AUTO-CI UHF-CCSDT
   Emily Kempfer          : AUTO-CI, RHF CISDT and CCSDT
   Christian Kollmar      : KDIIS, OOCD, Brueckner-CCSD(T), CCSD density, CASPT2, CASPT2-K, improved NEVPT2
   Axel Koslowski         : Symmetry handling
   Simone Kossmann        : Meta GGA functionals, TD-DFT gradient, OOMP2, (MP2 Hessian; deprecated post 5.0)
   Lucas Lang             : DCDCAS
   Marvin Lechner         : AUTO-CI (C++ implementation), FIC-MRCC
   Spencer Leger          : CASSCF response
   Dagmar Lenk            : GEPOL surface, SMD, ORCA-2-JSON
   Dimitrios Liakos       : Extrapolation schemes; Compound Job, initial MDCI parallelization
   Dimitrios Manganas     : Further ROCIS development; embedding schemes. LFT, Crystal Embedding
   Dimitrios Pantazis     : SARC Basis sets
   Anastasios Papadopoulos: AUTO-CI, single reference methods and gradients
   Taras Petrenko         : pre 6.0 DFT Hessian and TD-DFT gradient, (ASA, deprecated), ECA, 1-Electron XAS/XES, NRVS
   Peter Pinski           : DLPNO-MP2, DLPNO-MP2 Gradient
   Christoph Reimann      : Effective Core Potentials
   Marius Retegan         : Local ZFS, SOC
   Christoph Riplinger    : Optimizer, TS searches, QM/MM, DLPNO-CCSD(T), (RO)-DLPNO pert. Triples
   Michael Roemelt        : Original ROCIS implementation
   Masaaki Saitow         : Open-shell DLPNO-CCSD energy and density
   Barbara Sandhoefer     : DKH picture change effects
   Kantharuban Sivalingam : CASSCF convergence/infrastructure, NEVPT2 and variants, FIC-MRCI
   Bernardo de Souza      : ESD, SOC TD-DFT
   Georgi Stoychev        : AutoAux, RI-MP2 NMR, DLPNO-MP2 response, X2C
   Van Anh Tran           : RI-MP2 g-tensors
   Willem Van den Heuvel  : Paramagnetic NMR
   Zikuan Wang            : NOTCH, Electric field optimization 
   Frank Wennmohs         : Technical directorship and infrastructure
   Hang Xu                : AUTO-CI-Response properties 


 We gratefully acknowledge several colleagues who have allowed us to
 interface, adapt or use parts of their codes:
   Stefan Grimme, W. Hujo, H. Kruse, P. Pracht,  : VdW corrections, initial TS optimization,
                  C. Bannwarth, S. Ehlert,         DFT functionals, gCP, sTDA/sTD-DF
                  L. Wittmann, M. Mueller
   Ed Valeev, F. Pavosevic, A. Kumar             : LibInt (2-el integral package), F12 methods
   Garnet Chan, S. Sharma, J. Yang, R. Olivares  : DMRG
   Ulf Ekstrom                                   : XCFun DFT Library
   Mihaly Kallay                                 : mrcc  (arbitrary order and MRCC methods)
   Frank Weinhold                                : gennbo (NPA and NBO analysis)
   Simon Mueller                                 : openCOSMO-RS
   Christopher J. Cramer and Donald G. Truhlar   : smd solvation model
   Lars Goerigk                                  : TD-DFT with DH, B97 family of functionals
   V. Asgeirsson, H. Jonsson                     : NEB implementation
   FAccTs GmbH                                   : IRC, NEB, NEB-TS, DLPNO-Multilevel, CI-OPT
                                                   MM, QMMM, 2- and 3-layer-ONIOM, Crystal-QMMM,
                                                   LR-CPCM, SF, NACMEs, symmetry and pop. for TD-DFT,
                                                   nearIR, NL-DFT gradient (VV10), updates on ESD,
                                                   ML-optimized integration grids, MBIS, APM,
                                                   GOAT, DOCKER, SOLVATOR, interface openCOSMO-RS
   S Lehtola, MJT Oliveira, MAL Marques          : LibXC Library
   Liviu Ungur et al                             : ANISO software


 Your calculation uses the libint2 library for the computation of 2-el integrals
 For citations please refer to: http://libint.valeyev.net

 Your ORCA version has been built with support for libXC version: 6.2.2
 For citations please refer to: https://libxc.gitlab.io

 This ORCA versions uses:
   CBLAS   interface :  Fast vector & matrix operations
   LAPACKE interface :  Fast linear algebra routines
   SCALAPACK package :  Parallel linear algebra routines
   Shared memory     :  Shared parallel matrices
   BLAS/LAPACK       :  OpenBLAS 0.3.27  USE64BITINT DYNAMIC_ARCH NO_AFFINITY Sandybridge SINGLE_THREADED
        Core in use  :  Sandybridge
   Copyright (c) 2011-2014, The OpenBLAS Project


NOTE: MaxCore=3500 MB was set to SCF,MP2,MDCI,CIPSI,MRCI and CIS
      => If you want to overwrite this, your respective input block should be placed after the MaxCore statement
Your calculation utilizes the atom-pairwise dispersion correction
with the Becke-Johnson damping scheme (D3BJ)


Your calculation utilizes the SMD solvation module
Please cite in your paper:
A.V. Marenich, C.J. Cramer, D.G. Truhlar J. Phys. Chem. B, 113, (2009), 6378 

Warning: RI is on but no J-basis has been assigned. Assigning Def2/J (nothing to worry about!)
================================================================================

----- Orbital basis set information -----
Your calculation utilizes the basis: aug-cc-pVTZ 
    H, B-Ne : Obtained from the ccRepo (grant-hill.group.shef.ac.uk/ccrepo) Feb. 2017
              R. A. Kendall, T. H. Dunning, Jr., R. J. Harrison, J. Chem. Phys. 96, 6796 (1992)
         He : Obtained from the ccRepo (grant-hill.group.shef.ac.uk/ccrepo) Feb. 2017
              D. E. Woon, T. H. Dunning, Jr., J. Chem. Phys. 100, 2975 (1994)
  Li-Be, Na : Obtained from the ccRepo (grant-hill.group.shef.ac.uk/ccrepo) Feb. 2017
              B. P. Prascher, D. E. Woon, K. A. Peterson, T. H. Dunning, Jr., A. K. Wilson, Theor. Chem. Acc. 128, 69 (2011)
         Mg : Obtained from the Peterson Research Group Website (tyr0.chem.wsu.edu/~kipeters) Feb. 2017
              B. P. Prascher, D. E. Woon, K. A. Peterson, T. H. Dunning, Jr., A. K. Wilson, Theor. Chem. Acc. 128, 69 (2011)
      Al-Ar : Obtained from the ccRepo (grant-hill.group.shef.ac.uk/ccrepo) Feb. 2017
              D. E. Woon, T. H. Dunning, Jr., J. Chem. Phys. 98, 1358 (1993)
      Sc-Zn : Obtained from the ccRepo (grant-hill.group.shef.ac.uk/ccrepo) Feb. 2017
              N. B. Balabanov, K. A. Peterson, J. Chem. Phys. 123, 064107 (2005)
              N. B. Balabanov, K. A. Peterson, J. Chem. Phys. 125, 074110 (2006)
      Ga-Kr : Obtained from the ccRepo (grant-hill.group.shef.ac.uk/ccrepo) Feb. 2017
              A. K. Wilson, D. E. Woon, K. A. Peterson, T. H. Dunning, Jr., J. Chem. Phys. 110, 7667 (1999)
     Ag, Au : Obtained from the Peterson Research Group Website (tyr0.chem.wsu.edu/~kipeters) Feb. 2017
              K. A. Peterson, C. Puzzarini, Theor. Chem. Acc. 114, 283 (2005)

----- AuxJ basis set information -----
Your calculation utilizes the auxiliary basis: def2/J
   F. Weigend, Phys. Chem. Chem. Phys. 8, 1057 (2006).

================================================================================
                                        WARNINGS
                       Please study these warnings very carefully!
================================================================================


WARNING: your system is open-shell and RHF/RKS was chosen
  ===> : WILL SWITCH to UHF/UKS


WARNING: Geometry Optimization
  ===> : Switching off AutoStart
         For restart on a previous wavefunction, please use MOREAD

================================================================================
                                       INPUT FILE
================================================================================
NAME = cs_rporg_150_red_opt_04.inp
|  1> !PBE0 opt aug-cc-pVTZ d3 TightSCF SlowConv RIJCOSX defgrid2
|  2> 
|  3> %pal
|  4> nprocs 8
|  5> end
|  6> 
|  7> %scf
|  8> MaxIter 1500
|  9> end
| 10> 
| 11> %maxcore 3500
| 12> 
| 13> !CPCM
| 14> %cpcm smd true
| 15> SMDsolvent "MeCN"
| 16> surfacetype gepol_ses
| 17> rsolv 2.19
| 18> end 
| 19> 
| 20> * xyz -1 2
| 21> C           0.68315502285048     -1.23058998559791     -0.00197785400563
| 22> C          -0.69097039389614     -1.22820808682412     -0.00110778792906
| 23> C          -1.39878915837568      0.00192561974512      0.00006123035750
| 24> C          -0.67088260295619      1.21697689217912      0.00034729291936
| 25> C           0.70599002665524      1.19710781410292     -0.00056169847882
| 26> C           1.43890972865005     -0.02356673016238     -0.00174160392592
| 27> C           2.88835051512998     -0.09555430971111     -0.00265662366589
| 28> O           3.51113560358604     -1.16132419888811     -0.00429988492646
| 29> C           3.67215429347512      1.21312233920081     -0.00319382492201
| 30> H           3.44490427270519      1.82862721041062      0.88658626511100
| 31> H           4.74564035342603      0.96713680695522     -0.00513239151038
| 32> H           3.44193148262032      1.82994436135706     -0.89128425723845
| 33> H           1.24130264942652      2.15210104681416     -0.00032125400509
| 34> H          -1.23634900308120      2.15002194871812      0.00128004669295
| 35> N          -2.79949677516438      0.01738261553575      0.00104508920787
| 36> O          -3.38660343043673      1.11542368371417      0.00320409549424
| 37> O          -3.41030224545591     -1.06695584054066      0.00182719273433
| 38> H          -1.27295707729704     -2.15125183977829     -0.00128101747157
| 39> H           1.24384223813830     -2.16976914723049     -0.00287851443797
| 40> *
| 41> 
| 42>                          ****END OF INPUT****
================================================================================

                       *****************************
                       * Geometry Optimization Run *
                       *****************************

Geometry optimization settings:
Update method            Update   .... BFGS
Choice of coordinates    CoordSys .... (2022) Redundant Internals
Initial Hessian          InHess   .... Almloef's Model
Max. no of cycles        MaxIter  .... 57

Convergence Tolerances:
Energy Change            TolE     ....  5.0000e-06 Eh
Max. Gradient            TolMAXG  ....  3.0000e-04 Eh/bohr
RMS Gradient             TolRMSG  ....  1.0000e-04 Eh/bohr
Max. Displacement        TolMAXD  ....  4.0000e-03 bohr
RMS Displacement         TolRMSD  ....  2.0000e-03 bohr
Strict Convergence                .... False

------------------------------------------------------------------------------
                        ORCA OPTIMIZATION COORDINATE SETUP
------------------------------------------------------------------------------

The optimization will be done in redundant internal coordinates (2022)
Making redundant internal coordinates   ...  (2022 redundants) done
Evaluating the initial hessian          ...  (Almloef) done
Evaluating the coordinates              ...  done
Calculating the B-matrix                .... done
Calculating the G-matrix                .... done
Diagonalizing the G-matrix              .... done
Small eigenvalue found = 1.857e-02
The first mode is                       ....   35
The number of degrees of freedom        ....   51

    -----------------------------------------------------------------
                    Redundant Internal Coordinates


    -----------------------------------------------------------------
         Definition                    Initial Value    Approx d2E/dq
    -----------------------------------------------------------------
      1. B(C   1,C   0)                  1.3741         0.662311   
      2. B(C   2,C   1)                  1.4192         0.561165   
      3. B(C   3,C   2)                  1.4164         0.567041   
      4. B(C   4,C   3)                  1.3770         0.655320   
      5. B(C   5,C   4)                  1.4238         0.551831   
      6. B(C   5,C   0)                  1.4241         0.551225   
      7. B(C   6,C   5)                  1.4512         0.498946   
      8. B(O   7,C   6)                  1.2344         0.991138   
      9. B(C   8,C   6)                  1.5254         0.379878   
     10. B(H   9,C   8)                  1.1055         0.340130   
     11. B(H  10,C   8)                  1.1013         0.345444   
     12. B(H  11,C   8)                  1.1055         0.340142   
     13. B(H  12,C   4)                  1.0948         0.353815   
     14. B(H  13,C   3)                  1.0910         0.358752   
     15. B(N  14,C   2)                  1.4008         0.537843   
     16. B(O  15,N  14)                  1.2451         0.853326   
     17. B(O  16,N  14)                  1.2445         0.855241   
     18. B(H  17,C   1)                  1.0912         0.358516   
     19. B(H  18,C   0)                  1.0938         0.355090   
     20. A(C   1,C   0,H  18)          120.9364         0.356034   
     21. A(C   5,C   0,H  18)          117.1110         0.345165   
     22. A(C   1,C   0,C   5)          121.9526         0.430062   
     23. A(C   0,C   1,C   2)          120.0154         0.431445   
     24. A(C   0,C   1,H  17)          122.1324         0.356615   
     25. A(C   2,C   1,H  17)          117.8521         0.346763   
     26. A(C   3,C   2,N  14)          120.2925         0.413761   
     27. A(C   1,C   2,N  14)          120.5484         0.412996   
     28. A(C   1,C   2,C   3)          119.1591         0.419617   
     29. A(C   2,C   3,C   4)          120.0980         0.431430   
     30. A(C   4,C   3,H  13)          122.0445         0.356012   
     31. A(C   2,C   3,H  13)          117.8575         0.347410   
     32. A(C   3,C   4,C   5)          121.8083         0.429329   
     33. A(C   5,C   4,H  12)          119.7461         0.345020   
     34. A(C   3,C   4,H  12)          118.4456         0.355176   
     35. A(C   0,C   5,C   6)          119.2086         0.408884   
     36. A(C   0,C   5,C   4)          116.9665         0.416262   
     37. A(C   4,C   5,C   6)          123.8248         0.408964   
     38. A(O   7,C   6,C   8)          118.7814         0.429624   
     39. A(C   5,C   6,C   8)          118.0753         0.383034   
     40. A(C   5,C   6,O   7)          123.1433         0.451307   
     41. A(C   6,C   8,H  11)          111.8355         0.322183   
     42. A(H   9,C   8,H  10)          109.0344         0.286385   
     43. A(C   6,C   8,H  10)          108.0123         0.323001   
     44. A(C   6,C   8,H   9)          111.8225         0.322181   
     45. A(H  10,C   8,H  11)          109.0379         0.286386   
     46. A(H   9,C   8,H  11)          107.0440         0.285695   
     47. A(O  15,N  14,O  16)          122.4746         0.474853   
     48. A(C   2,N  14,O  16)          118.7602         0.439518   
     49. A(C   2,N  14,O  15)          118.7650         0.439340   
     50. D(C   2,C   1,C   0,C   5)      0.0003         0.030625   
     51. D(H  17,C   1,C   0,C   5)   -179.9997         0.030625   
     52. D(C   2,C   1,C   0,H  18)    179.9997         0.030625   
     53. D(H  17,C   1,C   0,H  18)     -0.0003         0.030625   
     54. D(C   3,C   2,C   1,C   0)     -0.0016         0.021574   
     55. D(C   3,C   2,C   1,H  17)    179.9984         0.021574   
     56. D(N  14,C   2,C   1,H  17)      0.0042         0.021574   
     57. D(N  14,C   2,C   1,C   0)   -179.9958         0.021574   
     58. D(H  13,C   3,C   2,N  14)     -0.0041         0.022047   
     59. D(H  13,C   3,C   2,C   1)   -179.9983         0.022047   
     60. D(C   4,C   3,C   2,N  14)    179.9971         0.022047   
     61. D(C   4,C   3,C   2,C   1)      0.0028         0.022047   
     62. D(H  12,C   4,C   3,C   2)    179.9995         0.029936   
     63. D(C   5,C   4,C   3,H  13)    179.9983         0.029936   
     64. D(C   5,C   4,C   3,C   2)     -0.0029         0.029936   
     65. D(H  12,C   4,C   3,H  13)      0.0007         0.029936   
     66. D(C   6,C   5,C   4,H  12)      0.0010         0.020837   
     67. D(C   0,C   5,C   4,H  12)    179.9991         0.020837   
     68. D(C   0,C   5,C   4,C   3)      0.0016         0.020837   
     69. D(C   6,C   5,C   0,H  18)     -0.0014         0.020789   
     70. D(C   6,C   5,C   0,C   1)    179.9980         0.020789   
     71. D(C   6,C   5,C   4,C   3)   -179.9966         0.020837   
     72. D(C   4,C   5,C   0,H  18)   -179.9997         0.020789   
     73. D(C   4,C   5,C   0,C   1)     -0.0002         0.020789   
     74. D(C   8,C   6,C   5,C   4)     -0.0365         0.016956   
     75. D(C   8,C   6,C   5,C   0)    179.9653         0.016956   
     76. D(O   7,C   6,C   5,C   4)   -179.9654         0.016956   
     77. D(O   7,C   6,C   5,C   0)      0.0364         0.016956   
     78. D(H  10,C   8,C   6,C   5)   -179.9307         0.010769   
     79. D(H   9,C   8,C   6,O   7)   -119.9733         0.010769   
     80. D(H   9,C   8,C   6,C   5)     60.0947         0.010769   
     81. D(H  11,C   8,C   6,C   5)    -59.9438         0.010769   
     82. D(H  10,C   8,C   6,O   7)      0.0014         0.010769   
     83. D(O  16,N  14,C   2,C   3)   -179.9441         0.023004   
     84. D(O  16,N  14,C   2,C   1)      0.0500         0.023004   
     85. D(O  15,N  14,C   2,C   3)     -0.0543         0.023004   
     86. D(O  15,N  14,C   2,C   1)    179.9398         0.023004   
    -----------------------------------------------------------------

Number of atoms                         .... 19
Number of degrees of freedom            .... 86


         *************************************************************
         *                GEOMETRY OPTIMIZATION CYCLE   1            *
         *************************************************************
---------------------------------
CARTESIAN COORDINATES (ANGSTROEM)
---------------------------------
  C      0.683155   -1.230590   -0.001978
  C     -0.690970   -1.228208   -0.001108
  C     -1.398789    0.001926    0.000061
  C     -0.670883    1.216977    0.000347
  C      0.705990    1.197108   -0.000562
  C      1.438910   -0.023567   -0.001742
  C      2.888351   -0.095554   -0.002657
  O      3.511136   -1.161324   -0.004300
  C      3.672154    1.213122   -0.003194
  H      3.444904    1.828627    0.886586
  H      4.745640    0.967137   -0.005132
  H      3.441931    1.829944   -0.891284
  H      1.241303    2.152101   -0.000321
  H     -1.236349    2.150022    0.001280
  N     -2.799497    0.017383    0.001045
  O     -3.386603    1.115424    0.003204
  O     -3.410302   -1.066956    0.001827
  H     -1.272957   -2.151252   -0.001281
  H      1.243842   -2.169769   -0.002879

----------------------------
CARTESIAN COORDINATES (A.U.)
----------------------------
  NO LB      ZA    FRAG     MASS         X           Y           Z
   0 C     6.0000    0    12.011    1.290976   -2.325478   -0.003738
   1 C     6.0000    0    12.011   -1.305745   -2.320977   -0.002093
   2 C     6.0000    0    12.011   -2.643328    0.003639    0.000116
   3 C     6.0000    0    12.011   -1.267784    2.299753    0.000656
   4 C     6.0000    0    12.011    1.334128    2.262206   -0.001061
   5 C     6.0000    0    12.011    2.719145   -0.044535   -0.003291
   6 C     6.0000    0    12.011    5.458191   -0.180571   -0.005020
   7 O     8.0000    0    15.999    6.635085   -2.194585   -0.008126
   8 C     6.0000    0    12.011    6.939366    2.292469   -0.006035
   9 H     1.0000    0     1.008    6.509926    3.455605    1.675405
  10 H     1.0000    0     1.008    8.967961    1.827624   -0.009699
  11 H     1.0000    0     1.008    6.504308    3.458094   -1.684283
  12 H     1.0000    0     1.008    2.345722    4.066882   -0.000607
  13 H     1.0000    0     1.008   -2.336361    4.062953    0.002419
  14 N     7.0000    0    14.007   -5.290282    0.032848    0.001975
  15 O     8.0000    0    15.999   -6.399753    2.107845    0.006055
  16 O     8.0000    0    15.999   -6.444537   -2.016254    0.003453
  17 H     1.0000    0     1.008   -2.405540   -4.065277   -0.002421
  18 H     1.0000    0     1.008    2.350521   -4.100269   -0.005440

--------------------------------
INTERNAL COORDINATES (ANGSTROEM)
--------------------------------
 C      0   0   0     0.000000000000     0.00000000     0.00000000
 C      1   0   0     1.374127756581     0.00000000     0.00000000
 C      2   1   0     1.419238424646   120.01544925     0.00000000
 C      3   2   1     1.416403060537   119.15912163     0.00000000
 C      4   3   2     1.377016283383   120.09799016     0.00000000
 C      5   4   3     1.423804419422   121.80829781     0.00000000
 C      6   5   4     1.451227632862   123.82484402   180.00338643
 O      7   6   5     1.234394354891   123.14329696   180.03455730
 C      7   6   5     1.525445253997   118.07529914   359.96345317
 H      9   7   6     1.105530382686   111.82250681    60.09467441
 H      9   7   6     1.101310565201   108.01229342   180.06930978
 H      9   7   6     1.105520947620   111.83546531   300.05624229
 H      5   4   3     1.094793010772   118.44563577   179.99950274
 H      4   3   2     1.091020713475   117.85752956   180.00170241
 N      3   2   1     1.400793244711   120.54837622   180.00424217
 O     15   3   2     1.245147811860   118.76503596   179.93980919
 O     15   3   2     1.244537593466   118.76023956     0.05003636
 H      2   1   3     1.091200393847   122.13243828   180.00001821
 H      1   2   3     1.093813723731   120.93641034   179.99971413

---------------------------
INTERNAL COORDINATES (A.U.)
---------------------------
 C      0   0   0     0.000000000000     0.00000000     0.00000000
 C      1   0   0     2.596725132957     0.00000000     0.00000000
 C      2   1   0     2.681971941318   120.01544925     0.00000000
 C      3   2   1     2.676613879662   119.15912163     0.00000000
 C      4   3   2     2.602183657544   120.09799016     0.00000000
 C      5   4   3     2.690600420975   121.80829781     0.00000000
 C      6   5   4     2.742422784088   123.82484402   180.00338643
 O      7   6   5     2.332667272003   123.14329696   180.03455730
 C      7   6   5     2.882673762343   118.07529914   359.96345317
 H      9   7   6     2.089149656006   111.82250681    60.09467441
 H      9   7   6     2.081175356624   108.01229342   180.06930978
 H      9   7   6     2.089131826315   111.83546531   300.05624229
 H      5   4   3     2.068858963691   118.44563577   179.99950274
 H      4   3   2     2.061730354903   117.85752956   180.00170241
 N      3   2   1     2.647115602750   120.54837622   180.00424217
 O     15   3   2     2.352988360667   118.76503596   179.93980919
 O     15   3   2     2.351835215020   118.76023956     0.05003636
 H      2   1   3     2.062069901598   122.13243828   180.00001821
 H      1   2   3     2.067008379375   120.93641034   179.99971413

---------------------
BASIS SET INFORMATION
---------------------
There are 4 groups of distinct atoms

 Group   1 Type C   : 19s6p3d2f contracted to 5s4p3d2f pattern {88111/3111/111/11}
 Group   2 Type O   : 19s6p3d2f contracted to 5s4p3d2f pattern {88111/3111/111/11}
 Group   3 Type H   : 6s3p2d contracted to 4s3p2d pattern {3111/111/11}
 Group   4 Type N   : 19s6p3d2f contracted to 5s4p3d2f pattern {88111/3111/111/11}

Atom   0C    basis set group =>   1
Atom   1C    basis set group =>   1
Atom   2C    basis set group =>   1
Atom   3C    basis set group =>   1
Atom   4C    basis set group =>   1
Atom   5C    basis set group =>   1
Atom   6C    basis set group =>   1
Atom   7O    basis set group =>   2
Atom   8C    basis set group =>   1
Atom   9H    basis set group =>   3
Atom  10H    basis set group =>   3
Atom  11H    basis set group =>   3
Atom  12H    basis set group =>   3
Atom  13H    basis set group =>   3
Atom  14N    basis set group =>   4
Atom  15O    basis set group =>   2
Atom  16O    basis set group =>   2
Atom  17H    basis set group =>   3
Atom  18H    basis set group =>   3
---------------------------------
AUXILIARY/J BASIS SET INFORMATION
---------------------------------
There are 4 groups of distinct atoms

 Group   1 Type C   : 12s5p4d2f1g contracted to 6s4p3d1f1g pattern {711111/2111/211/2/1}
 Group   2 Type O   : 12s5p4d2f1g contracted to 6s4p3d1f1g pattern {711111/2111/211/2/1}
 Group   3 Type H   : 5s2p1d contracted to 3s1p1d pattern {311/2/1}
 Group   4 Type N   : 12s5p4d2f1g contracted to 6s4p3d1f1g pattern {711111/2111/211/2/1}

Atom   0C    basis set group =>   1
Atom   1C    basis set group =>   1
Atom   2C    basis set group =>   1
Atom   3C    basis set group =>   1
Atom   4C    basis set group =>   1
Atom   5C    basis set group =>   1
Atom   6C    basis set group =>   1
Atom   7O    basis set group =>   2
Atom   8C    basis set group =>   1
Atom   9H    basis set group =>   3
Atom  10H    basis set group =>   3
Atom  11H    basis set group =>   3
Atom  12H    basis set group =>   3
Atom  13H    basis set group =>   3
Atom  14N    basis set group =>   4
Atom  15O    basis set group =>   2
Atom  16O    basis set group =>   2
Atom  17H    basis set group =>   3
Atom  18H    basis set group =>   3


           ************************************************************
           *        Program running with 8 parallel MPI-processes     *
           *              working on a common directory               *
           ************************************************************
------------------------------------------------------------------------------
                             ORCA STARTUP CALCULATIONS
                           -- RI-GTO INTEGRALS CHOSEN --
------------------------------------------------------------------------------
------------------------------------------------------------------------------
                   ___                                                        
                  /   \      - P O W E R E D   B Y -                         
                 /     \                                                     
                 |  |  |   _    _      __       _____    __    __             
                 |  |  |  | |  | |    /  \     |  _  \  |  |  /  |          
                  \  \/   | |  | |   /    \    | | | |  |  | /  /          
                 / \  \   | |__| |  /  /\  \   | |_| |  |  |/  /          
                |  |  |   |  __  | /  /__\  \  |    /   |      \           
                |  |  |   | |  | | |   __   |  |    \   |  |\   \          
                \     /   | |  | | |  |  |  |  | |\  \  |  | \   \       
                 \___/    |_|  |_| |__|  |__|  |_| \__\ |__|  \__/        
                                                                              
                      - O R C A' S   B I G   F R I E N D -                    
                                      &                                       
                       - I N T E G R A L  F E E D E R -                       
                                                                              
 v1 FN, 2020, v2 2021, v3 2022-2024                                           
------------------------------------------------------------------------------


----------------------
SHARK INTEGRAL PACKAGE
----------------------

Number of atoms                             ...     19
Number of basis functions                   ...    785
Number of shells                            ...    303
Maximum angular momentum                    ...      3
Integral batch strategy                     ... SHARK/LIBINT Hybrid
RI-J (if used) integral strategy            ... SPLIT-RIJ (Revised 2003 algorithm where possible)
Printlevel                                  ...      1
Contraction scheme used                     ... PARTIAL GENERAL contraction
Prescreening option                         ... SCHWARTZ
   Thresh                                   ... 2.500e-11
   Tcut                                     ... 2.500e-12
   Tpresel                                  ... 2.500e-12 
Coulomb Range Separation                    ... NOT USED
Exchange Range Separation                   ... NOT USED
Multipole approximations                    ... NOT USED
Finite Nucleus Model                        ... NOT USED
CABS basis                                  ... NOT available
Auxiliary Coulomb fitting basis             ... AVAILABLE
   # of basis functions in Aux-J            ...    665
   # of shells in Aux-J                     ...    215
   Maximum angular momentum in Aux-J        ...      4
Auxiliary J/K fitting basis                 ... NOT available
Auxiliary Correlation fitting basis         ... NOT available
Auxiliary 'external' fitting basis          ... NOT available

Checking pre-screening integrals            ... done (  0.0 sec) Dimension = 303
Save PGC pre-screening integrals            ... done (  0.1 sec) Dimension = 303
Calculate PGC overlap integrals             ... done (  0.1 sec) Dimension = 231
Calculating pre-screening integrals (ORCA)  ... done (  0.3 sec) Dimension = 231
Check shell pair data                       ... done (  0.2 sec)
Shell pair information
Shell pair cut-off parameter TPreSel        ...   2.5e-12
Total number of shell pairs                 ...     46056
Shell pairs after pre-screening             ...     35749
Total number of primitive shell pairs       ...     58368
Primitive shell pairs kept                  ...     42180
          la=0 lb=0:   8007 shell pairs
          la=1 lb=0:   9037 shell pairs
          la=1 lb=1:   2226 shell pairs
          la=2 lb=0:   6327 shell pairs
          la=2 lb=1:   3118 shell pairs
          la=2 lb=2:   1135 shell pairs
          la=3 lb=0:   3060 shell pairs
          la=3 lb=1:   1499 shell pairs
          la=3 lb=2:   1071 shell pairs
          la=3 lb=3:    269 shell pairs

Calculating one electron integrals          ... done (  0.1 sec)
Calculating RI/J V-Matrix + Cholesky decomp.... done (  0.1 sec)
Calculating Nuclear repulsion               ... done (  0.0 sec) ENN=    646.601783340865 Eh

Diagonalization of the overlap matrix:
Smallest eigenvalue                        ... 4.335e-07
Time for diagonalization                   ...    0.168 sec
Threshold for overlap eigenvalues          ... 1.000e-07
Number of eigenvalues below threshold      ... 0

IMPORTANT:
Smallest eigenvalue of S below the DiffSThresh (1.000e-06) while
Thresh>1e-12 and/or TCut>1e-13! In order to avoid SCF convergence issues,
Thresh will be set to at least 1e-12 and TCut to at least 1e-13.
This can be turned off by adding %SCF DiffSThresh -1 END to the input.

Time for construction of square roots      ...    0.132 sec
Total time needed                          ...    0.342 sec

-------------------
DFT GRID GENERATION
-------------------

General Integration Accuracy     IntAcc      ... 4.388
Radial Grid Type                 RadialGrid  ... OptM3 with GC (2021)
Angular Grid (max. ang.)         AngularGrid ... 4 (Lebedev-302)
Angular grid pruning method      GridPruning ... 4 (adaptive)
Weight generation scheme         WeightScheme... mBecke (2022)
Basis function cutoff            BFCut       ... 1.0000e-11
Integration weight cutoff        WCut        ... 1.0000e-14
Partially contracted basis set               ... off
Rotationally invariant grid construction     ... off
Angular grids for H and He will be reduced by one unit
Diffuse basis detected: some atoms will have their outermost
                        angular grid increased by 1.

Total number of grid points                  ...    99205
Total number of batches                      ...     1558
Average number of points per batch           ...       63
Average number of grid points per atom       ...     5221

---------------------
SHARK GRID GENERATION
---------------------

General Integration Accuracy     IntAcc      ... 4.388
Radial Grid Type                 RadialGrid  ... OptM3 with GC (2021)
Angular Grid (max. ang.)         AngularGrid ... 4 (Lebedev-302)
Angular grid pruning method      GridPruning ... 4 (adaptive)
Weight generation scheme         WeightScheme... mBecke (2022)
Basis function cutoff            BFCut       ... 1.0000e-11
Integration weight cutoff        WCut        ... 1.0000e-14
Partially contracted basis set               ... off
Rotationally invariant grid construction     ... off
Angular grids for H and He will be reduced by one unit
Diffuse basis detected: some atoms will have their outermost
                        angular grid increased by 1.
Steep s-basis detected: some atoms will have their radial
                        grid points doubled.

Total number of grid points                  ...   175211
Total number of batches                      ...     2747
Average number of points per batch           ...       63
Average number of grid points per atom       ...     9222

--------------------
COSX GRID GENERATION
--------------------

GRIDX 1
-------
General Integration Accuracy     IntAcc      ... 3.816
Radial Grid Type                 RadialGrid  ... OptM3 with GC (2021)
Angular Grid (max. ang.)         AngularGrid ... 1 (Lebedev-50)
Angular grid pruning method      GridPruning ... 4 (adaptive)
Weight generation scheme         WeightScheme... mBecke (2022)
Basis function cutoff            BFCut       ... 1.0000e-11
Integration weight cutoff        WCut        ... 1.0000e-14
Partially contracted basis set               ... on
Rotationally invariant grid construction     ... off
Angular grids for H and He will be reduced by one unit
Diffuse basis detected: some atoms will have their outermost
                        angular grid increased by 1.

Total number of grid points                  ...    12489
Total number of batches                      ...      105
Average number of points per batch           ...      118
Average number of grid points per atom       ...      657
UseSFitting                                  ... on

GRIDX 2
-------
General Integration Accuracy     IntAcc      ... 4.020
Radial Grid Type                 RadialGrid  ... OptM3 with GC (2021)
Angular Grid (max. ang.)         AngularGrid ... 2 (Lebedev-110)
Angular grid pruning method      GridPruning ... 4 (adaptive)
Weight generation scheme         WeightScheme... mBecke (2022)
Basis function cutoff            BFCut       ... 1.0000e-11
Integration weight cutoff        WCut        ... 1.0000e-14
Partially contracted basis set               ... on
Rotationally invariant grid construction     ... off
Angular grids for H and He will be reduced by one unit
Diffuse basis detected: some atoms will have their outermost
                        angular grid increased by 1.

Total number of grid points                  ...    31048
Total number of batches                      ...      252
Average number of points per batch           ...      123
Average number of grid points per atom       ...     1634
UseSFitting                                  ... on

GRIDX 3
-------
General Integration Accuracy     IntAcc      ... 4.338
Radial Grid Type                 RadialGrid  ... OptM3 with GC (2021)
Angular Grid (max. ang.)         AngularGrid ... 3 (Lebedev-194)
Angular grid pruning method      GridPruning ... 4 (adaptive)
Weight generation scheme         WeightScheme... mBecke (2022)
Basis function cutoff            BFCut       ... 1.0000e-11
Integration weight cutoff        WCut        ... 1.0000e-14
Partially contracted basis set               ... on
Rotationally invariant grid construction     ... off
Angular grids for H and He will be reduced by one unit
Diffuse basis detected: some atoms will have their outermost
                        angular grid increased by 1.

Total number of grid points                  ...    68468
Total number of batches                      ...      543
Average number of points per batch           ...      126
Average number of grid points per atom       ...     3604
UseSFitting                                  ... on
Initializing property integral containers    ... done (  0.1 sec)

SHARK setup successfully completed in  10.2 seconds

Maximum memory used throughout the entire STARTUP-calculation: 79.8 MB


           ************************************************************
           *        Program running with 8 parallel MPI-processes     *
           *              working on a common directory               *
           ************************************************************
-------------------------------------------------------------------------------
                                 ORCA GUESS
                   Start orbitals & Density for SCF / CASSCF
-------------------------------------------------------------------------------

------------
SCF SETTINGS
------------
Hamiltonian:
 Density Functional     Method          .... DFT(GTOs)
 Exchange Functional    Exchange        .... PBE
   PBE kappa parameter   XKappa         ....  0.804000
   PBE mue parameter    XMuePBE         ....  0.219520
 Correlation Functional Correlation     .... PBE
   PBE beta parameter  CBetaPBE         ....  0.066725
 LDA part of GGA corr.  LDAOpt          .... PW91-LDA
 Gradients option       PostSCFGGA      .... off
 Hybrid DFT is turned on
   Fraction HF Exchange ScalHFX         ....  0.250000
   Scaling of DF-GGA-X  ScalDFX         ....  0.750000
   Scaling of DF-GGA-C  ScalDFC         ....  1.000000
   Scaling of DF-LDA-C  ScalLDAC        ....  1.000000
   Perturbative correction              ....  0.000000
   NL short-range parameter             ....  6.900000
 RI-approximation to the Coulomb term is turned on
   Number of AuxJ basis functions       .... 665
   RIJ-COSX (HFX calculated with COS-X)).... on


General Settings:
 Integral files         IntName         .... cs_rporg_150_red_opt_04
 Hartree-Fock type      HFTyp           .... UHF
 Total Charge           Charge          ....   -1
 Multiplicity           Mult            ....    2
 Number of Electrons    NEL             ....   87
 Basis Dimension        Dim             ....  713
 Nuclear Repulsion      ENuc            ....    646.6017833409 Eh

Convergence Acceleration:
 AO-DIIS                CNVDIIS         .... on
   Start iteration      DIISMaxIt       ....     0
   Startup error        DIISStart       ....  0.200000
   # of expansion vecs  DIISMaxEq       ....     5
   Bias factor          DIISBfac        ....   1.050
   Max. coefficient     DIISMaxC        ....  10.000
 MO-DIIS                CNVKDIIS        .... off
 Trust-Rad. Augm. Hess. CNVTRAH         .... auto
   Auto Start mean grad. ratio tolernc. ....  1.125000
   Auto Start start iteration           ....    50
   Auto Start num. interpolation iter.  ....    10
   Max. Number of Micro iterations      ....    24
   Max. Number of Macro iterations      .... Maxiter - #DIIS iter
   Number of Davidson start vectors     ....     2
   Converg. threshold    (grad. norm)   ....   1.000e-05
   Grad. Scal. Fac. for Micro threshold ....   0.100
   Minimum threshold for Micro iter.    ....   1.000e-02
   NR start threshold (gradient norm)   ....   1.000e-04
   Initial trust radius                 ....   0.400
   Minimum AH scaling param. (alpha)    ....   1.000
   Maximum AH scaling param. (alpha)    .... 1000.000
   Quad. conv. algorithm                .... NR
   White noise on init. David. guess    .... on
   Maximum white noise                  ....   0.010
   Pseudo random numbers                .... off
   Inactive MOs                         .... canonical
   Orbital update algorithm             .... Taylor
   Preconditioner                       .... Diag
   Full preconditioner red. dimension   ....   250
 SOSCF                  CNVSOSCF        .... on
   Start iteration      SOSCFMaxIt      ....   150
   Startup grad/error   SOSCFStart      ....  0.001000
   Hessian update       SOSCFHessUp     .... L-BFGS
 Level Shifting         CNVShift        .... on
   Level shift para.    LevelShift      ....    0.2500
   Turn off err/grad.   ShiftErr        ....    0.0000
 Zerner damping         CNVZerner       .... off
 Static damping         CNVDamp         .... on
   Fraction old density DampFac         ....    0.8500
   Max. Damping (<1)    DampMax         ....    0.9800
   Min. Damping (>=0)   DampMin         ....    0.0000
   Turn off err/grad.   DampErr         ....    0.0300

SCF Procedure:
 Maximum # iterations   MaxIter         ....  1500
 SCF integral mode      SCFMode         .... Direct
   Integral package                     .... SHARK and LIBINT hybrid scheme
 Reset frequency        DirectResetFreq ....    20
 Integral Threshold     Thresh          ....  1.000e-12 Eh
 Primitive CutOff       TCut            ....  1.000e-13 Eh

Convergence Tolerance:
 Convergence Check Mode ConvCheckMode   .... Total+1el-Energy
 Convergence forced     ConvForced      .... 0
 Energy Change          TolE            ....  1.000e-08 Eh
 1-El. energy change                    ....  1.000e-05 Eh
 Orbital Gradient       TolG            ....  1.000e-05
 Orbital Rotation angle TolX            ....  1.000e-05
 DIIS Error             TolErr          ....  5.000e-07

------------------------------
INITIAL GUESS: MODEL POTENTIAL
------------------------------
Loading Hartree-Fock densities                     ... done
Calculating cut-offs                               ... done
Initializing the effective Hamiltonian             ... done
Setting up the integral package (SHARK)            ... done
Starting the Coulomb interaction                   ... done (   0.6 sec)
Making the grid                                    ... done (   0.4 sec)
Mapping shells                                     ... done
Starting the XC term evaluation                    ... done (   0.5 sec)
  promolecular density results
     # of electrons  =     86.002703332
     EX              =    -73.919680072
     EC              =     -2.891372484
     EX+EC           =    -76.811052556
Transforming the Hamiltonian                       ... done (   0.1 sec)
Diagonalizing the Hamiltonian                      ... done (   0.2 sec)
Back transforming the eigenvectors                 ... done (   0.1 sec)
Now organizing SCF variables                       ... done
                      ------------------
                      INITIAL GUESS DONE (   2.9 sec)
                      ------------------
             **** ENERGY FILE WAS UPDATED (cs_rporg_150_red_opt_04.en.tmp) ****
Finished Guess after   4.2 sec
Maximum memory used throughout the entire GUESS-calculation: 58.1 MB


           ************************************************************
           *        Program running with 8 parallel MPI-processes     *
           *              working on a common directory               *
           ************************************************************

-------------------------------------------------------------------------------------------
                                      ORCA LEAN-SCF
                              memory conserving SCF solver
-------------------------------------------------------------------------------------------

--------------------
CPCM SOLVATION MODEL
--------------------
CPCM parameters:
  Epsilon                                         ...      35.6880
  Refrac                                          ...       1.3442
  Rsolv                                           ...       2.1900
  Surface type                                    ...    GEPOL SES
  Discretization scheme                           ... Constant num. charges
  Epsilon function type                           ...         CPCM
Solvent:                                          ... ACETONITRILE
SMD-CDS solvent descriptors:
  Soln                                            ...       1.3442
  Soln25                                          ...       1.3416
  Sola                                            ...       0.0700
  Solb                                            ...       0.3200
  Solg                                            ...      41.2500
  Solc                                            ...       0.0000
  Solh                                            ...       0.0000
Radii:
  Scheme                                          ... Element-dependent radii
  Radius for C  used is    3.4960 Bohr (=   1.8500 Ang.)
  Radius for O  used is    4.0969 Bohr (=   2.1680 Ang.)
  Radius for H  used is    2.2677 Bohr (=   1.2000 Ang.)
  Radius for N  used is    3.5716 Bohr (=   1.8900 Ang.)
Calculating surface                               ...        done! (  0.1s)
Cavity surface points                             ...          597
Cavity Volume                                     ...    1407.6898
Cavity Surface-area                               ...     753.0003
Calculating surface distance matrix               ...        done! (  0.0s)
Performing Cholesky decomposition & store         ...        done! (  0.0s)
Overall time for CPCM initialization              ...                 0.1s

----------------------------------------D-I-I-S--------------------------------------------
Iteration    Energy (Eh)           Delta-E    RMSDP     MaxDP     DIISErr   Damp  Time(sec)
-------------------------------------------------------------------------------------------
               ***  Starting incremental Fock matrix formation  ***
    1    -588.7213234407495293     0.00e+00  1.07e-03  8.92e-02  1.54e-01  0.850  22.4
Warning: op=0 Small HOMO/LUMO gap (   0.083) - skipping pre-diagonalization
         Will do a full diagonalization
    2    -588.8205846835087414    -9.93e-02  1.22e-03  1.11e-01  1.10e-01  0.850  17.1
                               ***Turning on AO-DIIS***
    3    -588.8830042976883306    -6.24e-02  6.69e-04  4.59e-02  6.93e-02  0.850  15.5
    4    -588.9223750227145047    -3.94e-02  4.65e-04  2.88e-02  5.59e-02  0.850  14.6
    5    -588.9509510637310541    -2.86e-02  3.72e-04  2.38e-02  4.83e-02  0.850  15.3
    6    -588.9737850843341675    -2.28e-02  3.18e-04  1.98e-02  4.18e-02  0.850  14.1
    7    -588.9927376783455202    -1.90e-02  2.75e-04  1.77e-02  3.52e-02  0.850  14.3
    8    -589.0084814957028811    -1.57e-02  2.34e-04  1.52e-02  2.88e-02  0.850  13.3
    9    -589.0213674725796409    -1.29e-02  1.34e-03  9.04e-02  2.40e-02  0.000  13.5
   10    -589.0883044592760598    -6.69e-02  7.14e-05  7.60e-03  1.85e-03  0.000  13.8
   11    -589.0883776489895354    -7.32e-05  2.10e-05  2.31e-03  1.89e-03  0.000  13.5
                              *** Initializing SOSCF ***
---------------------------------------S-O-S-C-F--------------------------------------
Iteration    Energy (Eh)           Delta-E    RMSDP     MaxDP     MaxGrad    Time(sec)
--------------------------------------------------------------------------------------
   12    -589.0884248574704998    -4.72e-05  3.61e-05  4.26e-03  4.91e-04    13.5
               *** Restarting incremental Fock matrix formation ***
   13    -589.0884472401503444    -2.24e-05  2.99e-04  1.39e-02  1.11e-03    21.8
   14    -589.0884719739267439    -2.47e-05  3.59e-04  2.25e-02  4.44e-04    19.0
   15    -589.0884800175135751    -8.04e-06  2.91e-04  1.33e-02  3.86e-04    19.2
   16    -589.0884877124442482    -7.69e-06  6.41e-05  3.00e-03  1.00e-04    18.9
   17    -589.0884878297424621    -1.17e-07  3.56e-05  1.71e-03  1.27e-04    18.2
   18    -589.0884884609324672    -6.31e-07  8.79e-06  4.12e-04  3.45e-05    17.9
   19    -589.0884884761621834    -1.52e-08  5.05e-06  2.42e-04  3.26e-05    17.1
   20    -589.0884885354100788    -5.92e-08  2.62e-06  1.69e-04  1.05e-05    16.9
   21    -589.0884885406564990    -5.25e-09  8.82e-07  4.68e-05  1.10e-05    17.1
                 **** Energy Check signals convergence ****

               *****************************************************
               *                     SUCCESS                       *
               *           SCF CONVERGED AFTER  21 CYCLES          *
               *****************************************************

Recomputing exchange energy using gridx3       ... done (   27.612 sec)
Old exchange energy                            :    -18.831402437 Eh
New exchange energy                            :    -18.831421374 Eh
Exchange energy change after final integration :     -0.000018937 Eh
Total energy after final integration           :   -589.088507478 Eh

SMD CDS free energy correction energy :                -1.77463     Kcal/mol
Total Energy after SMD CDS correction =              -589.091335525 Eh
             **** ENERGY FILE WAS UPDATED (cs_rporg_150_red_opt_04.en.tmp) ****

----------------
TOTAL SCF ENERGY
----------------

Total Energy       :       -589.09133552536605 Eh          -16029.99019 eV

Components:
Nuclear Repulsion  :        646.60178334086550 Eh           17594.92903 eV
Electronic Energy  :      -1235.61175754187207 Eh          -33622.70527 eV
One Electron Energy:      -2098.61362328558516 Eh          -57106.17991 eV
Two Electron Energy:        863.00186574371310 Eh           23483.47464 eV
CPCM Dielectric    :         -0.07851433965004 Eh              -2.13648 eV
SMD CDS (Gcds)     :         -0.00282804773402 Eh              -0.07696 eV

Virial components:
Potential Energy   :      -1174.69488300586636 Eh          -31965.07284 eV
Kinetic Energy     :        585.60354748050031 Eh           15935.08265 eV
Virial Ratio       :          2.00595588612786

DFT components:
N(Alpha)           :       44.000040707921 electrons
N(Beta)            :       43.000048409571 electrons
N(Total)           :       87.000089117491 electrons
E(X)               :      -56.465978013322 Eh       
E(C)               :       -2.930857869932 Eh       
E(XC)              :      -59.396835883254 Eh       

CPCM Solvation Model Properties:
Surface-charge          :          0.96814577004477
Corrected charge        :          1.00000000000000
Outlying charge corr.   :          0.00006457488955 Eh               0.00176 eV
Free-energy (cav+disp)  :         -0.00282804773402 Eh              -0.07696 eV

---------------
SCF CONVERGENCE
---------------

  Last Energy change         ...    5.2464e-09  Tolerance :   1.0000e-08
  Last MAX-Density change    ...    4.6798e-05  Tolerance :   1.0000e-07
  Last RMS-Density change    ...    8.8174e-07  Tolerance :   5.0000e-09
  Last DIIS Error            ...    4.9076e-04  Tolerance :   5.0000e-07
  Last Orbital Gradient      ...    1.1021e-05  Tolerance :   1.0000e-05
  Last Orbital Rotation      ...    3.4398e-05  Tolerance :   1.0000e-05


----------------------
UHF SPIN CONTAMINATION
----------------------

Warning: in a DFT calculation there is little theoretical justification to 
         calculate <S**2> as in Hartree-Fock theory. We will do it anyways
         but you should keep in mind that the values have only limited relevance

Expectation value of <S**2>     :     0.763103
Ideal value S*(S+1) for S=0.5   :     0.750000
Deviation                       :     0.013103

----------------
ORBITAL ENERGIES
----------------
                 SPIN UP ORBITALS
  NO   OCC          E(Eh)            E(eV) 
   0   1.0000     -19.179420      -521.8986 
   1   1.0000     -19.179297      -521.8952 
   2   1.0000     -19.173793      -521.7454 
   3   1.0000     -14.549166      -395.9029 
   4   1.0000     -10.291887      -280.0565 
   5   1.0000     -10.255087      -279.0551 
   6   1.0000     -10.228473      -278.3309 
   7   1.0000     -10.224372      -278.2193 
   8   1.0000     -10.223040      -278.1831 
   9   1.0000     -10.222868      -278.1784 
  10   1.0000     -10.222053      -278.1562 
  11   1.0000     -10.208830      -277.7964 
  12   1.0000      -1.197163       -32.5765 
  13   1.0000      -1.044562       -28.4240 
  14   1.0000      -1.018829       -27.7238 
  15   1.0000      -0.883633       -24.0449 
  16   1.0000      -0.812480       -22.1087 
  17   1.0000      -0.767656       -20.8890 
  18   1.0000      -0.747926       -20.3521 
  19   1.0000      -0.700710       -19.0673 
  20   1.0000      -0.614400       -16.7187 
  21   1.0000      -0.602305       -16.3896 
  22   1.0000      -0.555881       -15.1263 
  23   1.0000      -0.532727       -14.4962 
  24   1.0000      -0.512806       -13.9542 
  25   1.0000      -0.494035       -13.4434 
  26   1.0000      -0.479664       -13.0523 
  27   1.0000      -0.457895       -12.4599 
  28   1.0000      -0.445572       -12.1246 
  29   1.0000      -0.440752       -11.9935 
  30   1.0000      -0.426279       -11.5997 
  31   1.0000      -0.411639       -11.2013 
  32   1.0000      -0.404299       -11.0015 
  33   1.0000      -0.381003       -10.3676 
  34   1.0000      -0.374032       -10.1779 
  35   1.0000      -0.355735        -9.6801 
  36   1.0000      -0.336061        -9.1447 
  37   1.0000      -0.298694        -8.1279 
  38   1.0000      -0.287529        -7.8241 
  39   1.0000      -0.271931        -7.3996 
  40   1.0000      -0.269107        -7.3228 
  41   1.0000      -0.260420        -7.0864 
  42   1.0000      -0.252717        -6.8768 
  43   1.0000      -0.142179        -3.8689 
  44   0.0000      -0.033139        -0.9018 
  45   0.0000      -0.001850        -0.0503 
  46   0.0000       0.002496         0.0679 
  47   0.0000       0.015294         0.4162 
  48   0.0000       0.019306         0.5253 
  49   0.0000       0.030786         0.8377 
  50   0.0000       0.034421         0.9366 
  51   0.0000       0.036846         1.0026 
  52   0.0000       0.045859         1.2479 
  53   0.0000       0.054154         1.4736 
  54   0.0000       0.060642         1.6501 

                 SPIN DOWN ORBITALS
  NO   OCC          E(Eh)            E(eV) 
   0   1.0000     -19.174828      -521.7736 
   1   1.0000     -19.174779      -521.7723 
   2   1.0000     -19.170941      -521.6678 
   3   1.0000     -14.544249      -395.7691 
   4   1.0000     -10.291393      -280.0430 
   5   1.0000     -10.254022      -279.0261 
   6   1.0000     -10.228957      -278.3441 
   7   1.0000     -10.224730      -278.2291 
   8   1.0000     -10.221848      -278.1506 
   9   1.0000     -10.221492      -278.1409 
  10   1.0000     -10.219356      -278.0828 
  11   1.0000     -10.208891      -277.7981 
  12   1.0000      -1.187854       -32.3231 
  13   1.0000      -1.039451       -28.2849 
  14   1.0000      -1.010069       -27.4854 
  15   1.0000      -0.879964       -23.9450 
  16   1.0000      -0.805084       -21.9074 
  17   1.0000      -0.764885       -20.8136 
  18   1.0000      -0.743906       -20.2427 
  19   1.0000      -0.693824       -18.8799 
  20   1.0000      -0.613635       -16.6979 
  21   1.0000      -0.597195       -16.2505 
  22   1.0000      -0.553756       -15.0685 
  23   1.0000      -0.526849       -14.3363 
  24   1.0000      -0.489276       -13.3139 
  25   1.0000      -0.484173       -13.1750 
  26   1.0000      -0.477346       -12.9892 
  27   1.0000      -0.454778       -12.3751 
  28   1.0000      -0.444312       -12.0903 
  29   1.0000      -0.434130       -11.8133 
  30   1.0000      -0.425619       -11.5817 
  31   1.0000      -0.410023       -11.1573 
  32   1.0000      -0.403225       -10.9723 
  33   1.0000      -0.373657       -10.1677 
  34   1.0000      -0.372938       -10.1482 
  35   1.0000      -0.344145        -9.3646 
  36   1.0000      -0.335384        -9.1263 
  37   1.0000      -0.283139        -7.7046 
  38   1.0000      -0.268999        -7.3198 
  39   1.0000      -0.257941        -7.0189 
  40   1.0000      -0.256194        -6.9714 
  41   1.0000      -0.251131        -6.8336 
  42   1.0000      -0.249956        -6.8016 
  43   0.0000      -0.066991        -1.8229 
  44   0.0000      -0.002430        -0.0661 
  45   0.0000       0.000603         0.0164 
  46   0.0000       0.003805         0.1035 
  47   0.0000       0.016500         0.4490 
  48   0.0000       0.020604         0.5607 
  49   0.0000       0.032160         0.8751 
  50   0.0000       0.035451         0.9647 
  51   0.0000       0.037842         1.0297 
  52   0.0000       0.046842         1.2746 
  53   0.0000       0.060377         1.6429 
*Only the first 10 virtual orbitals were printed.

                    ********************************
                    * MULLIKEN POPULATION ANALYSIS *
                    ********************************

--------------------------------------------
MULLIKEN ATOMIC CHARGES AND SPIN POPULATIONS
--------------------------------------------
   0 C :   -0.924079   -0.014420
   1 C :   -0.505394    0.093756
   2 C :    0.353842    0.053163
   3 C :   -0.734781    0.104311
   4 C :   -0.564690   -0.011240
   5 C :    1.106199    0.171106
   6 C :    0.615214    0.025081
   7 O :   -0.966091    0.105141
   8 C :   -0.677193   -0.004542
   9 H :    0.286722    0.002799
  10 H :    0.179850   -0.001158
  11 H :    0.286313    0.002825
  12 H :    0.202233   -0.002401
  13 H :    0.558030   -0.004823
  14 N :    0.651862    0.134644
  15 O :   -0.836061    0.176327
  16 O :   -0.835531    0.178923
  17 H :    0.609085   -0.006623
  18 H :    0.194471   -0.002870
Sum of atomic charges         :   -1.0000000
Sum of atomic spin populations:    1.0000000

-----------------------------------------------------
MULLIKEN REDUCED ORBITAL CHARGES AND SPIN POPULATIONS
-----------------------------------------------------
CHARGE
  0 C s       :     4.023691  s :     4.023691
      pz      :     0.951611  p :     2.728384
      px      :     0.753157
      py      :     1.023615
      dz2     :    -0.018991  d :     0.185568
      dxz     :     0.017885
      dyz     :     0.016089
      dx2y2   :     0.001618
      dxy     :     0.168968
      f0      :     0.001151  f :    -0.013564
      f+1     :    -0.000975
      f-1     :     0.000253
      f+2     :     0.000721
      f-2     :    -0.000769
      f+3     :     0.001500
      f-3     :    -0.015445

  1 C s       :     3.702582  s :     3.702582
      pz      :     0.972509  p :     2.619610
      px      :     0.637845
      py      :     1.009256
      dz2     :     0.010053  d :     0.203493
      dxz     :     0.025824
      dyz     :     0.018305
      dx2y2   :     0.048132
      dxy     :     0.101179
      f0      :     0.001066  f :    -0.020290
      f+1     :     0.001025
      f-1     :     0.000635
      f+2     :     0.001774
      f-2     :    -0.001295
      f+3     :     0.000166
      f-3     :    -0.023661

  2 C s       :     3.210908  s :     3.210908
      pz      :     0.992774  p :     2.675695
      px      :     0.472209
      py      :     1.210712
      dz2     :    -0.022449  d :    -0.172888
      dxz     :     0.027100
      dyz     :     0.045434
      dx2y2   :    -0.107830
      dxy     :    -0.115141
      f0      :     0.002550  f :    -0.067557
      f+1     :    -0.002351
      f-1     :     0.000868
      f+2     :     0.003211
      f-2     :    -0.000805
      f+3     :    -0.002160
      f-3     :    -0.068871

  3 C s       :     3.917079  s :     3.917079
      pz      :     0.966586  p :     2.628123
      px      :     0.696632
      py      :     0.964904
      dz2     :     0.014866  d :     0.210817
      dxz     :     0.019860
      dyz     :     0.014262
      dx2y2   :     0.056091
      dxy     :     0.105738
      f0      :     0.000958  f :    -0.021238
      f+1     :     0.000558
      f-1     :     0.000362
      f+2     :     0.001693
      f-2     :    -0.001393
      f+3     :     0.000931
      f-3     :    -0.024349

  4 C s       :     3.791072  s :     3.791072
      pz      :     0.995424  p :     2.630365
      px      :     0.649438
      py      :     0.985503
      dz2     :    -0.026682  d :     0.158671
      dxz     :     0.013137
      dyz     :     0.022986
      dx2y2   :    -0.089978
      dxy     :     0.239208
      f0      :     0.001693  f :    -0.015419
      f+1     :     0.000557
      f-1     :     0.000307
      f+2     :     0.000502
      f-2     :    -0.000741
      f+3     :     0.001715
      f-3     :    -0.019452

  5 C s       :     2.712906  s :     2.712906
      pz      :     1.026426  p :     2.112009
      px      :     0.379258
      py      :     0.706326
      dz2     :    -0.019913  d :     0.166817
      dxz     :     0.005678
      dyz     :     0.000632
      dx2y2   :     0.088042
      dxy     :     0.092379
      f0      :     0.000914  f :    -0.097932
      f+1     :    -0.005143
      f-1     :    -0.000605
      f+2     :     0.000039
      f-2     :    -0.003196
      f+3     :    -0.011463
      f-3     :    -0.078478

  6 C s       :     3.362231  s :     3.362231
      pz      :     0.671383  p :     1.951736
      px      :     0.668845
      py      :     0.611508
      dz2     :     0.008616  d :     0.088162
      dxz     :     0.016791
      dyz     :     0.036878
      dx2y2   :     0.074370
      dxy     :    -0.048493
      f0      :     0.000755  f :    -0.017343
      f+1     :    -0.000090
      f-1     :     0.000683
      f+2     :     0.005280
      f-2     :     0.004185
      f+3     :    -0.005418
      f-3     :    -0.022739

  7 O s       :     4.137210  s :     4.137210
      pz      :     1.453544  p :     4.772776
      px      :     1.794927
      py      :     1.524305
      dz2     :     0.001938  d :     0.050720
      dxz     :     0.007717
      dyz     :     0.014507
      dx2y2   :     0.015086
      dxy     :     0.011472
      f0      :     0.000666  f :     0.005385
      f+1     :     0.000197
      f-1     :    -0.000010
      f+2     :     0.000296
      f-2     :     0.001132
      f+3     :     0.000584
      f-3     :     0.002521

  8 C s       :     3.407446  s :     3.407446
      pz      :     1.133116  p :     3.177280
      px      :     1.036326
      py      :     1.007838
      dz2     :     0.008816  d :     0.082988
      dxz     :     0.010261
      dyz     :     0.031870
      dx2y2   :     0.020169
      dxy     :     0.011872
      f0      :     0.000350  f :     0.009478
      f+1     :    -0.000396
      f-1     :    -0.000361
      f+2     :     0.000908
      f-2     :     0.001925
      f+3     :     0.004704
      f-3     :     0.002350

  9 H s       :     0.670530  s :     0.670530
      pz      :     0.010904  p :     0.035202
      px      :     0.007488
      py      :     0.016810
      dz2     :     0.002339  d :     0.007546
      dxz     :     0.001666
      dyz     :     0.000088
      dx2y2   :     0.002341
      dxy     :     0.001112

 10 H s       :     0.785067  s :     0.785067
      pz      :     0.011340  p :     0.028333
      px      :     0.009721
      py      :     0.007272
      dz2     :    -0.000265  d :     0.006750
      dxz     :     0.002504
      dyz     :     0.000961
      dx2y2   :     0.001683
      dxy     :     0.001867

 11 H s       :     0.671016  s :     0.671016
      pz      :     0.010856  p :     0.035108
      px      :     0.007492
      py      :     0.016760
      dz2     :     0.002372  d :     0.007562
      dxz     :     0.001628
      dyz     :     0.000083
      dx2y2   :     0.002369
      dxy     :     0.001110

 12 H s       :     0.749735  s :     0.749735
      pz      :     0.023650  p :     0.037683
      px      :    -0.002632
      py      :     0.016664
      dz2     :     0.000052  d :     0.010349
      dxz     :     0.001227
      dyz     :     0.003104
      dx2y2   :     0.004735
      dxy     :     0.001231

 13 H s       :     0.449088  s :     0.449088
      pz      :     0.018127  p :    -0.008698
      px      :    -0.014740
      py      :    -0.012085
      dz2     :    -0.000896  d :     0.001580
      dxz     :     0.000952
      dyz     :     0.003169
      dx2y2   :    -0.000581
      dxy     :    -0.001064

 14 N s       :     3.368678  s :     3.368678
      pz      :     1.193490  p :     2.890896
      px      :     0.855051
      py      :     0.842355
      dz2     :    -0.023302  d :     0.077582
      dxz     :     0.056893
      dyz     :     0.038223
      dx2y2   :     0.051161
      dxy     :    -0.045392
      f0      :     0.002135  f :     0.010982
      f+1     :     0.000918
      f-1     :     0.000752
      f+2     :     0.006331
      f-2     :     0.003498
      f+3     :    -0.003222
      f-3     :     0.000571

 15 O s       :     4.056206  s :     4.056206
      pz      :     1.619697  p :     4.719111
      px      :     1.776748
      py      :     1.322667
      dz2     :     0.004828  d :     0.053137
      dxz     :     0.006280
      dyz     :     0.016290
      dx2y2   :     0.013711
      dxy     :     0.012027
      f0      :     0.001018  f :     0.007607
      f+1     :     0.000343
      f-1     :     0.000332
      f+2     :     0.000579
      f-2     :     0.001281
      f+3     :     0.001950
      f-3     :     0.002104

 16 O s       :     4.055724  s :     4.055724
      pz      :     1.617979  p :     4.718599
      px      :     1.760837
      py      :     1.339783
      dz2     :     0.004862  d :     0.053570
      dxz     :     0.006627
      dyz     :     0.015956
      dx2y2   :     0.013988
      dxy     :     0.012137
      f0      :     0.001020  f :     0.007639
      f+1     :     0.000356
      f-1     :     0.000324
      f+2     :     0.000530
      f-2     :     0.001333
      f+3     :     0.001962
      f-3     :     0.002113

 17 H s       :     0.403872  s :     0.403872
      pz      :     0.016276  p :    -0.014374
      px      :    -0.012188
      py      :    -0.018461
      dz2     :    -0.001050  d :     0.001417
      dxz     :     0.001018
      dyz     :     0.003059
      dx2y2   :    -0.000020
      dxy     :    -0.001590

 18 H s       :     0.772955  s :     0.772955
      pz      :     0.021709  p :     0.027404
      px      :    -0.013255
      py      :     0.018949
      dz2     :    -0.000403  d :     0.005170
      dxz     :     0.001184
      dyz     :     0.003079
      dx2y2   :     0.001716
      dxy     :    -0.000406


SPIN
  0 C s       :     0.004890  s :     0.004890
      pz      :    -0.014600  p :    -0.018517
      px      :    -0.001224
      py      :    -0.002692
      dz2     :     0.000666  d :    -0.001239
      dxz     :     0.004286
      dyz     :     0.002420
      dx2y2   :    -0.002949
      dxy     :    -0.005662
      f0      :     0.000131  f :     0.000446
      f+1     :     0.000150
      f-1     :    -0.000066
      f+2     :    -0.000019
      f-2     :    -0.000103
      f+3     :     0.000730
      f-3     :    -0.000378

  1 C s       :     0.004911  s :     0.004911
      pz      :     0.079040  p :     0.090415
      px      :     0.007630
      py      :     0.003745
      dz2     :    -0.000088  d :    -0.001418
      dxz     :     0.002650
      dyz     :     0.002018
      dx2y2   :     0.000214
      dxy     :    -0.006212
      f0      :    -0.000064  f :    -0.000152
      f+1     :     0.000080
      f-1     :    -0.000115
      f+2     :     0.000087
      f-2     :    -0.000718
      f+3     :     0.000573
      f-3     :     0.000004

  2 C s       :    -0.013235  s :    -0.013235
      pz      :     0.055486  p :     0.062802
      px      :    -0.001975
      py      :     0.009291
      dz2     :     0.000801  d :     0.005904
      dxz     :     0.006338
      dyz     :    -0.002954
      dx2y2   :     0.002380
      dxy     :    -0.000661
      f0      :     0.000092  f :    -0.002309
      f+1     :    -0.000068
      f-1     :    -0.000186
      f+2     :    -0.000724
      f-2     :    -0.000542
      f+3     :     0.000244
      f-3     :    -0.001126

  3 C s       :     0.004456  s :     0.004456
      pz      :     0.087454  p :     0.100609
      px      :     0.008677
      py      :     0.004479
      dz2     :    -0.000207  d :    -0.000813
      dxz     :     0.001092
      dyz     :     0.001718
      dx2y2   :    -0.000138
      dxy     :    -0.003278
      f0      :    -0.000084  f :     0.000059
      f+1     :     0.000083
      f-1     :    -0.000131
      f+2     :     0.000109
      f-2     :    -0.000721
      f+3     :     0.000571
      f-3     :     0.000233

  4 C s       :     0.003503  s :     0.003503
      pz      :    -0.021528  p :    -0.017056
      px      :     0.005805
      py      :    -0.001333
      dz2     :     0.000294  d :     0.001925
      dxz     :     0.004847
      dyz     :     0.001899
      dx2y2   :    -0.000258
      dxy     :    -0.004856
      f0      :     0.000161  f :     0.000387
      f+1     :     0.000169
      f-1     :    -0.000055
      f+2     :    -0.000178
      f-2     :    -0.000167
      f+3     :     0.000700
      f-3     :    -0.000242

  5 C s       :     0.004138  s :     0.004138
      pz      :     0.140920  p :     0.159704
      px      :     0.018103
      py      :     0.000681
      dz2     :    -0.000478  d :     0.006586
      dxz     :     0.007801
      dyz     :     0.000724
      dx2y2   :     0.000288
      dxy     :    -0.001749
      f0      :     0.000157  f :     0.000677
      f+1     :    -0.000100
      f-1     :    -0.000268
      f+2     :     0.000069
      f-2     :    -0.000227
      f+3     :    -0.000017
      f-3     :     0.001063

  6 C s       :    -0.003059  s :    -0.003059
      pz      :     0.032194  p :     0.019165
      px      :    -0.007656
      py      :    -0.005372
      dz2     :    -0.000220  d :     0.010254
      dxz     :     0.009666
      dyz     :     0.001960
      dx2y2   :    -0.000175
      dxy     :    -0.000977
      f0      :    -0.000005  f :    -0.001279
      f+1     :     0.000015
      f-1     :    -0.000069
      f+2     :     0.000782
      f-2     :    -0.000280
      f+3     :    -0.000069
      f-3     :    -0.001652

  7 O s       :     0.003945  s :     0.003945
      pz      :     0.094704  p :     0.099847
      px      :     0.002586
      py      :     0.002557
      dz2     :    -0.000041  d :     0.001338
      dxz     :     0.000646
      dyz     :     0.000754
      dx2y2   :     0.000105
      dxy     :    -0.000125
      f0      :    -0.000014  f :     0.000011
      f+1     :    -0.000002
      f-1     :    -0.000028
      f+2     :    -0.000013
      f-2     :     0.000027
      f+3     :     0.000002
      f-3     :     0.000040

  8 C s       :    -0.003086  s :    -0.003086
      pz      :    -0.001282  p :    -0.005020
      px      :    -0.001380
      py      :    -0.002358
      dz2     :     0.000582  d :     0.003383
      dxz     :    -0.000345
      dyz     :     0.003394
      dx2y2   :    -0.000050
      dxy     :    -0.000197
      f0      :     0.000114  f :     0.000181
      f+1     :     0.000085
      f-1     :    -0.000125
      f+2     :    -0.000025
      f-2     :     0.000137
      f+3     :    -0.000015
      f-3     :     0.000010

  9 H s       :     0.002060  s :     0.002060
      pz      :     0.000111  p :     0.000671
      px      :     0.000145
      py      :     0.000414
      dz2     :     0.000014  d :     0.000069
      dxz     :     0.000007
      dyz     :    -0.000005
      dx2y2   :     0.000028
      dxy     :     0.000025

 10 H s       :    -0.001072  s :    -0.001072
      pz      :     0.000064  p :    -0.000014
      px      :    -0.000081
      py      :     0.000004
      dz2     :    -0.000013  d :    -0.000073
      dxz     :    -0.000004
      dyz     :    -0.000035
      dx2y2   :     0.000012
      dxy     :    -0.000034

 11 H s       :     0.002148  s :     0.002148
      pz      :     0.000090  p :     0.000611
      px      :     0.000161
      py      :     0.000360
      dz2     :     0.000013  d :     0.000065
      dxz     :     0.000007
      dyz     :    -0.000005
      dx2y2   :     0.000027
      dxy     :     0.000024

 12 H s       :     0.000770  s :     0.000770
      pz      :    -0.001595  p :    -0.002594
      px      :    -0.000204
      py      :    -0.000794
      dz2     :     0.000007  d :    -0.000577
      dxz     :    -0.000160
      dyz     :    -0.000252
      dx2y2   :    -0.000102
      dxy     :    -0.000070

 13 H s       :    -0.006990  s :    -0.006990
      pz      :     0.002822  p :     0.002363
      px      :    -0.000422
      py      :    -0.000036
      dz2     :    -0.000024  d :    -0.000196
      dxz     :     0.000003
      dyz     :     0.000028
      dx2y2   :    -0.000165
      dxy     :    -0.000038

 14 N s       :    -0.017787  s :    -0.017787
      pz      :     0.139229  p :     0.145454
      px      :     0.008135
      py      :    -0.001910
      dz2     :    -0.000542  d :     0.007069
      dxz     :     0.016725
      dyz     :    -0.006839
      dx2y2   :     0.001141
      dxy     :    -0.003415
      f0      :     0.000744  f :    -0.000092
      f+1     :    -0.000021
      f-1     :    -0.000153
      f+2     :     0.002301
      f-2     :    -0.000961
      f+3     :    -0.000140
      f-3     :    -0.001862

 15 O s       :     0.006814  s :     0.006814
      pz      :     0.169494  p :     0.168744
      px      :     0.000804
      py      :    -0.001554
      dz2     :     0.000154  d :     0.000736
      dxz     :     0.000729
      dyz     :     0.000402
      dx2y2   :    -0.000472
      dxy     :    -0.000078
      f0      :     0.000039  f :     0.000034
      f+1     :    -0.000001
      f-1     :    -0.000050
      f+2     :    -0.000073
      f-2     :     0.000179
      f+3     :    -0.000010
      f-3     :    -0.000050

 16 O s       :     0.007092  s :     0.007092
      pz      :     0.171592  p :     0.171033
      px      :     0.000957
      py      :    -0.001516
      dz2     :     0.000159  d :     0.000763
      dxz     :     0.000774
      dyz     :     0.000381
      dx2y2   :    -0.000493
      dxy     :    -0.000057
      f0      :     0.000041  f :     0.000035
      f+1     :    -0.000002
      f-1     :    -0.000049
      f+2     :    -0.000069
      f-2     :     0.000174
      f+3     :    -0.000010
      f-3     :    -0.000050

 17 H s       :    -0.007994  s :    -0.007994
      pz      :     0.002315  p :     0.001619
      px      :    -0.000545
      py      :    -0.000151
      dz2     :    -0.000024  d :    -0.000248
      dxz     :    -0.000031
      dyz     :     0.000012
      dx2y2   :    -0.000157
      dxy     :    -0.000048

 18 H s       :    -0.000209  s :    -0.000209
      pz      :    -0.000690  p :    -0.002255
      px      :     0.000525
      py      :    -0.002090
      dz2     :    -0.000009  d :    -0.000406
      dxz     :    -0.000121
      dyz     :    -0.000183
      dx2y2   :    -0.000049
      dxy     :    -0.000045



                     *******************************
                     * LOEWDIN POPULATION ANALYSIS *
                     *******************************

-------------------------------------------
LOEWDIN ATOMIC CHARGES AND SPIN POPULATIONS
-------------------------------------------
[...]
      f-2     :     0.002004
      f+3     :     0.000427
      f-3     :     0.000192

  7 O s       :     0.001174  s :     0.001174
      pz      :     0.064537  p :     0.066213
      px      :     0.000771
      py      :     0.000905
      dz2     :     0.000042  d :     0.007383
      dxz     :     0.003521
      dyz     :     0.004121
      dx2y2   :    -0.000168
      dxy     :    -0.000133
      f0      :     0.000437  f :     0.001297
      f+1     :    -0.000011
      f-1     :    -0.000019
      f+2     :    -0.000049
      f-2     :     0.001045
      f+3     :     0.000002
      f-3     :    -0.000109

  8 C s       :    -0.000169  s :    -0.000169
      pz      :     0.000211  p :    -0.000530
      px      :    -0.000188
      py      :    -0.000553
      dz2     :    -0.000018  d :     0.004171
      dxz     :     0.002417
      dyz     :     0.001812
      dx2y2   :    -0.000182
      dxy     :     0.000143
      f0      :     0.000375  f :     0.003140
      f+1     :    -0.000029
      f-1     :    -0.000005
      f+2     :     0.000275
      f-2     :     0.002601
      f+3     :     0.000024
      f-3     :    -0.000102

  9 H s       :     0.000769  s :     0.000769
      pz      :    -0.000000  p :     0.000420
      px      :     0.000097
      py      :     0.000323
      dz2     :     0.000000  d :     0.000355
      dxz     :    -0.000012
      dyz     :     0.000006
      dx2y2   :     0.000029
      dxy     :     0.000332

 10 H s       :    -0.000107  s :    -0.000107
      pz      :     0.000316  p :     0.000187
      px      :    -0.000038
      py      :    -0.000091
      dz2     :    -0.000009  d :    -0.000153
      dxz     :     0.000029
      dyz     :    -0.000059
      dx2y2   :    -0.000078
      dxy     :    -0.000037

 11 H s       :     0.000762  s :     0.000762
      pz      :    -0.000002  p :     0.000417
      px      :     0.000095
      py      :     0.000324
      dz2     :     0.000000  d :     0.000357
      dxz     :    -0.000012
      dyz     :     0.000008
      dx2y2   :     0.000031
      dxy     :     0.000330

 12 H s       :     0.000491  s :     0.000491
      pz      :    -0.001802  p :    -0.002185
      px      :    -0.000117
      py      :    -0.000266
      dz2     :    -0.000008  d :    -0.000041
      dxz     :     0.002184
      dyz     :    -0.001943
      dx2y2   :    -0.000197
      dxy     :    -0.000077

 13 H s       :    -0.001652  s :    -0.001652
      pz      :     0.010135  p :     0.010492
      px      :    -0.000003
      py      :     0.000360
      dz2     :    -0.000038  d :     0.003833
      dxz     :     0.001902
      dyz     :     0.001800
      dx2y2   :    -0.000028
      dxy     :     0.000196

 14 N s       :     0.003661  s :     0.003661
      pz      :     0.126524  p :     0.127735
      px      :     0.000599
      py      :     0.000611
      dz2     :    -0.000078  d :     0.033815
      dxz     :     0.044812
      dyz     :    -0.009421
      dx2y2   :    -0.000808
      dxy     :    -0.000690
      f0      :     0.011068  f :     0.029306
      f+1     :    -0.000148
      f-1     :    -0.000011
      f+2     :     0.016843
      f-2     :     0.000871
      f+3     :     0.000866
      f-3     :    -0.000183

 15 O s       :     0.002256  s :     0.002256
      pz      :     0.140450  p :     0.138727
      px      :     0.000435
      py      :    -0.002159
      dz2     :     0.000265  d :     0.024380
      dxz     :     0.010495
      dyz     :     0.013397
      dx2y2   :    -0.000119
      dxy     :     0.000343
      f0      :     0.003101  f :     0.009392
      f+1     :     0.000001
      f-1     :    -0.000029
      f+2     :     0.000181
      f-2     :     0.005922
      f+3     :     0.000207
      f-3     :     0.000009

 16 O s       :     0.002291  s :     0.002291
      pz      :     0.142087  p :     0.140443
      px      :     0.000370
      py      :    -0.002014
      dz2     :     0.000268  d :     0.024573
      dxz     :     0.011214
      dyz     :     0.012865
      dx2y2   :    -0.000140
      dxy     :     0.000366
      f0      :     0.003121  f :     0.009410
      f+1     :    -0.000001
      f-1     :    -0.000027
      f+2     :     0.000060
      f-2     :     0.006041
      f+3     :     0.000201
      f-3     :     0.000017

 17 H s       :    -0.001492  s :    -0.001492
      pz      :     0.009145  p :     0.009428
      px      :    -0.000020
      py      :     0.000303
      dz2     :    -0.000038  d :     0.003354
      dxz     :     0.001840
      dyz     :     0.001417
      dx2y2   :    -0.000038
      dxy     :     0.000171

 18 H s       :     0.000416  s :     0.000416
      pz      :    -0.001266  p :    -0.001744
      px      :    -0.000215
      py      :    -0.000263
      dz2     :    -0.000016  d :    -0.000599
      dxz     :     0.001540
      dyz     :    -0.001820
      dx2y2   :    -0.000229
      dxy     :    -0.000074



                      *****************************
                      * MAYER POPULATION ANALYSIS *
                      *****************************

  NA   - Mulliken gross atomic population
  ZA   - Total nuclear charge
  QA   - Mulliken gross atomic charge
  VA   - Mayer's total valence
  BVA  - Mayer's bonded valence
  FA   - Mayer's free valence

  ATOM       NA         ZA         QA         VA         BVA        FA
  0 C      6.9389     6.0000    -0.9389     2.4148     2.4125     0.0022
  1 C      6.5317     6.0000    -0.5317     2.5359     2.5260     0.0098
  2 C      5.6385     6.0000     0.3615     3.5312     3.5247     0.0066
  3 C      6.7933     6.0000    -0.7933     2.4913     2.4792     0.0121
  4 C      6.5191     6.0000    -0.5191     2.1865     2.1833     0.0032
  5 C      4.8970     6.0000     1.1030     1.8935     1.8683     0.0252
  6 C      5.3599     6.0000     0.6401     2.6842     2.6811     0.0031
  7 O      8.9708     8.0000    -0.9708     1.1590     1.1517     0.0073
  8 C      6.6721     6.0000    -0.6721     3.8605     3.8604     0.0001
  9 H      0.7073     1.0000     0.2927     0.9015     0.9015     0.0000
 10 H      0.8047     1.0000     0.1953     0.9963     0.9963     0.0000
 11 H      0.7072     1.0000     0.2928     0.9016     0.9016     0.0000
 12 H      0.7820     1.0000     0.2180     1.1264     1.1264    -0.0000
 13 H      0.4356     1.0000     0.5644     0.5143     0.5142     0.0001
 14 N      6.3955     7.0000     0.6045     2.6885     2.6430     0.0455
 15 O      8.8480     8.0000    -0.8480     1.0721     1.0356     0.0365
 16 O      8.8447     8.0000    -0.8447     1.0838     1.0466     0.0372
 17 H      0.3617     1.0000     0.6383     0.3496     0.3496     0.0001
 18 H      0.7921     1.0000     0.2079     1.1621     1.1621    -0.0000

  Mayer bond orders larger than 0.100000
B(  0-C ,  1-C ) :   1.5909 B(  0-C ,  2-C ) :  -0.3615 B(  0-C ,  4-C ) :  -0.4235 
B(  0-C ,  5-C ) :   0.3489 B(  0-C ,  6-C ) :   0.2067 B(  0-C , 16-O ) :  -0.1409 
B(  0-C , 18-H ) :   1.0145 B(  1-C ,  2-C ) :   0.9539 B(  1-C ,  3-C ) :   0.2110 
B(  1-C ,  4-C ) :  -0.1613 B(  1-C ,  5-C ) :   0.1912 B(  1-C , 14-N ) :  -0.1491 
B(  1-C , 17-H ) :   0.1994 B(  2-C ,  3-C ) :   0.8522 B(  2-C ,  4-C ) :  -0.2790 
B(  2-C , 14-N ) :   1.3880 B(  2-C , 15-O ) :   0.4289 B(  2-C , 16-O ) :   0.4362 
B(  3-C ,  4-C ) :   1.2470 B(  3-C ,  5-C ) :   0.2379 B(  3-C , 13-H ) :   0.3036 
B(  3-C , 14-N ) :  -0.2231 B(  4-C ,  5-C ) :   0.4779 B(  4-C ,  6-C ) :   0.1210 
B(  4-C , 12-H ) :   1.0988 B(  4-C , 15-O ) :  -0.1336 B(  5-C ,  6-C ) :   0.4433 
B(  5-C ,  7-O ) :   0.2236 B(  6-C ,  7-O ) :   0.7838 B(  6-C ,  8-C ) :   0.9620 
B(  7-O , 18-H ) :   0.1741 B(  8-C ,  9-H ) :   0.9164 B(  8-C , 10-H ) :   0.9540 
B(  8-C , 11-H ) :   0.9168 B( 12-H , 18-H ) :   0.1034 B( 14-N , 15-O ) :   0.7410 
B( 14-N , 16-O ) :   0.7592 B( 15-O , 16-O ) :   0.1012 

-------
TIMINGS
-------

Total SCF time: 0 days 0 hours 2 min 5 sec 

Total time                  ....     125.444 sec
Sum of individual times     ....     124.768 sec  ( 99.5%)

SCF preparation             ....       1.309 sec  (  1.0%)
Fock matrix formation       ....     109.605 sec  ( 87.4%)
  Startup                   ....       1.342 sec  (  1.2% of F)
  Split-RI-J                ....       5.084 sec  (  4.6% of F)
  Chain of spheres X        ....      82.944 sec  ( 75.7% of F)
  XC integration            ....      16.626 sec  ( 15.2% of F)
    XC Preparation          ....       0.000 sec  (  0.0% of XC)
    Basis function eval.    ....       1.497 sec  (  9.0% of XC)
    Density eval.           ....       5.341 sec  ( 32.1% of XC)
    XC-Functional eval.     ....       0.096 sec  (  0.6% of XC)
    XC-Potential eval.      ....       7.940 sec  ( 47.8% of XC)
  CPCM terms                ....       1.685 sec  (  1.5% of F)
Diagonalization             ....       0.000 sec  (  0.0%)
Density matrix formation    ....       2.597 sec  (  2.1%)
Total Energy calculation    ....       1.249 sec  (  1.0%)
Population analysis         ....       1.226 sec  (  1.0%)
Orbital Transformation      ....       2.167 sec  (  1.7%)
Orbital Orthonormalization  ....       0.000 sec  (  0.0%)
DIIS solution               ....       3.468 sec  (  2.8%)
SOSCF solution              ....       3.147 sec  (  2.5%)
Finished LeanSCF after 126.1 sec

Maximum memory used throughout the entire LEANSCF-calculation: 118.1 MB


-------------------------------------------------------------------------------
                          DFT DISPERSION CORRECTION                            
                                                                               
                              DFTD3 V3.1  Rev 1                                
                          USING Becke-Johnson damping                          
-------------------------------------------------------------------------------
The PBE0 functional is recognized
Active option DFTDOPT                   ...         4   

molecular C6(AA) [au] = 4372.274081 


            DFT-D V3
 parameters
 s6 scaling factor         :     1.0000 
 a1 scaling factor         :     0.4145 
 s8 scaling factor         :     1.2177 
 a2 scaling factor         :     4.8593 
 ad hoc parameters k1-k3   :    16.0000     1.3333    -4.0000 

 Edisp/kcal,au: -11.543812814716  -0.018396234735 
 E6   /kcal   :  -7.209785238 
 E8   /kcal   :  -4.334027577 
 % E8         :  37.544160203 

-------------------------   ----------------
Dispersion correction           -0.018396235
-------------------------   ----------------


-------------------------   --------------------
FINAL SINGLE POINT ENERGY      -589.111995197562
-------------------------   --------------------

                                *** OPTIMIZATION RUN DONE ***



           ************************************************************
           *        Program running with 8 parallel MPI-processes     *
           *              working on a common directory               *
           ************************************************************

------------------------------------------------------------------------------
                              ORCA PROPERTY CALCULATIONS
------------------------------------------------------------------------------

GBWName                                 ... cs_rporg_150_red_opt_04.gbw
Number of atoms                         ...     19
Number of basis functions               ...    785
Max core memory                         ...   3500 MB

Electric properties:
Dipole moment                           ... YES
Quadrupole moment                       ...  NO
Static polarizability (Dipole/Dipole)   ...  NO
Static polarizability (Dipole/Quad.)    ...  NO
Static polarizability (Quad./Quad.)     ...  NO
Static polarizability (Velocity)        ...  NO

Atomic electric properties:
Dipole moment                           ...  NO
Quadrupole moment                       ...  NO
Static polarizability                   ...  NO

Choice of electric origin               ... Center of mass
Position of electric origin             ...     0.000390    -0.000060    -0.001300

General magnetic properties:
Magnetizability                         ...  NO

EPR properties:
g-Tensor (aka g-matrix)                 ...  NO
Zero-Field splitting spin-orbit         ...  NO
Zero-field splitting spin-spin          ...  NO
Hyperfine couplings                     ...  NO (   0 nuclei)
Quadrupole couplings                    ...  NO (   0 nuclei)
Contact density                         ...  NO (   0 nuclei)

NMR properties:
Chemical shifts                         ...  NO (   0 nuclei)
Spin-rotation constants                 ...  NO (   0 nuclei)
Spin-spin couplings                     ...  NO (   0 nuclei,    0 pairs)

Choice of magnetic origin               ... GIAO
Position of magnetic origin             ...     0.000000     0.000000     0.000000

Properties with geometric perturbations:
SCF Hessian                             ...  NO
IR spectrum                             ...  NO
VCD spectrum                            ...  NO
X-ray spectroscopy properties:
SCF XES/XAS/RIXS spectra                ...  NO


-------------
DIPOLE MOMENT
-------------

Method             : SCF
Type of density    : Electron Density
Multiplicity       :   2
Irrep              :   0
Energy             :  -589.0935989628269454 Eh
Relativity type    : 
Basis              : AO
                                X                 Y                 Z
Electronic contribution:     -7.360106512      -2.945160577       0.001744067
Nuclear contribution   :     10.788127835       4.286815988      -0.006464632
                        -----------------------------------------
Total Dipole Moment    :      3.428021323       1.341655411      -0.004720565
                        -----------------------------------------
Magnitude (a.u.)       :      3.681221498
Magnitude (Debye)      :      9.356921442



--------------------
Rotational spectrum 
--------------------
 
Rotational constants in cm-1:             0.095638             0.015998             0.013740 
Rotational constants in MHz :          2867.147855           479.611464           411.923747 

Dipole components along the rotational axes: 
x,y,z [a.u.] :    -3.427721     1.342429    -0.001234 
x,y,z [Debye]:    -8.712575     3.412184    -0.003137 

 

Dipole moment calculation done in   0.2 sec 

Maximum memory used throughout the entire PROP-calculation: 63.7 MB

--------------------------------
SUGGESTED CITATIONS FOR THIS RUN
--------------------------------

Below you find a list of papers that are relevant to this ORCA run
We neither can nor want to force you to cite these papers, but we appreciate if you do
You receive ORCA, which is the product of decades of hard work by many enthusiastic individuals, for free
The only thing we kindly ask in return is that you cite our papers,
We deeply appreciate it, if you show your appreciation for ORCA by not just citing the generic ORCA reference.

Please note that relegating all ORCA citations to the supporting information does *not* help us.
SI sections are not indexed - citations you put there will not count into any citation statistics
But we need these citations in order to attract the funding resources that allow us to do what we are doing

Therefore, if you are a happy ORCA user, please consider citing a few of the papers listed below in the main body of your paper

In addition to the list printed below, the program has created the file cs_rporg_150_red_opt_04.bibtex that contains the list in bibtex format
You can import this file easily into all common literature databanks and citation aid programs


List of essential papers. We consider these as the minimum necessary citations

  1. Neese,F.
     Software update: the ORCA program system, version 5.0
     WIRES Comput. Molec. Sci., 2022 12(1)e1606
     doi.org/10.1002/wcms.1606

List of papers to cite with high priority. The work reported in these papers was absolutely
necessary for this run to complete.
Our perspective: the developers of density functionals and basis sets usually get cited in chemistry papers
Good! But without the algorithms to do something with them, the functionals or basis sets would not do anything.
Hence, in our opinion, the algorithm design and method developments papers are equally worthy of getting cited

  1. Neese,F.
     An improvement of the resolution of the identity approximation for the formation of the Coulomb matrix
     J. Comp. Chem., 2003 24(14)1740-1747
     doi.org/10.1002/jcc.10318
  2. Neese,F.; Wennmohs,F.; Hansen,A.; Becker,U.
     Efficient, approximate and parallel Hartree-Fock and hybrid DFT calculations. A 'chain-of-spheres' algorithm for the Hartree-Fock exchange
     Chem. Phys., 2009 356(1-3)98-109
     doi.org/10.1016/j.chemphys.2008.10.036
  3. Garcia-Rates,M.; Neese,F.
     Effect of the Solute Cavity on the Solvation Energy and its Derivatives within the Framework of the Gaussian Charge Scheme
     J. Comput. Chem., 2020 41 922-939
     doi.org/10.1002/jcc.26139
  4. Helmich-Paris,B.; de Souza,B.; Neese,F.; Izsák,R.
     An improved chain of spheres for exchange algorithm
     J. Chem. Phys., 2021 155 104109
     doi.org/doi: 10.1063/5.0058766.
  5. Neese,F.
     The SHARK Integral Generation and Digestion System
     J. Comp. Chem., 2022  1-16
     doi.org/10.1002/jcc.26942
  6. Grimme,S.; Antony,J.; Ehrlich,S.; Krieg,H.
     A consistent and accurate ab initio parametrization of density functional dispersion correction (DFT-D) for the 94 elements H-Pu
     J. Chem. Phys., 2010 132 154104-XXXX
     doi.org/10.1063/1.3382344
  7. Grimme,S.; Ehrlich,S.; Goerigk,L.
     Effect of the damping function in dispersion corrected density functional theory
     J. Comput. Chem., 2011 32(7)1456-1465
     doi.org/10.1002/jcc.21759

List of suggested additional citations. These are papers that are important in the 'surrounding' of 
of this run, or papers that preceded the highly important papers. If you like your results we are grateful for a citation.

  1. Izsak,R.; Neese,F.
     An overlap fitted chain of spheres exchange method
     J. Chem. Phys., 2011 135 144105
     doi.org/10.1063/1.3646921
  2. Izsak,R.; Hansen,A.; Neese,F.
     The resolution of identity and chain of spheres approximations for the LPNO-CCSD singles Fock term
     Molec. Phys., 2012 110 2413-2417
     doi.org/10.1080/00268976.2012.687466
  3. Neese,F.
     The ORCA program system
     WIRES Comput. Molec. Sci., 2012 2(1)73-78
     doi.org/10.1002/wcms.81
  4. Izsak,R.; Neese,F.; Klopper,W.
     Robust fitting techniques in the chain of spheres approximation to the Fock exchange: The role of the complementary space
     J. Chem. Phys., 2013 139 
     doi.org/10.1063/1.4819264
  5. Neese,F.
     Software update: the ORCA program system, version 4.0
     WIRES Comput. Molec. Sci., 2018 8(1)1-6
     doi.org/10.1002/wcms.1327
  6. Neese,F.; Wennmohs,F.; Becker,U.; Riplinger,C.
     The ORCA quantum chemistry program package
     J. Chem. Phys., 2020 152 Art. No. L224108
     doi.org/10.1063/5.0004608

List of optional additional citations

  1. Neese,F.
     Approximate second-order SCF convergence for spin unrestricted wavefunctions
     Chem. Phys. Lett., 2000 325(1-3)93-98
     doi.org/10.1016/s0009-2614(00)00662-x

Timings for individual modules:

Sum of individual times          ...     2778.167 sec (=  46.303 min)
Startup calculation              ...       75.761 sec (=   1.263 min)   2.7 %
SCF iterations                   ...     1673.933 sec (=  27.899 min)  60.3 %
Property calculations            ...        2.116 sec (=   0.035 min)   0.1 %
SCF Gradient evaluation          ...     1025.930 sec (=  17.099 min)  36.9 %
Geometry relaxation              ...        0.427 sec (=   0.007 min)   0.0 %
                             ****ORCA TERMINATED NORMALLY****
TOTAL RUN TIME: 0 days 0 hours 46 minutes 40 seconds 63 msec
