
                                 *****************
                                 * O   R   C   A *
                                 *****************

                                            #,                                       
                                            ###                                      
                                            ####                                     
                                            #####                                    
                                            ######                                   
                                           ########,                                 
                                     ,,################,,,,,                         
                               ,,#################################,,                 
                          ,,##########################################,,             
                       ,#########################################, ''#####,          
                    ,#############################################,,   '####,        
                  ,##################################################,,,,####,       
                ,###########''''           ''''###############################       
              ,#####''   ,,,,##########,,,,          '''####'''          '####       
            ,##' ,,,,###########################,,,                        '##       
           ' ,,###''''                  '''############,,,                           
         ,,##''                                '''############,,,,        ,,,,,,###''
      ,#''                                            '''#######################'''  
     '                                                          ''''####''''         
             ,#######,   #######,   ,#######,      ##                                
            ,#'     '#,  ##    ##  ,#'     '#,    #''#        ,####,   ,####,        
            ##       ##  ##   ,#'  ##            #'  '#       #'       #'  '#        
            ##       ##  #######   ##           ,######,      #####,   #    #        
            '#,     ,#'  ##    ##  '#,     ,#' ,#      #,     #,   #   #,  ,#        
             '#######'   ##     ##  '#######'  #'      '#     '####' # '####'        



                #########################################################
                #                        -***-                          #
                #          Department of theory and spectroscopy        #
                #                                                       #
                #                      Frank Neese                      #
                #                                                       #
                #     Directorship, Architecture, Infrastructure        #
                #                    SHARK, DRIVERS                     #
                #        Core code/Algorithms in most modules           #
                #                                                       #
                #        Max Planck Institute fuer Kohlenforschung      #
                #                Kaiser Wilhelm Platz 1                 #
                #                 D-45470 Muelheim/Ruhr                 #
                #                      Germany                          #
                #                                                       #
                #                  All rights reserved                  #
                #                        -***-                          #
                #########################################################


                         Program Version 6.0.0  -   RELEASE  -


 With contributions from (in alphabetic order):
   Daniel Aravena         : Magnetic Suceptibility
   Michael Atanasov       : Ab Initio Ligand Field Theory (pilot matlab implementation)
   Alexander A. Auer      : GIAO ZORA, VPT2 properties, NMR spectrum
   Ute Becker             : All parallelization in ORCA, NUMFREQ, NUMCALC
   Giovanni Bistoni       : ED, misc. LED, open-shell LED, HFLD
   Martin Brehm           : Molecular dynamics
   Dmytro Bykov           : pre 5.0 version of the SCF Hessian
   Marcos Casanova-Páez   : Triplet and SCS-CIS(D). UHF-(DLPNO)-IP/EA/STEOM-CCSD. UHF-CVS-IP/STEOM-CCSD
   Vijay G. Chilkuri      : MRCI spin determinant printing, contributions to CSF-ICE
   Pauline Colinet        : FMM embedding
   Dipayan Datta          : RHF DLPNO-CCSD density
   Achintya Kumar Dutta   : EOM-CC, STEOM-CC
   Nicolas Foglia         : Exact transition moments, OPA infrastructure, MCD improvements
   Dmitry Ganyushin       : Spin-Orbit,Spin-Spin,Magnetic field MRCI
   Miquel Garcia          : C-PCM and meta-GGA Hessian, CCSD/C-PCM, Gaussian charge scheme
   Tiago L. C. Gouveia    : GS-ROHF, GS-ROCIS
   Yang Guo               : DLPNO-NEVPT2, F12-NEVPT2, CIM, IAO-localization
   Andreas Hansen         : Spin unrestricted coupled pair/coupled cluster methods
   Ingolf Harden          : AUTO-CI MPn and infrastructure 
   Benjamin Helmich-Paris : MC-RPA, TRAH-(SCF,CASSCF), AVAS, COSX integrals, SCF dyn. polar.
   Lee Huntington         : MR-EOM, pCC
   Robert Izsak           : Overlap fitted RIJCOSX, COSX-SCS-MP3, EOM
   Riya Kayal             : Wick's Theorem for AUTO-CI, AUTO-CI UHF-CCSDT
   Emily Kempfer          : AUTO-CI, RHF CISDT and CCSDT
   Christian Kollmar      : KDIIS, OOCD, Brueckner-CCSD(T), CCSD density, CASPT2, CASPT2-K, improved NEVPT2
   Axel Koslowski         : Symmetry handling
   Simone Kossmann        : Meta GGA functionals, TD-DFT gradient, OOMP2, (MP2 Hessian; deprecated post 5.0)
   Lucas Lang             : DCDCAS
   Marvin Lechner         : AUTO-CI (C++ implementation), FIC-MRCC
   Spencer Leger          : CASSCF response
   Dagmar Lenk            : GEPOL surface, SMD, ORCA-2-JSON
   Dimitrios Liakos       : Extrapolation schemes; Compound Job, initial MDCI parallelization
   Dimitrios Manganas     : Further ROCIS development; embedding schemes. LFT, Crystal Embedding
   Dimitrios Pantazis     : SARC Basis sets
   Anastasios Papadopoulos: AUTO-CI, single reference methods and gradients
   Taras Petrenko         : pre 6.0 DFT Hessian and TD-DFT gradient, (ASA, deprecated), ECA, 1-Electron XAS/XES, NRVS
   Peter Pinski           : DLPNO-MP2, DLPNO-MP2 Gradient
   Christoph Reimann      : Effective Core Potentials
   Marius Retegan         : Local ZFS, SOC
   Christoph Riplinger    : Optimizer, TS searches, QM/MM, DLPNO-CCSD(T), (RO)-DLPNO pert. Triples
   Michael Roemelt        : Original ROCIS implementation
   Masaaki Saitow         : Open-shell DLPNO-CCSD energy and density
   Barbara Sandhoefer     : DKH picture change effects
   Kantharuban Sivalingam : CASSCF convergence/infrastructure, NEVPT2 and variants, FIC-MRCI
   Bernardo de Souza      : ESD, SOC TD-DFT
   Georgi Stoychev        : AutoAux, RI-MP2 NMR, DLPNO-MP2 response, X2C
   Van Anh Tran           : RI-MP2 g-tensors
   Willem Van den Heuvel  : Paramagnetic NMR
   Zikuan Wang            : NOTCH, Electric field optimization 
   Frank Wennmohs         : Technical directorship and infrastructure
   Hang Xu                : AUTO-CI-Response properties 


 We gratefully acknowledge several colleagues who have allowed us to
 interface, adapt or use parts of their codes:
   Stefan Grimme, W. Hujo, H. Kruse, P. Pracht,  : VdW corrections, initial TS optimization,
                  C. Bannwarth, S. Ehlert,         DFT functionals, gCP, sTDA/sTD-DF
                  L. Wittmann, M. Mueller
   Ed Valeev, F. Pavosevic, A. Kumar             : LibInt (2-el integral package), F12 methods
   Garnet Chan, S. Sharma, J. Yang, R. Olivares  : DMRG
   Ulf Ekstrom                                   : XCFun DFT Library
   Mihaly Kallay                                 : mrcc  (arbitrary order and MRCC methods)
   Frank Weinhold                                : gennbo (NPA and NBO analysis)
   Simon Mueller                                 : openCOSMO-RS
   Christopher J. Cramer and Donald G. Truhlar   : smd solvation model
   Lars Goerigk                                  : TD-DFT with DH, B97 family of functionals
   V. Asgeirsson, H. Jonsson                     : NEB implementation
   FAccTs GmbH                                   : IRC, NEB, NEB-TS, DLPNO-Multilevel, CI-OPT
                                                   MM, QMMM, 2- and 3-layer-ONIOM, Crystal-QMMM,
                                                   LR-CPCM, SF, NACMEs, symmetry and pop. for TD-DFT,
                                                   nearIR, NL-DFT gradient (VV10), updates on ESD,
                                                   ML-optimized integration grids, MBIS, APM,
                                                   GOAT, DOCKER, SOLVATOR, interface openCOSMO-RS
   S Lehtola, MJT Oliveira, MAL Marques          : LibXC Library
   Liviu Ungur et al                             : ANISO software


 Your calculation uses the libint2 library for the computation of 2-el integrals
 For citations please refer to: http://libint.valeyev.net

 Your ORCA version has been built with support for libXC version: 6.2.2
 For citations please refer to: https://libxc.gitlab.io

 This ORCA versions uses:
   CBLAS   interface :  Fast vector & matrix operations
   LAPACKE interface :  Fast linear algebra routines
   SCALAPACK package :  Parallel linear algebra routines
   Shared memory     :  Shared parallel matrices
   BLAS/LAPACK       :  OpenBLAS 0.3.27  USE64BITINT DYNAMIC_ARCH NO_AFFINITY Sandybridge SINGLE_THREADED
        Core in use  :  Sandybridge
   Copyright (c) 2011-2014, The OpenBLAS Project


NOTE: MaxCore=5000 MB was set to SCF,MP2,MDCI,CIPSI,MRCI and CIS
      => If you want to overwrite this, your respective input block should be placed after the MaxCore statement
Your calculation utilizes the atom-pairwise dispersion correction
with the Becke-Johnson damping scheme (D3BJ)


Your calculation utilizes the SMD solvation module
Please cite in your paper:
A.V. Marenich, C.J. Cramer, D.G. Truhlar J. Phys. Chem. B, 113, (2009), 6378 

Warning: RI is on but no J-basis has been assigned. Assigning Def2/J (nothing to worry about!)
================================================================================

----- Orbital basis set information -----
Your calculation utilizes the basis: aug-cc-pVTZ 
    H, B-Ne : Obtained from the ccRepo (grant-hill.group.shef.ac.uk/ccrepo) Feb. 2017
              R. A. Kendall, T. H. Dunning, Jr., R. J. Harrison, J. Chem. Phys. 96, 6796 (1992)
         He : Obtained from the ccRepo (grant-hill.group.shef.ac.uk/ccrepo) Feb. 2017
              D. E. Woon, T. H. Dunning, Jr., J. Chem. Phys. 100, 2975 (1994)
  Li-Be, Na : Obtained from the ccRepo (grant-hill.group.shef.ac.uk/ccrepo) Feb. 2017
              B. P. Prascher, D. E. Woon, K. A. Peterson, T. H. Dunning, Jr., A. K. Wilson, Theor. Chem. Acc. 128, 69 (2011)
         Mg : Obtained from the Peterson Research Group Website (tyr0.chem.wsu.edu/~kipeters) Feb. 2017
              B. P. Prascher, D. E. Woon, K. A. Peterson, T. H. Dunning, Jr., A. K. Wilson, Theor. Chem. Acc. 128, 69 (2011)
      Al-Ar : Obtained from the ccRepo (grant-hill.group.shef.ac.uk/ccrepo) Feb. 2017
              D. E. Woon, T. H. Dunning, Jr., J. Chem. Phys. 98, 1358 (1993)
      Sc-Zn : Obtained from the ccRepo (grant-hill.group.shef.ac.uk/ccrepo) Feb. 2017
              N. B. Balabanov, K. A. Peterson, J. Chem. Phys. 123, 064107 (2005)
              N. B. Balabanov, K. A. Peterson, J. Chem. Phys. 125, 074110 (2006)
      Ga-Kr : Obtained from the ccRepo (grant-hill.group.shef.ac.uk/ccrepo) Feb. 2017
              A. K. Wilson, D. E. Woon, K. A. Peterson, T. H. Dunning, Jr., J. Chem. Phys. 110, 7667 (1999)
     Ag, Au : Obtained from the Peterson Research Group Website (tyr0.chem.wsu.edu/~kipeters) Feb. 2017
              K. A. Peterson, C. Puzzarini, Theor. Chem. Acc. 114, 283 (2005)

----- AuxJ basis set information -----
Your calculation utilizes the auxiliary basis: def2/J
   F. Weigend, Phys. Chem. Chem. Phys. 8, 1057 (2006).

================================================================================
                                        WARNINGS
                       Please study these warnings very carefully!
================================================================================


WARNING: your system is open-shell and RHF/RKS was chosen
  ===> : WILL SWITCH to UHF/UKS


================================================================================
                                       INPUT FILE
================================================================================
NAME = cs_rporg_143_red_freq_04.inp
|  1> !PBE0 freq aug-cc-pVTZ d3 TightSCF SlowConv RIJCOSX defgrid2
|  2> 
|  3> %pal
|  4> nprocs 12
|  5> end
|  6> 
|  7> %scf
|  8> MaxIter 1500
|  9> end
| 10> 
| 11> %maxcore 5000
| 12> 
| 13> !CPCM
| 14> %cpcm smd true
| 15> SMDsolvent "MeCN"
| 16> surfacetype gepol_ses
| 17> rsolv 2.19
| 18> end 
| 19> 
| 20> * xyz -1 2
| 21> C          -0.02406783026398      1.19744885514527     -0.00021718921874
| 22> C           1.35506344904412      1.21933669827066      0.00020975965127
| 23> C           2.05349951685678      0.01726433260330      0.00003616929845
| 24> C           1.39594099495639     -1.20657553987653     -0.00102190853887
| 25> C           0.01782703374899     -1.23039844642538     -0.00127891473830
| 26> C          -0.75834068480773     -0.02862346995908     -0.00025240135146
| 27> C          -2.18072570042803     -0.08909726818837      0.00180808603802
| 28> O          -2.81784458899391     -1.19006871311193      0.00546003190121
| 29> C          -2.96174126454980      1.20590173892025     -0.00078656092594
| 30> H          -2.74978120845850      1.82655716958764      0.87812693299769
| 31> H          -2.74442694272116      1.82643858481581     -0.87846319822531
| 32> H          -4.02732970264236      0.97463414605778     -0.00387735583778
| 33> H          -0.50826154970076     -2.17679554017425     -0.00196651798050
| 34> H           1.97117077433741     -2.12606135690610     -0.00167046581223
| 35> F           3.41985667114451      0.04123394659071      0.00102826975670
| 36> H           1.89697278638897      2.15841908486926      0.00083326488798
| 37> H          -0.55341995391094      2.14251557778096      0.00032289809779
| 38> *
| 39> 
| 40>                          ****END OF INPUT****
================================================================================

                       ****************************
                       * Single Point Calculation *
                       ****************************

---------------------------------
CARTESIAN COORDINATES (ANGSTROEM)
---------------------------------
  C     -0.024068    1.197449   -0.000217
  C      1.355063    1.219337    0.000210
  C      2.053500    0.017264    0.000036
  C      1.395941   -1.206576   -0.001022
  C      0.017827   -1.230398   -0.001279
  C     -0.758341   -0.028623   -0.000252
  C     -2.180726   -0.089097    0.001808
  O     -2.817845   -1.190069    0.005460
  C     -2.961741    1.205902   -0.000787
  H     -2.749781    1.826557    0.878127
  H     -2.744427    1.826439   -0.878463
  H     -4.027330    0.974634   -0.003877
  H     -0.508262   -2.176796   -0.001967
  H      1.971171   -2.126061   -0.001670
  F      3.419857    0.041234    0.001028
  H      1.896973    2.158419    0.000833
  H     -0.553420    2.142516    0.000323

----------------------------
CARTESIAN COORDINATES (A.U.)
----------------------------
  NO LB      ZA    FRAG     MASS         X           Y           Z
   0 C     6.0000    0    12.011   -0.045482    2.262850   -0.000410
   1 C     6.0000    0    12.011    2.560699    2.304212    0.000396
   2 C     6.0000    0    12.011    3.880552    0.032625    0.000068
   3 C     6.0000    0    12.011    2.637946   -2.280097   -0.001931
   4 C     6.0000    0    12.011    0.033688   -2.325116   -0.002417
   5 C     6.0000    0    12.011   -1.433056   -0.054091   -0.000477
   6 C     6.0000    0    12.011   -4.120974   -0.168369    0.003417
   7 O     8.0000    0    15.999   -5.324955   -2.248904    0.010318
   8 C     6.0000    0    12.011   -5.596880    2.278824   -0.001486
   9 H     1.0000    0     1.008   -5.196333    3.451693    1.659419
  10 H     1.0000    0     1.008   -5.186215    3.451469   -1.660055
  11 H     1.0000    0     1.008   -7.610550    1.841792   -0.007327
  12 H     1.0000    0     1.008   -0.960475   -4.113547   -0.003716
  13 H     1.0000    0     1.008    3.724973   -4.017674   -0.003157
  14 F     9.0000    0    18.998    6.462593    0.077921    0.001943
  15 H     1.0000    0     1.008    3.584759    4.078821    0.001575
  16 H     1.0000    0     1.008   -1.045812    4.048768    0.000610

--------------------------------
INTERNAL COORDINATES (ANGSTROEM)
--------------------------------
 C      0   0   0     0.000000000000     0.00000000     0.00000000
 C      1   0   0     1.379305022657     0.00000000     0.00000000
 C      2   1   0     1.390248518523   119.24847412     0.00000000
 C      3   2   1     1.389304992694   121.59351532     0.00000000
 C      4   3   2     1.378319878331   119.23910179   359.96937807
 C      1   2   3     1.429129095830   121.82588923     0.02747703
 C      6   1   2     1.423671471422   123.35110620   179.87980044
 O      7   6   1     1.272034566124   122.49205037   180.19847558
 C      7   6   1     1.512287827104   118.65948334     0.21361922
 H      9   7   6     1.096644499734   112.54732207   299.56678007
 H      9   7   6     1.096634748331   112.55585328    59.83932504
 H      9   7   6     1.090400372303   108.84926376   179.71371634
 H      5   4   3     1.082791360092   120.05940662   180.00817145
 H      4   3   2     1.084593881336   119.72119015   179.96702047
 F      3   2   1     1.366567744289   119.15269386   180.02728654
 H      2   1   3     1.084224076231   120.89689245   180.00965395
 H      1   2   3     1.083219771209   118.34485666   179.97610470

---------------------------
INTERNAL COORDINATES (A.U.)
---------------------------
 C      0   0   0     0.000000000000     0.00000000     0.00000000
 C      1   0   0     2.606508747965     0.00000000     0.00000000
 C      2   1   0     2.627188958099   119.24847412     0.00000000
 C      3   2   1     2.625405952681   121.59351532     0.00000000
 C      4   3   2     2.604647094986   119.23910179   359.96937807
 C      1   2   3     2.700662601136   121.82588923     0.02747703
 C      6   1   2     2.690349185665   123.35110620   179.87980044
 O      7   6   1     2.403796962855   122.49205037   180.19847558
 C      7   6   1     2.857809828889   118.65948334     0.21361922
 H      9   7   6     2.072357770768   112.54732207   299.56678007
 H      9   7   6     2.072339343287   112.55585328    59.83932504
 H      9   7   6     2.060558079978   108.84926376   179.71371634
 H      5   4   3     2.046179130751   120.05940662   180.00817145
 H      4   3   2     2.049585402252   119.72119015   179.96702047
 F      3   2   1     2.582438780157   119.15269386   180.02728654
 H      2   1   3     2.048886571881   120.89689245   180.00965395
 H      1   2   3     2.046988710433   118.34485666   179.97610470

---------------------
BASIS SET INFORMATION
---------------------
There are 4 groups of distinct atoms

 Group   1 Type C   : 19s6p3d2f contracted to 5s4p3d2f pattern {88111/3111/111/11}
 Group   2 Type O   : 19s6p3d2f contracted to 5s4p3d2f pattern {88111/3111/111/11}
 Group   3 Type H   : 6s3p2d contracted to 4s3p2d pattern {3111/111/11}
 Group   4 Type F   : 19s6p3d2f contracted to 5s4p3d2f pattern {88111/3111/111/11}

Atom   0C    basis set group =>   1
Atom   1C    basis set group =>   1
Atom   2C    basis set group =>   1
Atom   3C    basis set group =>   1
Atom   4C    basis set group =>   1
Atom   5C    basis set group =>   1
Atom   6C    basis set group =>   1
Atom   7O    basis set group =>   2
Atom   8C    basis set group =>   1
Atom   9H    basis set group =>   3
Atom  10H    basis set group =>   3
Atom  11H    basis set group =>   3
Atom  12H    basis set group =>   3
Atom  13H    basis set group =>   3
Atom  14F    basis set group =>   4
Atom  15H    basis set group =>   3
Atom  16H    basis set group =>   3
---------------------------------
AUXILIARY/J BASIS SET INFORMATION
---------------------------------
There are 4 groups of distinct atoms

 Group   1 Type C   : 12s5p4d2f1g contracted to 6s4p3d1f1g pattern {711111/2111/211/2/1}
 Group   2 Type O   : 12s5p4d2f1g contracted to 6s4p3d1f1g pattern {711111/2111/211/2/1}
 Group   3 Type H   : 5s2p1d contracted to 3s1p1d pattern {311/2/1}
 Group   4 Type F   : 12s5p4d2f1g contracted to 6s4p3d1f1g pattern {711111/2111/211/2/1}

Atom   0C    basis set group =>   1
Atom   1C    basis set group =>   1
Atom   2C    basis set group =>   1
Atom   3C    basis set group =>   1
Atom   4C    basis set group =>   1
Atom   5C    basis set group =>   1
Atom   6C    basis set group =>   1
Atom   7O    basis set group =>   2
Atom   8C    basis set group =>   1
Atom   9H    basis set group =>   3
Atom  10H    basis set group =>   3
Atom  11H    basis set group =>   3
Atom  12H    basis set group =>   3
Atom  13H    basis set group =>   3
Atom  14F    basis set group =>   4
Atom  15H    basis set group =>   3
Atom  16H    basis set group =>   3


           ************************************************************
           *        Program running with 12 parallel MPI-processes    *
           *              working on a common directory               *
           ************************************************************
------------------------------------------------------------------------------
                             ORCA STARTUP CALCULATIONS
                           -- RI-GTO INTEGRALS CHOSEN --
------------------------------------------------------------------------------
------------------------------------------------------------------------------
                   ___                                                        
                  /   \      - P O W E R E D   B Y -                         
                 /     \                                                     
                 |  |  |   _    _      __       _____    __    __             
                 |  |  |  | |  | |    /  \     |  _  \  |  |  /  |          
                  \  \/   | |  | |   /    \    | | | |  |  | /  /          
                 / \  \   | |__| |  /  /\  \   | |_| |  |  |/  /          
                |  |  |   |  __  | /  /__\  \  |    /   |      \           
                |  |  |   | |  | | |   __   |  |    \   |  |\   \          
                \     /   | |  | | |  |  |  |  | |\  \  |  | \   \       
                 \___/    |_|  |_| |__|  |__|  |_| \__\ |__|  \__/        
                                                                              
                      - O R C A' S   B I G   F R I E N D -                    
                                      &                                       
                       - I N T E G R A L  F E E D E R -                       
                                                                              
 v1 FN, 2020, v2 2021, v3 2022-2024                                           
------------------------------------------------------------------------------


----------------------
SHARK INTEGRAL PACKAGE
----------------------

Number of atoms                             ...     17
Number of basis functions                   ...    681
Number of shells                            ...    263
Maximum angular momentum                    ...      3
Integral batch strategy                     ... SHARK/LIBINT Hybrid
RI-J (if used) integral strategy            ... SPLIT-RIJ (Revised 2003 algorithm where possible)
Printlevel                                  ...      1
Contraction scheme used                     ... PARTIAL GENERAL contraction
Prescreening option                         ... SCHWARTZ
   Thresh                                   ... 2.500e-11
   Tcut                                     ... 2.500e-12
   Tpresel                                  ... 2.500e-12 
Coulomb Range Separation                    ... NOT USED
Exchange Range Separation                   ... NOT USED
Multipole approximations                    ... NOT USED
Finite Nucleus Model                        ... NOT USED
CABS basis                                  ... NOT available
Auxiliary Coulomb fitting basis             ... AVAILABLE
   # of basis functions in Aux-J            ...    567
   # of shells in Aux-J                     ...    185
   Maximum angular momentum in Aux-J        ...      4
Auxiliary J/K fitting basis                 ... NOT available
Auxiliary Correlation fitting basis         ... NOT available
Auxiliary 'external' fitting basis          ... NOT available

Checking pre-screening integrals            ... done (  0.1 sec) Dimension = 263
Save PGC pre-screening integrals            ... done (  0.1 sec) Dimension = 263
Calculate PGC overlap integrals             ... done (  0.1 sec) Dimension = 203
Calculating pre-screening integrals (ORCA)  ... done (  0.2 sec) Dimension = 203
Check shell pair data                       ... done (  0.0 sec)
Shell pair information
Shell pair cut-off parameter TPreSel        ...   2.5e-12
Total number of shell pairs                 ...     34716
Shell pairs after pre-screening             ...     28459
Total number of primitive shell pairs       ...     44304
Primitive shell pairs kept                  ...     33907
          la=0 lb=0:   6444 shell pairs
          la=1 lb=0:   7205 shell pairs
          la=1 lb=1:   1782 shell pairs
          la=2 lb=0:   5084 shell pairs
          la=2 lb=1:   2499 shell pairs
          la=2 lb=2:    910 shell pairs
          la=3 lb=0:   2363 shell pairs
          la=3 lb=1:   1150 shell pairs
          la=3 lb=2:    824 shell pairs
          la=3 lb=3:    198 shell pairs

Calculating one electron integrals          ... done (  0.1 sec)
Calculating RI/J V-Matrix + Cholesky decomp.... done (  0.1 sec)
Calculating Nuclear repulsion               ... done (  0.0 sec) ENN=    480.651234916228 Eh

Diagonalization of the overlap matrix:
Smallest eigenvalue                        ... 6.708e-07
Time for diagonalization                   ...    0.127 sec
Threshold for overlap eigenvalues          ... 1.000e-07
Number of eigenvalues below threshold      ... 0

IMPORTANT:
Smallest eigenvalue of S below the DiffSThresh (1.000e-06) while
Thresh>1e-12 and/or TCut>1e-13! In order to avoid SCF convergence issues,
Thresh will be set to at least 1e-12 and TCut to at least 1e-13.
This can be turned off by adding %SCF DiffSThresh -1 END to the input.

Time for construction of square roots      ...    0.082 sec
Total time needed                          ...    0.261 sec

-------------------
DFT GRID GENERATION
-------------------

General Integration Accuracy     IntAcc      ... 4.388
Radial Grid Type                 RadialGrid  ... OptM3 with GC (2021)
Angular Grid (max. ang.)         AngularGrid ... 4 (Lebedev-302)
Angular grid pruning method      GridPruning ... 4 (adaptive)
Weight generation scheme         WeightScheme... mBecke (2022)
Basis function cutoff            BFCut       ... 1.0000e-11
Integration weight cutoff        WCut        ... 1.0000e-14
Partially contracted basis set               ... off
Rotationally invariant grid construction     ... off
Angular grids for H and He will be reduced by one unit
Diffuse basis detected: some atoms will have their outermost
                        angular grid increased by 1.

Total number of grid points                  ...    86672
Total number of batches                      ...     1364
Average number of points per batch           ...       63
Average number of grid points per atom       ...     5098

---------------------
SHARK GRID GENERATION
---------------------

General Integration Accuracy     IntAcc      ... 4.388
Radial Grid Type                 RadialGrid  ... OptM3 with GC (2021)
Angular Grid (max. ang.)         AngularGrid ... 4 (Lebedev-302)
Angular grid pruning method      GridPruning ... 4 (adaptive)
Weight generation scheme         WeightScheme... mBecke (2022)
Basis function cutoff            BFCut       ... 1.0000e-11
Integration weight cutoff        WCut        ... 1.0000e-14
Partially contracted basis set               ... off
Rotationally invariant grid construction     ... off
Angular grids for H and He will be reduced by one unit
Diffuse basis detected: some atoms will have their outermost
                        angular grid increased by 1.
Steep s-basis detected: some atoms will have their radial
                        grid points doubled.

Total number of grid points                  ...   149989
Total number of batches                      ...     2353
Average number of points per batch           ...       63
Average number of grid points per atom       ...     8823

--------------------
COSX GRID GENERATION
--------------------

GRIDX 1
-------
General Integration Accuracy     IntAcc      ... 3.816
Radial Grid Type                 RadialGrid  ... OptM3 with GC (2021)
Angular Grid (max. ang.)         AngularGrid ... 1 (Lebedev-50)
Angular grid pruning method      GridPruning ... 4 (adaptive)
Weight generation scheme         WeightScheme... mBecke (2022)
Basis function cutoff            BFCut       ... 1.0000e-11
Integration weight cutoff        WCut        ... 1.0000e-14
Partially contracted basis set               ... on
Rotationally invariant grid construction     ... off
Angular grids for H and He will be reduced by one unit
Diffuse basis detected: some atoms will have their outermost
                        angular grid increased by 1.

Total number of grid points                  ...    10902
Total number of batches                      ...       92
Average number of points per batch           ...      118
Average number of grid points per atom       ...      641
UseSFitting                                  ... on

GRIDX 2
-------
General Integration Accuracy     IntAcc      ... 4.020
Radial Grid Type                 RadialGrid  ... OptM3 with GC (2021)
Angular Grid (max. ang.)         AngularGrid ... 2 (Lebedev-110)
Angular grid pruning method      GridPruning ... 4 (adaptive)
Weight generation scheme         WeightScheme... mBecke (2022)
Basis function cutoff            BFCut       ... 1.0000e-11
Integration weight cutoff        WCut        ... 1.0000e-14
Partially contracted basis set               ... on
Rotationally invariant grid construction     ... off
Angular grids for H and He will be reduced by one unit
Diffuse basis detected: some atoms will have their outermost
                        angular grid increased by 1.

Total number of grid points                  ...    26932
Total number of batches                      ...      219
Average number of points per batch           ...      122
Average number of grid points per atom       ...     1584
UseSFitting                                  ... on

GRIDX 3
-------
General Integration Accuracy     IntAcc      ... 4.338
Radial Grid Type                 RadialGrid  ... OptM3 with GC (2021)
Angular Grid (max. ang.)         AngularGrid ... 3 (Lebedev-194)
Angular grid pruning method      GridPruning ... 4 (adaptive)
Weight generation scheme         WeightScheme... mBecke (2022)
Basis function cutoff            BFCut       ... 1.0000e-11
Integration weight cutoff        WCut        ... 1.0000e-14
Partially contracted basis set               ... on
Rotationally invariant grid construction     ... off
Angular grids for H and He will be reduced by one unit
Diffuse basis detected: some atoms will have their outermost
                        angular grid increased by 1.

Total number of grid points                  ...    59621
Total number of batches                      ...      475
Average number of points per batch           ...      125
Average number of grid points per atom       ...     3507
UseSFitting                                  ... on
Initializing property integral containers    ... done (  0.1 sec)

SHARK setup successfully completed in   7.3 seconds

Maximum memory used throughout the entire STARTUP-calculation: 64.8 MB


           ************************************************************
           *        Program running with 12 parallel MPI-processes    *
           *              working on a common directory               *
           ************************************************************
-------------------------------------------------------------------------------
                                 ORCA GUESS
                   Start orbitals & Density for SCF / CASSCF
-------------------------------------------------------------------------------

------------
SCF SETTINGS
------------
Hamiltonian:
 Density Functional     Method          .... DFT(GTOs)
 Exchange Functional    Exchange        .... PBE
   PBE kappa parameter   XKappa         ....  0.804000
   PBE mue parameter    XMuePBE         ....  0.219520
 Correlation Functional Correlation     .... PBE
   PBE beta parameter  CBetaPBE         ....  0.066725
 LDA part of GGA corr.  LDAOpt          .... PW91-LDA
 Gradients option       PostSCFGGA      .... off
 Hybrid DFT is turned on
   Fraction HF Exchange ScalHFX         ....  0.250000
   Scaling of DF-GGA-X  ScalDFX         ....  0.750000
   Scaling of DF-GGA-C  ScalDFC         ....  1.000000
   Scaling of DF-LDA-C  ScalLDAC        ....  1.000000
   Perturbative correction              ....  0.000000
   NL short-range parameter             ....  6.900000
 RI-approximation to the Coulomb term is turned on
   Number of AuxJ basis functions       .... 567
   RIJ-COSX (HFX calculated with COS-X)).... on


General Settings:
 Integral files         IntName         .... cs_rporg_143_red_freq_04
 Hartree-Fock type      HFTyp           .... UHF
 Total Charge           Charge          ....   -1
 Multiplicity           Mult            ....    2
 Number of Electrons    NEL             ....   73
 Basis Dimension        Dim             ....  621
 Nuclear Repulsion      ENuc            ....    480.6512349162 Eh

Convergence Acceleration:
 AO-DIIS                CNVDIIS         .... on
   Start iteration      DIISMaxIt       ....     0
   Startup error        DIISStart       ....  0.200000
   # of expansion vecs  DIISMaxEq       ....     5
   Bias factor          DIISBfac        ....   1.050
   Max. coefficient     DIISMaxC        ....  10.000
 MO-DIIS                CNVKDIIS        .... off
 Trust-Rad. Augm. Hess. CNVTRAH         .... auto
   Auto Start mean grad. ratio tolernc. ....  1.125000
   Auto Start start iteration           ....    50
   Auto Start num. interpolation iter.  ....    10
   Max. Number of Micro iterations      ....    24
   Max. Number of Macro iterations      .... Maxiter - #DIIS iter
   Number of Davidson start vectors     ....     2
   Converg. threshold    (grad. norm)   ....   1.000e-05
   Grad. Scal. Fac. for Micro threshold ....   0.100
   Minimum threshold for Micro iter.    ....   1.000e-02
   NR start threshold (gradient norm)   ....   1.000e-04
   Initial trust radius                 ....   0.400
   Minimum AH scaling param. (alpha)    ....   1.000
   Maximum AH scaling param. (alpha)    .... 1000.000
   Quad. conv. algorithm                .... NR
   White noise on init. David. guess    .... on
   Maximum white noise                  ....   0.010
   Pseudo random numbers                .... off
   Inactive MOs                         .... canonical
   Orbital update algorithm             .... Taylor
   Preconditioner                       .... Diag
   Full preconditioner red. dimension   ....   250
 SOSCF                  CNVSOSCF        .... on
   Start iteration      SOSCFMaxIt      ....   150
   Startup grad/error   SOSCFStart      ....  0.001000
   Hessian update       SOSCFHessUp     .... L-BFGS
 Level Shifting         CNVShift        .... on
   Level shift para.    LevelShift      ....    0.2500
   Turn off err/grad.   ShiftErr        ....    0.0000
 Zerner damping         CNVZerner       .... off
 Static damping         CNVDamp         .... on
   Fraction old density DampFac         ....    0.8500
   Max. Damping (<1)    DampMax         ....    0.9800
   Min. Damping (>=0)   DampMin         ....    0.0000
   Turn off err/grad.   DampErr         ....    0.0300

SCF Procedure:
 Maximum # iterations   MaxIter         ....  1500
 SCF integral mode      SCFMode         .... Direct
   Integral package                     .... SHARK and LIBINT hybrid scheme
 Reset frequency        DirectResetFreq ....    20
 Integral Threshold     Thresh          ....  1.000e-12 Eh
 Primitive CutOff       TCut            ....  1.000e-13 Eh

Convergence Tolerance:
 Convergence Check Mode ConvCheckMode   .... Total+1el-Energy
 Convergence forced     ConvForced      .... 0
 Energy Change          TolE            ....  1.000e-08 Eh
 1-El. energy change                    ....  1.000e-05 Eh
 Orbital Gradient       TolG            ....  1.000e-05
 Orbital Rotation angle TolX            ....  1.000e-05
 DIIS Error             TolErr          ....  5.000e-07

------------------------------
INITIAL GUESS: MODEL POTENTIAL
------------------------------
Loading Hartree-Fock densities                     ... done
Calculating cut-offs                               ... done
Initializing the effective Hamiltonian             ... done
Setting up the integral package (SHARK)            ... done
Starting the Coulomb interaction                   ... done (   0.3 sec)
Making the grid                                    ... done (   0.4 sec)
Mapping shells                                     ... done
Starting the XC term evaluation                    ... done (   0.3 sec)
  promolecular density results
     # of electrons  =     71.999322405
     EX              =    -61.084732508
     EC              =     -2.404095446
     EX+EC           =    -63.488827954
Transforming the Hamiltonian                       ... done (   0.1 sec)
Diagonalizing the Hamiltonian                      ... done (   0.1 sec)
Back transforming the eigenvectors                 ... done (   0.2 sec)
Now organizing SCF variables                       ... done
                      ------------------
                      INITIAL GUESS DONE (   2.1 sec)
                      ------------------
             **** ENERGY FILE WAS UPDATED (cs_rporg_143_red_freq_04.en.tmp) ****
Finished Guess after   4.9 sec
Maximum memory used throughout the entire GUESS-calculation: 44.6 MB


           ************************************************************
           *        Program running with 12 parallel MPI-processes    *
           *              working on a common directory               *
           ************************************************************

-------------------------------------------------------------------------------------------
                                      ORCA LEAN-SCF
                              memory conserving SCF solver
-------------------------------------------------------------------------------------------

--------------------
CPCM SOLVATION MODEL
--------------------
CPCM parameters:
  Epsilon                                         ...      35.6880
  Refrac                                          ...       1.3442
  Rsolv                                           ...       2.1900
  Surface type                                    ...    GEPOL SES
  Discretization scheme                           ... Constant num. charges
  Epsilon function type                           ...         CPCM
Solvent:                                          ... ACETONITRILE
SMD-CDS solvent descriptors:
  Soln                                            ...       1.3442
  Soln25                                          ...       1.3416
  Sola                                            ...       0.0700
  Solb                                            ...       0.3200
  Solg                                            ...      41.2500
  Solc                                            ...       0.0000
  Solh                                            ...       0.0000
Radii:
  Scheme                                          ... Element-dependent radii
  Radius for C  used is    3.4960 Bohr (=   1.8500 Ang.)
  Radius for O  used is    4.0969 Bohr (=   2.1680 Ang.)
  Radius for H  used is    2.2677 Bohr (=   1.2000 Ang.)
  Radius for F  used is    3.2692 Bohr (=   1.7300 Ang.)
Calculating surface                               ...        done! (  0.0s)
Cavity surface points                             ...          577
Cavity Volume                                     ...    1087.0704
Cavity Surface-area                               ...     615.9389
Calculating surface distance matrix               ...        done! (  0.0s)
Performing Cholesky decomposition & store         ...        done! (  0.0s)
Overall time for CPCM initialization              ...                 0.1s

----------------------------------------D-I-I-S--------------------------------------------
Iteration    Energy (Eh)           Delta-E    RMSDP     MaxDP     DIISErr   Damp  Time(sec)
-------------------------------------------------------------------------------------------
               ***  Starting incremental Fock matrix formation  ***
    1    -483.5332753788958371     0.00e+00  6.08e-04  4.70e-02  1.73e-01  0.850  15.2
Warning: op=0 Small HOMO/LUMO gap (   0.014) - skipping pre-diagonalization
         Will do a full diagonalization
    2    -483.6159557461743361    -8.27e-02  6.98e-04  9.11e-02  1.23e-01  0.850  12.9
                               ***Turning on AO-DIIS***
    3    -483.6709934090328034    -5.50e-02  4.00e-04  3.03e-02  7.64e-02  0.850  12.1
    4    -483.7061402418991065    -3.51e-02  2.89e-04  2.50e-02  6.37e-02  0.850  11.2
    5    -483.7317826103864036    -2.56e-02  2.34e-04  2.12e-02  5.63e-02  0.850  10.8
    6    -483.7522396971691023    -2.05e-02  2.00e-04  1.80e-02  4.91e-02  0.850  11.1
    7    -483.7691883506907971    -1.69e-02  1.72e-04  1.52e-02  4.11e-02  0.850   9.4
    8    -483.7832542125198643    -1.41e-02  1.44e-04  1.29e-02  3.35e-02  0.850   9.2
    9    -483.7948020032127943    -1.15e-02  1.22e-04  1.09e-02  2.81e-02  0.850  10.1
   10    -483.8043405816509903    -9.54e-03  7.01e-04  6.21e-02  2.42e-02  0.000  11.1
   11    -483.8548374305581774    -5.05e-02  3.66e-05  3.61e-03  1.29e-03  0.000  10.0
   12    -483.8548786712945002    -4.12e-05  2.44e-05  2.79e-03  2.51e-03  0.000   9.2
                              *** Initializing SOSCF ***
---------------------------------------S-O-S-C-F--------------------------------------
Iteration    Energy (Eh)           Delta-E    RMSDP     MaxDP     MaxGrad    Time(sec)
--------------------------------------------------------------------------------------
   13    -483.8549083884823858    -2.97e-05  1.75e-05  2.01e-03  4.99e-04    10.1
               *** Restarting incremental Fock matrix formation ***
   14    -483.8549255369774755    -1.71e-05  2.04e-04  1.11e-02  6.42e-04    13.4
   15    -483.8549349440919514    -9.41e-06  1.65e-04  8.68e-03  3.76e-04    12.6
   16    -483.8549383064705580    -3.36e-06  1.51e-04  8.05e-03  3.21e-04    12.9
   17    -483.8549406705762976    -2.36e-06  2.06e-05  1.03e-03  9.05e-05    11.6
   18    -483.8549407988791700    -1.28e-07  1.41e-05  7.60e-04  6.68e-05    12.7
   19    -483.8549409552394991    -1.56e-07  1.61e-06  8.30e-05  2.93e-05    12.0
   20    -483.8549409608061751    -5.57e-09  4.12e-06  2.27e-04  1.65e-05    11.8
                 **** Energy Check signals convergence ****

               *****************************************************
               *                     SUCCESS                       *
               *           SCF CONVERGED AFTER  20 CYCLES          *
               *****************************************************

Recomputing exchange energy using gridx3       ... done (   14.073 sec)
Old exchange energy                            :    -15.613401645 Eh
New exchange energy                            :    -15.613405749 Eh
Exchange energy change after final integration :     -0.000004104 Eh
Total energy after final integration           :   -483.854945065 Eh

SMD CDS free energy correction energy :                -1.65462     Kcal/mol
Total Energy after SMD CDS correction =              -483.857581873 Eh
             **** ENERGY FILE WAS UPDATED (cs_rporg_143_red_freq_04.en.tmp) ****

----------------
TOTAL SCF ENERGY
----------------

Total Energy       :       -483.85758187277770 Eh          -13166.43417 eV

Components:
Nuclear Repulsion  :        480.65123491622751 Eh           13079.18503 eV
Electronic Energy  :       -964.42212636389877 Eh          -26243.26024 eV
One Electron Energy:      -1625.84986649740722 Eh          -44241.62407 eV
Two Electron Energy:        661.42774013350845 Eh           17998.36383 eV
CPCM Dielectric    :         -0.08404951313494 Eh              -2.28710 eV
SMD CDS (Gcds)     :         -0.00263680767101 Eh              -0.07175 eV

Virial components:
Potential Energy   :       -965.02574929429409 Eh          -26259.68565 eV
Kinetic Energy     :        481.16816742151639 Eh           13093.25148 eV
Virial Ratio       :          2.00558934408665

DFT components:
N(Alpha)           :       37.000015940521 electrons
N(Beta)            :       36.000047855775 electrons
N(Total)           :       73.000063796296 electrons
E(X)               :      -46.752798165188 Eh       
E(C)               :       -2.443842467191 Eh       
E(XC)              :      -49.196640632380 Eh       

CPCM Solvation Model Properties:
Surface-charge          :          0.95705393685359
Corrected charge        :          1.00000000000000
Outlying charge corr.   :          0.00013037941163 Eh               0.00355 eV
Free-energy (cav+disp)  :         -0.00263680767101 Eh              -0.07175 eV

---------------
SCF CONVERGENCE
---------------

  Last Energy change         ...    5.5667e-09  Tolerance :   1.0000e-08
  Last MAX-Density change    ...    2.2726e-04  Tolerance :   1.0000e-07
  Last RMS-Density change    ...    4.1223e-06  Tolerance :   5.0000e-09
  Last DIIS Error            ...    4.9878e-04  Tolerance :   5.0000e-07
  Last Orbital Gradient      ...    1.6474e-05  Tolerance :   1.0000e-05
  Last Orbital Rotation      ...    3.7464e-05  Tolerance :   1.0000e-05


----------------------
UHF SPIN CONTAMINATION
----------------------

Warning: in a DFT calculation there is little theoretical justification to 
         calculate <S**2> as in Hartree-Fock theory. We will do it anyways
         but you should keep in mind that the values have only limited relevance

Expectation value of <S**2>     :     0.770746
Ideal value S*(S+1) for S=0.5   :     0.750000
Deviation                       :     0.020746

----------------
ORBITAL ENERGIES
----------------
                 SPIN UP ORBITALS
  NO   OCC          E(Eh)            E(eV) 
   0   1.0000     -24.769096      -674.0014 
   1   1.0000     -19.125033      -520.4186 
   2   1.0000     -10.276453      -279.6365 
   3   1.0000     -10.235942      -278.5341 
   4   1.0000     -10.211667      -277.8736 
   5   1.0000     -10.211467      -277.8681 
   6   1.0000     -10.208371      -277.7839 
   7   1.0000     -10.203727      -277.6575 
   8   1.0000     -10.195965      -277.4463 
   9   1.0000     -10.189890      -277.2810 
  10   1.0000      -1.238588       -33.7037 
  11   1.0000      -0.984644       -26.7935 
  12   1.0000      -0.863701       -23.5025 
  13   1.0000      -0.767347       -20.8806 
  14   1.0000      -0.757129       -20.6025 
  15   1.0000      -0.715260       -19.4632 
  16   1.0000      -0.632122       -17.2009 
  17   1.0000      -0.613509       -16.6944 
  18   1.0000      -0.544537       -14.8176 
  19   1.0000      -0.540864       -14.7177 
  20   1.0000      -0.484784       -13.1917 
  21   1.0000      -0.474272       -12.9056 
  22   1.0000      -0.456241       -12.4150 
  23   1.0000      -0.437417       -11.9027 
  24   1.0000      -0.421062       -11.4577 
  25   1.0000      -0.419930       -11.4269 
  26   1.0000      -0.408897       -11.1266 
  27   1.0000      -0.390686       -10.6311 
  28   1.0000      -0.372261       -10.1297 
  29   1.0000      -0.365248        -9.9389 
  30   1.0000      -0.353920        -9.6306 
  31   1.0000      -0.326851        -8.8941 
  32   1.0000      -0.323158        -8.7936 
  33   1.0000      -0.263631        -7.1738 
  34   1.0000      -0.244899        -6.6640 
  35   1.0000      -0.218730        -5.9520 
  36   1.0000      -0.101211        -2.7541 
  37   0.0000       0.003108         0.0846 
  38   0.0000       0.003130         0.0852 
  39   0.0000       0.016168         0.4399 
  40   0.0000       0.019039         0.5181 
  41   0.0000       0.029867         0.8127 
  42   0.0000       0.033438         0.9099 
  43   0.0000       0.037563         1.0222 
  44   0.0000       0.046054         1.2532 
  45   0.0000       0.047102         1.2817 
  46   0.0000       0.061874         1.6837 
  47   0.0000       0.064257         1.7485 

                 SPIN DOWN ORBITALS
  NO   OCC          E(Eh)            E(eV) 
   0   1.0000     -24.768209      -673.9772 
   1   1.0000     -19.119009      -520.2547 
   2   1.0000     -10.271508      -279.5019 
   3   1.0000     -10.231388      -278.4102 
   4   1.0000     -10.213302      -277.9181 
   5   1.0000     -10.212953      -277.9086 
   6   1.0000     -10.205828      -277.7147 
   7   1.0000     -10.200775      -277.5772 
   8   1.0000     -10.195220      -277.4260 
   9   1.0000     -10.190299      -277.2921 
  10   1.0000      -1.236308       -33.6416 
  11   1.0000      -0.972722       -26.4691 
  12   1.0000      -0.859750       -23.3950 
  13   1.0000      -0.760925       -20.7058 
  14   1.0000      -0.753133       -20.4938 
  15   1.0000      -0.712215       -19.3803 
  16   1.0000      -0.623778       -16.9739 
  17   1.0000      -0.611014       -16.6265 
  18   1.0000      -0.541753       -14.7419 
  19   1.0000      -0.535802       -14.5799 
  20   1.0000      -0.483384       -13.1535 
  21   1.0000      -0.464747       -12.6464 
  22   1.0000      -0.451935       -12.2978 
  23   1.0000      -0.435874       -11.8607 
  24   1.0000      -0.419406       -11.4126 
  25   1.0000      -0.409142       -11.1333 
  26   1.0000      -0.406608       -11.0644 
  27   1.0000      -0.389068       -10.5871 
  28   1.0000      -0.368793       -10.0354 
  29   1.0000      -0.355663        -9.6781 
  30   1.0000      -0.351252        -9.5581 
  31   1.0000      -0.321648        -8.7525 
  32   1.0000      -0.299755        -8.1567 
  33   1.0000      -0.253936        -6.9099 
  34   1.0000      -0.221037        -6.0147 
  35   1.0000      -0.213518        -5.8101 
  36   0.0000      -0.013253        -0.3606 
  37   0.0000       0.005361         0.1459 
  38   0.0000       0.008590         0.2337 
  39   0.0000       0.017241         0.4692 
  40   0.0000       0.021258         0.5785 
  41   0.0000       0.033962         0.9241 
  42   0.0000       0.034966         0.9515 
  43   0.0000       0.038888         1.0582 
  44   0.0000       0.047535         1.2935 
  45   0.0000       0.057965         1.5773 
  46   0.0000       0.063455         1.7267 
*Only the first 10 virtual orbitals were printed.

                    ********************************
                    * MULLIKEN POPULATION ANALYSIS *
                    ********************************

--------------------------------------------
MULLIKEN ATOMIC CHARGES AND SPIN POPULATIONS
--------------------------------------------
   0 C :   -0.581815    0.206578
   1 C :   -0.942334   -0.089489
   2 C :    0.502679    0.259755
   3 C :   -0.808056   -0.090314
   4 C :   -0.947315    0.225583
   5 C :    1.363755    0.058380
   6 C :    0.450956    0.222774
   7 O :   -1.075559    0.230782
   8 C :   -0.707167   -0.017861
   9 H :    0.267340    0.010863
  10 H :    0.268027    0.010740
  11 H :    0.174954    0.000602
  12 H :    0.289881   -0.024013
  13 H :    0.526117    0.000886
  14 F :   -0.526662    0.012568
  15 H :    0.509091    0.002672
  16 H :    0.236110   -0.020508
Sum of atomic charges         :   -1.0000000
Sum of atomic spin populations:    1.0000000

-----------------------------------------------------
MULLIKEN REDUCED ORBITAL CHARGES AND SPIN POPULATIONS
-----------------------------------------------------
CHARGE
  0 C s       :     3.852361  s :     3.852361
      pz      :     1.048732  p :     2.603460
      px      :     0.562907
      py      :     0.991821
      dz2     :    -0.024508  d :     0.138415
      dxz     :     0.014105
      dyz     :     0.031418
      dx2y2   :    -0.057982
      dxy     :     0.175382
      f0      :     0.002026  f :    -0.012421
      f+1     :     0.000131
      f-1     :     0.000055
      f+2     :     0.000104
      f-2     :    -0.001088
      f+3     :     0.000744
      f-3     :    -0.014393

  1 C s       :     3.741307  s :     3.741307
      pz      :     0.992490  p :     2.949555
      px      :     1.069788
      py      :     0.887276
      dz2     :     0.015398  d :     0.267273
      dxz     :     0.047341
      dyz     :     0.018456
      dx2y2   :     0.107643
      dxy     :     0.078435
      f0      :     0.000840  f :    -0.015801
      f+1     :    -0.000871
      f-1     :     0.000869
      f+2     :     0.001343
      f-2     :    -0.002570
      f+3     :     0.000316
      f-3     :    -0.015728

  2 C s       :     3.174414  s :     3.174414
      pz      :     1.054668  p :     2.221849
      px      :     0.362157
      py      :     0.805024
      dz2     :    -0.022760  d :     0.101684
      dxz     :     0.022866
      dyz     :     0.032148
      dx2y2   :     0.067564
      dxy     :     0.001867
      f0      :     0.002156  f :    -0.000626
      f+1     :    -0.001237
      f-1     :    -0.000430
      f+2     :     0.003896
      f-2     :     0.001409
      f+3     :    -0.003837
      f-3     :    -0.002583

  3 C s       :     3.630306  s :     3.630306
      pz      :     0.986371  p :     2.934440
      px      :     1.003649
      py      :     0.944420
      dz2     :     0.009475  d :     0.257014
      dxz     :     0.051571
      dyz     :     0.025029
      dx2y2   :     0.096988
      dxy     :     0.073952
      f0      :     0.000870  f :    -0.013704
      f+1     :    -0.000391
      f-1     :     0.001015
      f+2     :     0.001172
      f-2     :    -0.002569
      f+3     :     0.000324
      f-3     :    -0.014126

  4 C s       :     4.040343  s :     4.040343
      pz      :     1.022535  p :     2.803884
      px      :     0.764475
      py      :     1.016874
      dz2     :    -0.022948  d :     0.115996
      dxz     :     0.020567
      dyz     :     0.020448
      dx2y2   :    -0.011293
      dxy     :     0.109223
      f0      :     0.001493  f :    -0.012908
      f+1     :    -0.000838
      f-1     :    -0.000039
      f+2     :     0.000490
      f-2     :    -0.001185
      f+3     :     0.001408
      f-3     :    -0.014238

  5 C s       :     2.666731  s :     2.666731
      pz      :     1.017839  p :     1.959383
      px      :     0.323377
      py      :     0.618167
      dz2     :    -0.018158  d :     0.102384
      dxz     :     0.046226
      dyz     :    -0.008335
      dx2y2   :     0.062688
      dxy     :     0.019962
      f0      :     0.000746  f :    -0.092253
      f+1     :    -0.005442
      f-1     :    -0.000451
      f+2     :     0.002223
      f-2     :    -0.004367
      f+3     :    -0.012833
      f-3     :    -0.072129

  6 C s       :     3.404743  s :     3.404743
      pz      :     0.810265  p :     2.025962
      px      :     0.612593
      py      :     0.603104
      dz2     :     0.009328  d :     0.139552
      dxz     :     0.028630
      dyz     :     0.042715
      dx2y2   :     0.081421
      dxy     :    -0.022542
      f0      :     0.001587  f :    -0.021213
      f+1     :    -0.000281
      f-1     :     0.000381
      f+2     :     0.005065
      f-2     :     0.002966
      f+3     :    -0.007798
      f-3     :    -0.023133

  7 O s       :     4.141002  s :     4.141002
      pz      :     1.578942  p :     4.881339
      px      :     1.791890
      py      :     1.510507
      dz2     :     0.001387  d :     0.047925
      dxz     :     0.007157
      dyz     :     0.015580
      dx2y2   :     0.013079
      dxy     :     0.010721
      f0      :     0.000828  f :     0.005293
      f+1     :     0.000211
      f-1     :     0.000064
      f+2     :     0.000271
      f-2     :     0.001013
      f+3     :     0.000702
      f-3     :     0.002204

  8 C s       :     3.390635  s :     3.390635
      pz      :     1.137193  p :     3.201240
      px      :     1.035856
      py      :     1.028191
      dz2     :     0.010898  d :     0.106789
      dxz     :     0.008326
      dyz     :     0.053353
      dx2y2   :     0.026989
      dxy     :     0.007224
      f0      :     0.001065  f :     0.008503
      f+1     :    -0.000523
      f-1     :    -0.000438
      f+2     :     0.000921
      f-2     :     0.002443
      f+3     :     0.004171
      f-3     :     0.000865

  9 H s       :     0.685387  s :     0.685387
      pz      :     0.012404  p :     0.040516
      px      :     0.007958
      py      :     0.020154
      dz2     :     0.002068  d :     0.006757
      dxz     :     0.001587
      dyz     :    -0.000158
      dx2y2   :     0.002190
      dxy     :     0.001070

 10 H s       :     0.684851  s :     0.684851
      pz      :     0.012250  p :     0.040346
      px      :     0.007856
      py      :     0.020239
      dz2     :     0.002090  d :     0.006776
      dxz     :     0.001581
      dyz     :    -0.000156
      dx2y2   :     0.002196
      dxy     :     0.001066

 11 H s       :     0.791715  s :     0.791715
      pz      :     0.011980  p :     0.027230
      px      :     0.008066
      py      :     0.007184
      dz2     :    -0.000206  d :     0.006100
      dxz     :     0.002132
      dyz     :     0.000871
      dx2y2   :     0.001366
      dxy     :     0.001937

 12 H s       :     0.690699  s :     0.690699
      pz      :     0.023092  p :     0.014808
      px      :    -0.023260
      py      :     0.014976
      dz2     :    -0.000294  d :     0.004612
      dxz     :     0.000984
      dyz     :     0.002953
      dx2y2   :     0.001811
      dxy     :    -0.000842

 13 H s       :     0.479840  s :     0.479840
      pz      :     0.016633  p :    -0.009297
      px      :    -0.008477
      py      :    -0.017453
      dz2     :    -0.000988  d :     0.003341
      dxz     :     0.000846
      dyz     :     0.002731
      dx2y2   :    -0.000214
      dxy     :     0.000966

 14 F s       :     4.069310  s :     4.069310
      pz      :     1.939600  p :     5.418110
      px      :     1.491774
      py      :     1.986736
      dz2     :     0.001777  d :     0.035733
      dxz     :     0.015512
      dyz     :     0.000173
      dx2y2   :     0.005414
      dxy     :     0.012857
      f0      :     0.000467  f :     0.003509
      f+1     :     0.000377
      f-1     :     0.000083
      f+2     :     0.000668
      f-2     :     0.000032
      f+3     :     0.000704
      f-3     :     0.001177

 15 H s       :     0.489359  s :     0.489359
      pz      :     0.018635  p :    -0.002061
      px      :    -0.007505
      py      :    -0.013192
      dz2     :    -0.000823  d :     0.003612
      dxz     :     0.000742
      dyz     :     0.002969
      dx2y2   :    -0.000659
      dxy     :     0.001382

 16 H s       :     0.726873  s :     0.726873
      pz      :     0.023172  p :     0.027373
      px      :    -0.010833
      py      :     0.015034
      dz2     :     0.000283  d :     0.009643
      dxz     :     0.000878
      dyz     :     0.002925
      dx2y2   :     0.004611
      dxy     :     0.000947


SPIN
  0 C s       :     0.000932  s :     0.000932
      pz      :     0.156599  p :     0.199087
      px      :     0.030124
      py      :     0.012365
      dz2     :    -0.000222  d :     0.005895
      dxz     :    -0.000534
      dyz     :     0.008342
      dx2y2   :     0.001880
      dxy     :    -0.003572
      f0      :     0.000277  f :     0.000664
      f+1     :     0.000054
      f-1     :    -0.000321
      f+2     :    -0.000172
      f-2     :    -0.000037
      f+3     :     0.000294
      f-3     :     0.000570

  1 C s       :    -0.000921  s :    -0.000921
      pz      :    -0.081912  p :    -0.103992
      px      :    -0.011815
      py      :    -0.010265
      dz2     :     0.000354  d :     0.016092
      dxz     :     0.011701
      dyz     :     0.002785
      dx2y2   :     0.003300
      dxy     :    -0.002047
      f0      :     0.000109  f :    -0.000667
      f+1     :     0.000143
      f-1     :     0.000050
      f+2     :     0.000230
      f-2     :    -0.000783
      f+3     :     0.000531
      f-3     :    -0.000946

  2 C s       :    -0.008711  s :    -0.008711
      pz      :     0.240411  p :     0.266163
      px      :     0.002888
      py      :     0.022864
      dz2     :    -0.000865  d :     0.000636
      dxz     :     0.001284
      dyz     :    -0.001292
      dx2y2   :     0.001640
      dxy     :    -0.000131
      f0      :     0.000684  f :     0.001667
      f+1     :    -0.000279
      f-1     :    -0.000361
      f+2     :     0.000476
      f-2     :     0.000399
      f+3     :    -0.000051
      f-3     :     0.000799

  3 C s       :     0.003390  s :     0.003390
      pz      :    -0.091139  p :    -0.114256
      px      :    -0.013088
      py      :    -0.010029
      dz2     :     0.000431  d :     0.021457
      dxz     :     0.014980
      dyz     :     0.004709
      dx2y2   :     0.003889
      dxy     :    -0.002553
      f0      :     0.000152  f :    -0.000905
      f+1     :     0.000150
      f-1     :     0.000068
      f+2     :    -0.000074
      f-2     :    -0.000701
      f+3     :     0.000572
      f-3     :    -0.001073

  4 C s       :     0.006085  s :     0.006085
      pz      :     0.192735  p :     0.218115
      px      :     0.015879
      py      :     0.009500
      dz2     :    -0.000536  d :     0.001077
      dxz     :    -0.001025
      dyz     :     0.006090
      dx2y2   :    -0.002359
      dxy     :    -0.001093
      f0      :     0.000146  f :     0.000307
      f+1     :    -0.000027
      f-1     :    -0.000365
      f+2     :    -0.000232
      f-2     :     0.000011
      f+3     :     0.000437
      f-3     :     0.000336

  5 C s       :     0.005333  s :     0.005333
      pz      :     0.024024  p :     0.028863
      px      :     0.027197
      py      :    -0.022358
      dz2     :     0.000438  d :     0.027509
      dxz     :     0.027972
      dyz     :    -0.003408
      dx2y2   :     0.003760
      dxy     :    -0.001253
      f0      :     0.000281  f :    -0.003325
      f+1     :     0.000086
      f-1     :    -0.000145
      f+2     :     0.000591
      f-2     :    -0.001863
      f+3     :     0.000053
      f-3     :    -0.002328

  6 C s       :    -0.010316  s :    -0.010316
      pz      :     0.220745  p :     0.221532
      px      :     0.000798
      py      :    -0.000011
      dz2     :    -0.001215  d :     0.016103
      dxz     :     0.009996
      dyz     :     0.005582
      dx2y2   :     0.000927
      dxy     :     0.000813
      f0      :     0.000910  f :    -0.004545
      f+1     :    -0.000179
      f-1     :    -0.000310
      f+2     :     0.000800
      f-2     :    -0.001500
      f+3     :    -0.000449
      f-3     :    -0.003816

  7 O s       :     0.009595  s :     0.009595
      pz      :     0.203252  p :     0.214833
      px      :     0.006551
      py      :     0.005031
      dz2     :     0.000072  d :     0.006094
      dxz     :     0.001562
      dyz     :     0.004039
      dx2y2   :     0.000275
      dxy     :     0.000148
      f0      :     0.000097  f :     0.000260
      f+1     :     0.000001
      f-1     :    -0.000041
      f+2     :    -0.000006
      f-2     :     0.000126
      f+3     :     0.000000
      f-3     :     0.000082

  8 C s       :    -0.013326  s :    -0.013326
      pz      :    -0.009109  p :    -0.027448
      px      :    -0.005310
      py      :    -0.013029
      dz2     :     0.001119  d :     0.022355
      dxz     :    -0.000714
      dyz     :     0.022930
      dx2y2   :    -0.000708
      dxy     :    -0.000271
      f0      :     0.000378  f :     0.000558
      f+1     :     0.000248
      f-1     :    -0.000229
      f+2     :    -0.000160
      f-2     :     0.000585
      f+3     :    -0.000125
      f-3     :    -0.000139

  9 H s       :     0.006253  s :     0.006253
      pz      :     0.001661  p :     0.004411
      px      :     0.000294
      py      :     0.002457
      dz2     :     0.000087  d :     0.000199
      dxz     :     0.000018
      dyz     :    -0.000081
      dx2y2   :     0.000054
      dxy     :     0.000121

 10 H s       :     0.006219  s :     0.006219
      pz      :     0.001616  p :     0.004324
      px      :     0.000299
      py      :     0.002409
      dz2     :     0.000085  d :     0.000197
      dxz     :     0.000018
      dyz     :    -0.000080
      dx2y2   :     0.000052
      dxy     :     0.000121

 11 H s       :     0.000300  s :     0.000300
      pz      :     0.000252  p :     0.000588
      px      :     0.000275
      py      :     0.000060
      dz2     :    -0.000042  d :    -0.000286
      dxz     :    -0.000027
      dyz     :    -0.000191
      dx2y2   :     0.000018
      dxy     :    -0.000045

 12 H s       :    -0.026098  s :    -0.026098
      pz      :     0.001935  p :     0.002254
      px      :     0.000448
      py      :    -0.000128
      dz2     :     0.000008  d :    -0.000169
      dxz     :    -0.000040
      dyz     :     0.000075
      dx2y2   :    -0.000135
      dxy     :    -0.000076

 13 H s       :     0.004309  s :     0.004309
      pz      :    -0.002515  p :    -0.002690
      px      :    -0.000078
      py      :    -0.000097
      dz2     :     0.000001  d :    -0.000733
      dxz     :    -0.000328
      dyz     :    -0.000387
      dx2y2   :    -0.000012
      dxy     :    -0.000007

 14 F s       :     0.000755  s :     0.000755
      pz      :     0.012799  p :     0.008971
      px      :    -0.004681
      py      :     0.000853
      dz2     :     0.000092  d :     0.002706
      dxz     :     0.002436
      dyz     :    -0.000011
      dx2y2   :     0.000048
      dxy     :     0.000141
      f0      :     0.000048  f :     0.000136
      f+1     :     0.000009
      f-1     :     0.000000
      f+2     :     0.000081
      f-2     :    -0.000004
      f+3     :     0.000005
      f-3     :    -0.000003

 15 H s       :     0.005332  s :     0.005332
      pz      :    -0.001869  p :    -0.002016
      px      :     0.000159
      py      :    -0.000306
      dz2     :     0.000000  d :    -0.000644
      dxz     :    -0.000259
      dyz     :    -0.000360
      dx2y2   :    -0.000036
      dxy     :     0.000010

 16 H s       :    -0.020700  s :    -0.020700
      pz      :    -0.000377  p :     0.000461
      px      :    -0.000504
      py      :     0.001342
      dz2     :     0.000066  d :    -0.000269
      dxz     :    -0.000148
      dyz     :     0.000017
      dx2y2   :    -0.000169
      dxy     :    -0.000035



                     *******************************
                     * LOEWDIN POPULATION ANALYSIS *
                     *******************************

-------------------------------------------
LOEWDIN ATOMIC CHARGES AND SPIN POPULATIONS
-------------------------------------------
   0 C :    0.147775    0.089018
   1 C :    0.136735    0.022624
   2 C :   -0.578619    0.127128
   3 C :    0.130719    0.022903
   4 C :    0.137655    0.097735
   5 C :   -0.214745    0.114636
   6 C :   -0.677294    0.191084
   7 O :    0.322833    0.208035
   8 C :    0.495766    0.038354
   9 H :   -0.182345    0.009690
  10 H :   -0.182620    0.009625
  11 H :   -0.204219   -0.000629
  12 H :   -0.217946    0.024033
  13 H :   -0.190068   -0.006572
  14 F :    0.473445    0.037322
  15 H :   -0.189668   -0.005665
  16 H :   -0.207403    0.020679

----------------------------------------------------
LOEWDIN REDUCED ORBITAL CHARGES AND SPIN POPULATIONS
----------------------------------------------------
CHARGE
  0 C s       :     2.475038  s :     2.475038
      pz      :     0.620913  p :     2.290270
      px      :     0.844070
      py      :     0.825287
      dz2     :     0.069975  d :     0.741217
      dxz     :     0.130167
      dyz     :     0.073406
      dx2y2   :     0.214580
      dxy     :     0.253089
      f0      :     0.022227  f :     0.345701
      f+1     :     0.028546
      f-1     :     0.021784
      f+2     :     0.046487
      f-2     :     0.030176
      f+3     :     0.061811
      f-3     :     0.134669

  1 C s       :     2.492023  s :     2.492023
      pz      :     0.631546  p :     2.318942
      px      :     0.853011
      py      :     0.834385
      dz2     :     0.068097  d :     0.709619
      dxz     :     0.125511
      dyz     :     0.077277
      dx2y2   :     0.186867
      dxy     :     0.251867
      f0      :     0.020528  f :     0.342680
      f+1     :     0.028936
      f-1     :     0.023602
      f+2     :     0.053731
      f-2     :     0.029829
      f+3     :     0.061452
      f-3     :     0.124602

  2 C s       :     2.488075  s :     2.488075
      pz      :     0.716133  p :     2.282187
      px      :     0.649641
      py      :     0.916413
      dz2     :     0.103690  d :     1.101341
      dxz     :     0.178242
      dyz     :     0.138647
      dx2y2   :     0.381850
      dxy     :     0.298912
      f0      :     0.049565  f :     0.707015
      f+1     :     0.058892
      f-1     :     0.035773
      f+2     :     0.102775
      f-2     :     0.058838
      f+3     :     0.131323
      f-3     :     0.269850

  3 C s       :     2.493763  s :     2.493763
      pz      :     0.628069  p :     2.319439
      px      :     0.856369
      py      :     0.835001
      dz2     :     0.068344  d :     0.713721
      dxz     :     0.123165
      dyz     :     0.080460
      dx2y2   :     0.184427
      dxy     :     0.257325
      f0      :     0.020280  f :     0.342358
      f+1     :     0.028513
      f-1     :     0.023925
      f+2     :     0.056637
      f-2     :     0.026907
      f+3     :     0.060943
      f-3     :     0.125153

  4 C s       :     2.480476  s :     2.480476
      pz      :     0.621138  p :     2.298391
      px      :     0.849434
      py      :     0.827819
      dz2     :     0.070447  d :     0.735373
      dxz     :     0.126195
      dyz     :     0.069065
      dx2y2   :     0.219132
      dxy     :     0.250534
      f0      :     0.022361  f :     0.348105
      f+1     :     0.029572
      f-1     :     0.021452
      f+2     :     0.044184
      f-2     :     0.032333
      f+3     :     0.062468
      f-3     :     0.135735

  5 C s       :     2.466770  s :     2.466770
      pz      :     0.654996  p :     2.321087
      px      :     0.845151
      py      :     0.820941
      dz2     :     0.089031  d :     0.933059
      dxz     :     0.163850
      dyz     :     0.113325
      dx2y2   :     0.295737
      dxy     :     0.271116
      f0      :     0.030731  f :     0.493828
      f+1     :     0.036885
      f-1     :     0.032548
      f+2     :     0.049658
      f-2     :     0.065887
      f+3     :     0.077642
      f-3     :     0.200477

  6 C s       :     2.485293  s :     2.485293
      pz      :     0.623345  p :     2.277777
      px      :     0.845702
      py      :     0.808729
      dz2     :     0.101111  d :     1.259617
      dxz     :     0.178355
      dyz     :     0.204424
      dx2y2   :     0.387582
      dxy     :     0.388145
      f0      :     0.046153  f :     0.654607
      f+1     :     0.037523
      f-1     :     0.041041
      f+2     :     0.073370
      f-2     :     0.075314
      f+3     :     0.123379
      f-3     :     0.257827

  7 O s       :     3.206873  s :     3.206873
      pz      :     1.285975  p :     4.154023
      px      :     1.454088
      py      :     1.413960
      dz2     :     0.025152  d :     0.242448
      dxz     :     0.022066
      dyz     :     0.044288
      dx2y2   :     0.082070
      dxy     :     0.068873
      f0      :     0.006895  f :     0.073823
      f+1     :     0.003771
      f-1     :     0.007149
      f+2     :     0.003037
      f-2     :     0.011608
      f+3     :     0.014394
      f-3     :     0.026969

  8 C s       :     2.457034  s :     2.457034
      pz      :     0.771355  p :     2.313627
      px      :     0.770022
      py      :     0.772251
      dz2     :     0.083562  d :     0.536277
      dxz     :     0.033676
      dyz     :     0.162172
      dx2y2   :     0.156198
      dxy     :     0.100668
      f0      :     0.015324  f :     0.197296
      f+1     :     0.015269
      f-1     :     0.030827
      f+2     :     0.018484
      f-2     :     0.029560
      f+3     :     0.030437
      f-3     :     0.057394

  9 H s       :     0.622361  s :     0.622361
      pz      :     0.129735  p :     0.330215
      px      :     0.096228
      py      :     0.104252
      dz2     :     0.078108  d :     0.229769
      dxz     :     0.041728
      dyz     :     0.046545
      dx2y2   :     0.031315
      dxy     :     0.032074

 10 H s       :     0.622248  s :     0.622248
      pz      :     0.129633  p :     0.330406
      px      :     0.096514
      py      :     0.104259
      dz2     :     0.078198  d :     0.229967
      dxz     :     0.041517
      dyz     :     0.046497
      dx2y2   :     0.031605
      dxy     :     0.032150

 11 H s       :     0.636410  s :     0.636410
      pz      :     0.092161  p :     0.329614
      px      :     0.141202
      py      :     0.096250
      dz2     :     0.016781  d :     0.238196
      dxz     :     0.071769
      dyz     :     0.016893
      dx2y2   :     0.051813
      dxy     :     0.080939

 12 H s       :     0.654925  s :     0.654925
      pz      :     0.093284  p :     0.334195
      px      :     0.115464
      py      :     0.125447
      dz2     :     0.026382  d :     0.228826
      dxz     :     0.021938
      dyz     :     0.043884
      dx2y2   :     0.079017
      dxy     :     0.057605

 13 H s       :     0.663874  s :     0.663874
      pz      :     0.086811  p :     0.305779
      px      :     0.095927
      py      :     0.123040
      dz2     :     0.022930  d :     0.220415
      dxz     :     0.022939
      dyz     :     0.044820
      dx2y2   :     0.076490
      dxy     :     0.053237

 14 F s       :     3.418577  s :     3.418577
      pz      :     1.700877  p :     4.912408
      px      :     1.513791
      py      :     1.697739
      dz2     :     0.014696  d :     0.167310
      dxz     :     0.058373
      dyz     :     0.001457
      dx2y2   :     0.036344
      dxy     :     0.056441
      f0      :     0.003353  f :     0.028260
      f+1     :     0.002755
      f-1     :     0.000638
      f+2     :     0.006500
      f-2     :     0.000326
      f+3     :     0.004879
      f-3     :     0.009808

 15 H s       :     0.662815  s :     0.662815
      pz      :     0.088074  p :     0.306338
      px      :     0.093270
      py      :     0.124994
      dz2     :     0.022967  d :     0.220515
      dxz     :     0.021206
      dyz     :     0.046828
      dx2y2   :     0.074383
      dxy     :     0.055132

 16 H s       :     0.641836  s :     0.641836
      pz      :     0.093570  p :     0.333251
      px      :     0.115983
      py      :     0.123698
      dz2     :     0.024930  d :     0.232317
      dxz     :     0.024556
      dyz     :     0.044626
      dx2y2   :     0.082126
      dxy     :     0.056079


SPIN
  0 C s       :     0.002369  s :     0.002369
      pz      :     0.074042  p :     0.077455
      px      :     0.001891
      py      :     0.001522
      dz2     :    -0.000581  d :     0.009025
      dxz     :    -0.000724
      dyz     :     0.011900
      dx2y2   :    -0.000788
      dxy     :    -0.000782
      f0      :     0.001671  f :     0.000168
      f+1     :    -0.000127
      f-1     :    -0.000259
      f+2     :    -0.003654
      f-2     :     0.003397
      f+3     :    -0.000269
      f-3     :    -0.000590

  1 C s       :    -0.001922  s :    -0.001922
      pz      :    -0.034188  p :    -0.040304
      px      :    -0.003424
      py      :    -0.002692
      dz2     :     0.000337  d :     0.048361
      dxz     :     0.027555
      dyz     :     0.018202
      dx2y2   :     0.001079
      dxy     :     0.001187
      f0      :     0.002017  f :     0.016490
      f+1     :    -0.000002
      f-1     :     0.000025
      f+2     :     0.008864
      f-2     :     0.004636
      f+3     :     0.000604
      f-3     :     0.000344

  2 C s       :     0.005244  s :     0.005244
      pz      :     0.130000  p :     0.136297
      px      :     0.002036
      py      :     0.004261
      dz2     :    -0.000466  d :    -0.014500
      dxz     :    -0.000736
      dyz     :    -0.011565
      dx2y2   :    -0.000776
      dxy     :    -0.000957
      f0      :     0.004817  f :     0.000087
      f+1     :    -0.000181
      f-1     :    -0.000146
      f+2     :    -0.000541
      f-2     :    -0.002900
      f+3     :    -0.000353
      f-3     :    -0.000609

  3 C s       :    -0.002057  s :    -0.002057
      pz      :    -0.037767  p :    -0.044253
      px      :    -0.003563
      py      :    -0.002923
      dz2     :     0.000365  d :     0.051613
      dxz     :     0.030025
      dyz     :     0.018789
      dx2y2   :     0.001165
      dxy     :     0.001269
      f0      :     0.002108  f :     0.017601
      f+1     :    -0.000009
      f-1     :     0.000035
      f+2     :     0.010452
      f-2     :     0.003994
      f+3     :     0.000615
      f-3     :     0.000405

  4 C s       :     0.002727  s :     0.002727
      pz      :     0.087238  p :     0.091139
      px      :     0.002091
      py      :     0.001809
      dz2     :    -0.000710  d :     0.004825
      dxz     :    -0.003843
      dyz     :     0.011218
      dx2y2   :    -0.000921
      dxy     :    -0.000920
      f0      :     0.001238  f :    -0.000955
      f+1     :    -0.000137
      f-1     :    -0.000288
      f+2     :    -0.003600
      f-2     :     0.002783
      f+3     :    -0.000335
      f-3     :    -0.000616

  5 C s       :    -0.000286  s :    -0.000286
      pz      :     0.034142  p :     0.028947
      px      :    -0.003802
      py      :    -0.001393
      dz2     :    -0.000082  d :     0.058792
      dxz     :     0.049492
      dyz     :     0.007122
      dx2y2   :     0.001765
      dxy     :     0.000496
      f0      :     0.003326  f :     0.027183
      f+1     :    -0.000175
      f-1     :    -0.000098
      f+2     :     0.018992
      f-2     :     0.003945
      f+3     :     0.000734
      f-3     :     0.000459

  6 C s       :     0.003864  s :     0.003864
      pz      :     0.127404  p :     0.129282
      px      :     0.000661
      py      :     0.001217
      dz2     :    -0.000619  d :     0.035301
      dxz     :     0.021704
[...]
      1       0.033733   0.054389  -0.017435
      2       0.000017   0.000024  -0.000006
      3      -0.023189   0.028579  -0.008630
      4      -0.040895   0.047640  -0.013899
      5      -0.000031   0.000036  -0.000010
      6       0.000317   0.002008  -0.002683
      7       0.001497  -0.003652  -0.001905
      8       0.000000   0.000000  -0.000004
      9       0.028375  -0.006275  -0.021279
     10      -0.045718   0.008764   0.031126
     11      -0.000029   0.000005   0.000016
     12       0.010438   0.012090   0.037625
     13       0.022139   0.019892   0.064842
     14       0.000017   0.000016   0.000049
     15      -0.000376  -0.001056   0.001775
     16       0.000071  -0.001947  -0.000549
     17       0.000001  -0.000000   0.000000
     18      -0.000014  -0.000192   0.000652
     19       0.000455   0.000670   0.000860
     20       0.000002   0.000001  -0.000002
     21       0.000243   0.000309   0.000044
     22      -0.000078  -0.000044  -0.000482
     23      -0.000005  -0.000005  -0.000011
     24       0.001082   0.000869   0.000030
     25       0.001039   0.000939  -0.000147
     26       0.000009   0.000017  -0.000003
     27      -0.002462  -0.002716   0.000647
     28      -0.005378  -0.005521   0.001298
     29      -0.008440  -0.008859   0.002182
     30      -0.002536  -0.002791   0.000656
     31      -0.005326  -0.005385   0.001220
     32       0.008362   0.008670  -0.002069
     33      -0.011594  -0.009434  -0.003008
     34      -0.003258  -0.003181   0.000320
     35      -0.000030  -0.000024  -0.000006
     36      -0.144286  -0.129251  -0.411373
     37      -0.266265  -0.235239  -0.755216
     38      -0.000133  -0.000118  -0.000371
     39      -0.325907   0.061074   0.215791
     40       0.532244  -0.097374  -0.348130
     41       0.000351  -0.000064  -0.000228
     42      -0.000077  -0.000341   0.000412
     43      -0.000112   0.000222   0.000099
     44      -0.000001  -0.000001  -0.000002
     45       0.270451  -0.304822   0.090440
     46       0.479101  -0.535458   0.159646
     47       0.000349  -0.000401   0.000121
     48       0.224113   0.358927  -0.111055
     49      -0.397954  -0.630959   0.197251
     50      -0.000189  -0.000288   0.000094


-----------
IR SPECTRUM
-----------

 Mode   freq       eps      Int      T**2         TX        TY        TZ
       cm**-1   L/(mol*cm) km/mol    a.u.
----------------------------------------------------------------------------
  6:     92.71   0.000001    0.00  0.000002  ( 0.000203  0.000139 -0.001377)
  7:     97.42   0.000674    3.41  0.002159  (-0.000178  0.000421 -0.046463)
  8:    121.89   0.000990    5.00  0.002536  (-0.000032  0.000341 -0.050353)
  9:    178.56   0.001442    7.29  0.002520  ( 0.049036 -0.010748 -0.000304)
 10:    259.95   0.000015    0.08  0.000018  ( 0.000248  0.000100  0.004237)
 11:    331.44   0.000253    1.28  0.000238  ( 0.004844 -0.014637 -0.000383)
 12:    360.68   0.002012   10.17  0.001741  (-0.000101  0.000012  0.041721)
 13:    378.01   0.001040    5.25  0.000858  ( 0.023071  0.018053 -0.000016)
 14:    445.44   0.000185    0.94  0.000130  (-0.000004  0.000165  0.011387)
 15:    463.99   0.000376    1.90  0.000253  ( 0.014611 -0.006256  0.000034)
 16:    539.74   0.007885   39.85  0.004559  (-0.000306 -0.000110 -0.067519)
 17:    546.39   0.009914   50.10  0.005662  ( 0.067526 -0.033204  0.000250)
 18:    629.88   0.000098    0.50  0.000049  ( 0.001728  0.006759 -0.000139)
 19:    686.16   0.002757   13.93  0.001254  (-0.004029 -0.000838  0.035169)
 20:    686.43   0.017678   89.34  0.008037  (-0.087763 -0.018200 -0.001813)
 21:    772.28   0.017110   86.47  0.006914  ( 0.000392 -0.000104 -0.083148)
 22:    786.73   0.009873   49.89  0.003916  (-0.000889 -0.000272 -0.062573)
 23:    802.39   0.034809  175.91  0.013538  (-0.116293 -0.003723  0.000143)
 24:    934.97   0.000400    2.02  0.000134  (-0.000758  0.000286 -0.011527)
 25:    948.06   0.024870  125.68  0.008186  ( 0.090383 -0.004142 -0.000214)
 26:    953.26   0.000073    0.37  0.000024  (-0.004593  0.000097 -0.001659)
 27:    991.22   0.008917   45.06  0.002807  ( 0.052623 -0.006166 -0.000262)
 28:    999.87   0.000372    1.88  0.000116  ( 0.000800 -0.000044  0.010740)
 29:   1068.38   0.002010   10.16  0.000587  ( 0.019984 -0.013701 -0.000071)
 30:   1092.08   0.014437   72.96  0.004125  ( 0.028051  0.057779 -0.000011)
 31:   1144.17   0.000075    0.38  0.000020  ( 0.002955  0.003417  0.000152)
 32:   1214.69   0.041581  210.13  0.010682  ( 0.103274  0.004121  0.000119)
 33:   1270.74   0.007282   36.80  0.001788  (-0.030424 -0.029370  0.000151)
 34:   1320.49   0.003424   17.30  0.000809  ( 0.027105  0.008623 -0.000114)
 35:   1346.65   0.013486   68.15  0.003125  (-0.028797  0.047914 -0.000117)
 36:   1361.07   0.023848  120.52  0.005468  (-0.011161 -0.073098 -0.000004)
 37:   1419.74   0.013412   67.78  0.002948  (-0.033515 -0.042717  0.000156)
 38:   1437.04   0.054829  277.08  0.011907  (-0.101223 -0.040747  0.000243)
 39:   1449.02   0.002069   10.46  0.000446  (-0.000685 -0.000138 -0.021099)
 40:   1496.24   0.096174  486.02  0.020058  ( 0.136278  0.038560 -0.000256)
 41:   1518.40   0.000087    0.44  0.000018  ( 0.004232 -0.000140  0.000008)
 42:   1556.93   0.080175  405.17  0.016070  (-0.110842 -0.061512  0.000395)
 43:   1638.19   0.009389   47.45  0.001789  (-0.027074 -0.032489  0.000022)
 44:   3000.96   0.027605  139.50  0.002871  ( 0.038980 -0.036757 -0.000224)
 45:   3047.14   0.014878   75.19  0.001524  (-0.000025  0.000053  0.039034)
 46:   3122.57   0.006515   32.92  0.000651  (-0.022662 -0.011727 -0.000068)
 47:   3181.33   0.005160   26.08  0.000506  ( 0.022070 -0.004371  0.000040)
 48:   3181.58   0.000197    1.00  0.000019  (-0.000256 -0.004393 -0.000026)
 49:   3199.47   0.005327   26.92  0.000520  ( 0.002344  0.022674 -0.000015)
 50:   3202.73   0.001859    9.40  0.000181  (-0.008339  0.010565  0.000041)

* The epsilon (eps) is given for a Dirac delta lineshape.
** The dipole moment derivative (T) already includes vibrational overlap.

The first frequency considered to be a vibration is 6
The total number of vibrations considered is 45


--------------------------
THERMOCHEMISTRY AT 298.15K
--------------------------

Temperature         ...   298.15 K
Pressure            ...     1.00 atm
Total Mass          ...   138.14 AMU
Quasi RRHO          ...     True
Cut-Off Frequency   ...     1.00 cm^-1

Throughout the following assumptions are being made:
  (1) The electronic state is orbitally nondegenerate
      but the spin degeneracy is treated
  (2) There are no thermally accessible electronically excited states
  (3) Hindered rotations indicated by low frequency modes are not
      treated as such but are treated as vibrations and this may
      cause some error
  (4) All equations used are the standard statistical mechanics
      equations for an ideal gas
  (5) All vibrations are strictly harmonic

freq.      92.71  E(vib)   ...       0.47 
freq.      97.42  E(vib)   ...       0.46 
freq.     121.89  E(vib)   ...       0.44 
freq.     178.56  E(vib)   ...       0.37 
freq.     259.95  E(vib)   ...       0.30 
freq.     331.44  E(vib)   ...       0.24 
freq.     360.68  E(vib)   ...       0.22 
freq.     378.01  E(vib)   ...       0.21 
freq.     445.44  E(vib)   ...       0.17 
freq.     463.99  E(vib)   ...       0.16 
freq.     539.74  E(vib)   ...       0.12 
freq.     546.39  E(vib)   ...       0.12 
freq.     629.88  E(vib)   ...       0.09 
freq.     686.16  E(vib)   ...       0.07 
freq.     686.43  E(vib)   ...       0.07 
freq.     772.28  E(vib)   ...       0.05 
freq.     786.73  E(vib)   ...       0.05 
freq.     802.39  E(vib)   ...       0.05 
freq.     934.97  E(vib)   ...       0.03 
freq.     948.06  E(vib)   ...       0.03 
freq.     953.26  E(vib)   ...       0.03 
freq.     991.22  E(vib)   ...       0.02 
freq.     999.87  E(vib)   ...       0.02 
freq.    1068.38  E(vib)   ...       0.02 
freq.    1092.08  E(vib)   ...       0.02 
freq.    1144.17  E(vib)   ...       0.01 
freq.    1214.69  E(vib)   ...       0.01 
freq.    1270.74  E(vib)   ...       0.01 
freq.    1320.49  E(vib)   ...       0.01 
freq.    1346.65  E(vib)   ...       0.01 
freq.    1361.07  E(vib)   ...       0.01 
freq.    1419.74  E(vib)   ...       0.00 
freq.    1437.04  E(vib)   ...       0.00 
freq.    1449.02  E(vib)   ...       0.00 
freq.    1496.24  E(vib)   ...       0.00 
freq.    1518.40  E(vib)   ...       0.00 
freq.    1556.93  E(vib)   ...       0.00 
freq.    1638.19  E(vib)   ...       0.00 
freq.    3000.96  E(vib)   ...       0.00 
freq.    3047.14  E(vib)   ...       0.00 
freq.    3122.57  E(vib)   ...       0.00 
freq.    3181.33  E(vib)   ...       0.00 
freq.    3181.58  E(vib)   ...       0.00 
freq.    3199.47  E(vib)   ...       0.00 
freq.    3202.73  E(vib)   ...       0.00 

------------
INNER ENERGY
------------

The inner energy is: U= E(el) + E(ZPE) + E(vib) + E(rot) + E(trans)
    E(el)   - is the total energy from the electronic structure calculation
              = E(kin-el) + E(nuc-el) + E(el-el) + E(nuc-nuc)
    E(ZPE)  - the the zero temperature vibrational energy from the frequency calculation
    E(vib)  - the the finite temperature correction to E(ZPE) due to population
              of excited vibrational states
    E(rot)  - is the rotational thermal energy
    E(trans)- is the translational thermal energy

Summary of contributions to the inner energy U:
Electronic energy                ...   -483.87291836 Eh
Zero point energy                ...      0.12593045 Eh      79.02 kcal/mol
Thermal vibrational correction   ...      0.00622744 Eh       3.91 kcal/mol
Thermal rotational correction    ...      0.00141627 Eh       0.89 kcal/mol
Thermal translational correction ...      0.00141627 Eh       0.89 kcal/mol
-----------------------------------------------------------------------
Total thermal energy                   -483.73792793 Eh


Summary of corrections to the electronic energy:
(perhaps to be used in another calculation)
Total thermal correction                  0.00905998 Eh       5.69 kcal/mol
Non-thermal (ZPE) correction              0.12593045 Eh      79.02 kcal/mol
-----------------------------------------------------------------------
Total correction                          0.13499043 Eh      84.71 kcal/mol


--------
ENTHALPY
--------

The enthalpy is H = U + kB*T
                kB is Boltzmann's constant
Total thermal energy              ...   -483.73792793 Eh 
Thermal Enthalpy correction       ...      0.00094421 Eh       0.59 kcal/mol
-----------------------------------------------------------------------
Total Enthalpy                    ...   -483.73698372 Eh


Note: Only C1 symmetry has been detected, increase convergence thresholds 
      if your molecule has a higher symmetry. Symmetry factor of 1.0 is   
      used for the rotational entropy correction. 
 

Note: Rotational entropy computed according to Herzberg 
Infrared and Raman Spectra, Chapter V,1, Van Nostrand Reinhold, 1945 
Point Group:  C1, Symmetry Number:   1  
Rotational constants in cm-1:     0.121361     0.025699     0.021291 

Vibrational entropy computed according to the QRRHO of S. Grimme
Chem.Eur.J. 2012 18 9955 using a reference frequency of 100.0 cm-1


-------
ENTROPY
-------

The entropy contributions are T*S = T*(S(el)+S(vib)+S(rot)+S(trans))
     S(el)   - electronic entropy
     S(vib)  - vibrational entropy
     S(rot)  - rotational entropy
     S(trans)- translational entropy
The entropies will be listed as multiplied by the temperature to get
units of energy

Electronic entropy                ...      0.00065446 Eh      0.41 kcal/mol
Vibrational entropy               ...      0.01050402 Eh      6.59 kcal/mol
Rotational entropy                ...      0.01405220 Eh      8.82 kcal/mol
Translational entropy             ...      0.01932885 Eh     12.13 kcal/mol
-----------------------------------------------------------------------
Final entropy term                ...      0.04453952 Eh     27.95 kcal/mol

In case the symmetry of your molecule has not been determined correctly
or in case you have a reason to use a different symmetry number we print 
out the resulting rotational entropy values for sn=1,12:

 non-linear molecules -----------------------------------
|  sn= 1 | S(rot)=       0.01405220 Eh      8.82 kcal/mol|
|  sn= 2 | S(rot)=       0.01339774 Eh      8.41 kcal/mol|
|  sn= 3 | S(rot)=       0.01301491 Eh      8.17 kcal/mol|
|  sn= 4 | S(rot)=       0.01274329 Eh      8.00 kcal/mol|
|  sn= 5 | S(rot)=       0.01253260 Eh      7.86 kcal/mol|
|  sn= 6 | S(rot)=       0.01236045 Eh      7.76 kcal/mol|
|  sn= 7 | S(rot)=       0.01221491 Eh      7.66 kcal/mol|
|  sn= 8 | S(rot)=       0.01208883 Eh      7.59 kcal/mol|
|  sn= 9 | S(rot)=       0.01197762 Eh      7.52 kcal/mol|
|  sn=10 | S(rot)=       0.01187814 Eh      7.45 kcal/mol|
|  sn=11 | S(rot)=       0.01178815 Eh      7.40 kcal/mol|
|  sn=12 | S(rot)=       0.01170600 Eh      7.35 kcal/mol|
 linear molecules ---------------------------------------
|  Dinfh | S(rot)=       0.00896039 Eh      5.62 kcal/mol|
|  Cinfv | S(rot)=       0.00961484 Eh      6.03 kcal/mol|
 --------------------------------------------------------


-------------------
GIBBS FREE ENERGY
-------------------

The Gibbs free energy is G = H - T*S

Total enthalpy                    ...   -483.73698372 Eh 
Total entropy correction          ...     -0.04453952 Eh    -27.95 kcal/mol
-----------------------------------------------------------------------
Final Gibbs free energy         ...   -483.78152324 Eh

For completeness - the Gibbs free energy minus the electronic energy
G-E(el)                           ...      0.09139512 Eh     57.35 kcal/mol


Maximum memory used throughout the entire PROP-calculation: 350.7 MB

--------------------------------
SUGGESTED CITATIONS FOR THIS RUN
--------------------------------

Below you find a list of papers that are relevant to this ORCA run
We neither can nor want to force you to cite these papers, but we appreciate if you do
You receive ORCA, which is the product of decades of hard work by many enthusiastic individuals, for free
The only thing we kindly ask in return is that you cite our papers,
We deeply appreciate it, if you show your appreciation for ORCA by not just citing the generic ORCA reference.

Please note that relegating all ORCA citations to the supporting information does *not* help us.
SI sections are not indexed - citations you put there will not count into any citation statistics
But we need these citations in order to attract the funding resources that allow us to do what we are doing

Therefore, if you are a happy ORCA user, please consider citing a few of the papers listed below in the main body of your paper

In addition to the list printed below, the program has created the file cs_rporg_143_red_freq_04.bibtex that contains the list in bibtex format
You can import this file easily into all common literature databanks and citation aid programs


List of essential papers. We consider these as the minimum necessary citations

  1. Neese,F.
     Software update: the ORCA program system, version 5.0
     WIRES Comput. Molec. Sci., 2022 12(1)e1606
     doi.org/10.1002/wcms.1606

List of papers to cite with high priority. The work reported in these papers was absolutely
necessary for this run to complete.
Our perspective: the developers of density functionals and basis sets usually get cited in chemistry papers
Good! But without the algorithms to do something with them, the functionals or basis sets would not do anything.
Hence, in our opinion, the algorithm design and method developments papers are equally worthy of getting cited

  1. Neese,F.
     An improvement of the resolution of the identity approximation for the formation of the Coulomb matrix
     J. Comp. Chem., 2003 24(14)1740-1747
     doi.org/10.1002/jcc.10318
  2. Neese,F.; Wennmohs,F.; Hansen,A.; Becker,U.
     Efficient, approximate and parallel Hartree-Fock and hybrid DFT calculations. A 'chain-of-spheres' algorithm for the Hartree-Fock exchange
     Chem. Phys., 2009 356(1-3)98-109
     doi.org/10.1016/j.chemphys.2008.10.036
  3. Bykov,D.; Petrenko,T.; Izsak,R.; Kossmann,S.; Becker,U.; Valeev,E.; Neese,F.
     Efficient implementation of the analytic second derivatives of Hartree-Fock and hybrid DFT energies: a detailed analysis of different approximations
     Molec. Phys., 2015 113 1961-1977
     doi.org/10.1080/00268976.2015.1025114
  4. Garcia-Rates,M.; Neese,F.
     Efficient implementation of the analytical second derivatives of hartree-fock and hybrid DFT energies within the framework of the conductor-like polarizable continuum model
     J. Comput. Chem., 2019 40 1816-1828
     doi.org/10.1002/jcc.25833
  5. Garcia-Rates,M.; Neese,F.
     Effect of the Solute Cavity on the Solvation Energy and its Derivatives within the Framework of the Gaussian Charge Scheme
     J. Comput. Chem., 2020 41 922-939
     doi.org/10.1002/jcc.26139
  6. Helmich-Paris,B.; de Souza,B.; Neese,F.; Izsák,R.
     An improved chain of spheres for exchange algorithm
     J. Chem. Phys., 2021 155 104109
     doi.org/doi: 10.1063/5.0058766.
  7. Neese,F.
     The SHARK Integral Generation and Digestion System
     J. Comp. Chem., 2022  1-16
     doi.org/10.1002/jcc.26942
  8. Grimme,S.; Antony,J.; Ehrlich,S.; Krieg,H.
     A consistent and accurate ab initio parametrization of density functional dispersion correction (DFT-D) for the 94 elements H-Pu
     J. Chem. Phys., 2010 132 154104-XXXX
     doi.org/10.1063/1.3382344
  9. Grimme,S.; Ehrlich,S.; Goerigk,L.
     Effect of the damping function in dispersion corrected density functional theory
     J. Comput. Chem., 2011 32(7)1456-1465
     doi.org/10.1002/jcc.21759

List of suggested additional citations. These are papers that are important in the 'surrounding' of 
of this run, or papers that preceded the highly important papers. If you like your results we are grateful for a citation.

  1. Izsak,R.; Neese,F.
     An overlap fitted chain of spheres exchange method
     J. Chem. Phys., 2011 135 144105
     doi.org/10.1063/1.3646921
  2. Izsak,R.; Hansen,A.; Neese,F.
     The resolution of identity and chain of spheres approximations for the LPNO-CCSD singles Fock term
     Molec. Phys., 2012 110 2413-2417
     doi.org/10.1080/00268976.2012.687466
  3. Neese,F.
     The ORCA program system
     WIRES Comput. Molec. Sci., 2012 2(1)73-78
     doi.org/10.1002/wcms.81
  4. Izsak,R.; Neese,F.; Klopper,W.
     Robust fitting techniques in the chain of spheres approximation to the Fock exchange: The role of the complementary space
     J. Chem. Phys., 2013 139 
     doi.org/10.1063/1.4819264
  5. Neese,F.
     Software update: the ORCA program system, version 4.0
     WIRES Comput. Molec. Sci., 2018 8(1)1-6
     doi.org/10.1002/wcms.1327
  6. Neese,F.; Wennmohs,F.; Becker,U.; Riplinger,C.
     The ORCA quantum chemistry program package
     J. Chem. Phys., 2020 152 Art. No. L224108
     doi.org/10.1063/5.0004608

List of optional additional citations

  1. Neese,F.
     Approximate second-order SCF convergence for spin unrestricted wavefunctions
     Chem. Phys. Lett., 2000 325(1-3)93-98
     doi.org/10.1016/s0009-2614(00)00662-x

Timings for individual modules:

Sum of individual times          ...     2674.496 sec (=  44.575 min)
Startup calculation              ...        8.985 sec (=   0.150 min)   0.3 %
SCF iterations                   ...      258.440 sec (=   4.307 min)   9.7 %
Property integrals               ...      535.224 sec (=   8.920 min)  20.0 %
SCF Response                     ...      911.130 sec (=  15.185 min)  34.1 %
Property calculations            ...      960.718 sec (=  16.012 min)  35.9 %
                             ****ORCA TERMINATED NORMALLY****
TOTAL RUN TIME: 0 days 0 hours 44 minutes 38 seconds 33 msec
