 vasp.6.3.2 27Jun22 (build Oct 25 2024 11:36:28) complex                        
  
 executed on             LinuxIFC date 2025.01.03  20:16:14
 running on   80 total cores
 distrk:  each k-point on   80 cores,    1 groups
 distr:  one band on NCORE=  10 cores,    8 groups


--------------------------------------------------------------------------------------------------------


 INCAR:
   SYSTEM = 149_ox
   ISTART = 1
   ICHARG = 2
   INIWAV = 1
   METAGGA = R2SCAN
   LASPH = .TRUE.
   NELM = 100
   ALGO = fast   	
   ISPIN = 2
   EDIFF = 1E-05
   ISMEAR = 0
   SIGMA = 0.05
   PREC = accurate
   ENCUT = 500
   LREAL = auto  	
   LWAVE = .TRUE.
   LCHARG = .FALSE.
   LAECHG = .FALSE.
   LVHAR = .FALSE.
   LVTOT = .FALSE.
   EDIFFG = -0.02
   IBRION = 2
   NSW = 500
   ISIF = 2
   POTIM = 0.5
   IVDW = 12
   VDW_A1 = 0.49484001
   VDW_S8 = 0.78981345
   VDW_A2 = 5.73083694
   LPLANE = .TRUE.
   NCORE = 10
   LSCALU = .FALSE.
   NSIM = 4
   LSOL = .TRUE.
   ISOL = 2
   EPSILON_INF = 1.8069
   N_MOL = 0.0115
   P_MOL = 0.82
   R_SOLV = 2.1900
   EB_K = 35.6880

 POTCAR:    PAW_PBE C 08Apr2002                   
 POTCAR:    PAW_PBE F 08Apr2002                   
 POTCAR:    PAW_PBE O 08Apr2002                   
 POTCAR:    PAW_PBE H 15Jun2001                   
 -----------------------------------------------------------------------------
|                                                                             |
|           W    W    AA    RRRRR   N    N  II  N    N   GGGG   !!!           |
|           W    W   A  A   R    R  NN   N  II  NN   N  G    G  !!!           |
|           W    W  A    A  R    R  N N  N  II  N N  N  G       !!!           |
|           W WW W  AAAAAA  RRRRR   N  N N  II  N  N N  G  GGG   !            |
|           WW  WW  A    A  R   R   N   NN  II  N   NN  G    G                |
|           W    W  A    A  R    R  N    N  II  N    N   GGGG   !!!           |
|                                                                             |
|     You use a magnetic or noncollinear calculation, but did not specify     |
|     the initial magnetic moment with the MAGMOM tag. Note that a            |
|     default of 1 will be used for all atoms. This ferromagnetic setup       |
|     may break the symmetry of the crystal, in particular it may rule        |
|     out finding an antiferromagnetic solution. Thence, we recommend         |
|     setting the initial magnetic moment manually or verifying carefully     |
|     that this magnetic setup is desired.                                    |
|                                                                             |
 -----------------------------------------------------------------------------

 POTCAR:    PAW_PBE C 08Apr2002                   
   SHA256 =  253f7b50bb8d59471dbedb8285d89021f4a42ed1a2c5d38a03a736e69125dd95 C/POTCAR              
   COPYR  = (c) Copyright 08Apr2002 Georg Kresse                                                    
   COPYR  = This file is part of the software VASP. Any use, copying, and all other rights are regul
   COPYR  = If you do not have a valid VASP license, you may not use, copy or distribute this file. 
   VRHFIN =C: s2p2                                                                                  
   LEXCH  = PE                                                                                      
   EATOM  =   147.1560 eV,   10.8157 Ry                                                             
                                                                                                    
   TITEL  = PAW_PBE C 08Apr2002                                                                     
   LULTRA =        F    use ultrasoft PP ?                                                          
   IUNSCR =        1    unscreen: 0-lin 1-nonlin 2-no                                               
   RPACOR =    1.200    partial core radius                                                         
   POMASS =   12.011; ZVAL   =    4.000    mass and valenz                                          
   RCORE  =    1.500    outmost cutoff radius                                                       
   RWIGS  =    1.630; RWIGS  =    0.863    wigner-seitz radius (au A)                               
   ENMAX  =  400.000; ENMIN  =  300.000 eV                                                          
   ICORE  =        2    local potential                                                             
   LCOR   =        T    correct aug charges                                                         
   LPAW   =        T    paw PP                                                                      
   EAUG   =  644.873                                                                                
   DEXC   =    0.000                                                                                
   RMAX   =    1.529    core radius for proj-oper                                                   
   RAUG   =    1.300    factor for augmentation sphere                                              
   RDEP   =    1.501    radius for radial grids                                                     
   RDEPT  =    1.300    core radius for aug-charge                                                  
                                                                                                    
   Atomic configuration                                                                             
    4 entries                                                                                       
     n  l   j            E        occ.                                                              
     1  0  0.50      -273.3789   2.0000                                                             
     2  0  0.50       -13.7508   2.0000                                                             
     2  1  0.50        -5.2854   2.0000                                                             
     3  2  1.50        -5.4423   0.0000                                                             
   Description                                                                                      
     l       E           TYP  RCUT    TYP  RCUT                                                     
     0    -13.7508458     23  1.200                                                                 
     0     -8.2022199     23  1.200                                                                 
     1     -5.2854383     23  1.500                                                                 
     1     34.0145650     23  1.500                                                                 
     2     -5.4423304      7  1.500                                                                 
  local pseudopotential read in
  partial core-charges read in
  partial kinetic energy density read in
  atomic valenz-charges read in
  non local Contribution for L=           0  read in
    real space projection operators read in
  non local Contribution for L=           0  read in
    real space projection operators read in
  non local Contribution for L=           1  read in
    real space projection operators read in
  non local Contribution for L=           1  read in
    real space projection operators read in
    PAW grid and wavefunctions read in
 
   number of l-projection  operators is LMAX  =           4
   number of lm-projection operators is LMMAX =           8
 
 POTCAR:    PAW_PBE F 08Apr2002                   
   SHA256 =  53c630871ac675939349fc2b976745ee17808dedc90b5bdde026bc81f0faf456 F/POTCAR              
   COPYR  = (c) Copyright 08Apr2002 Georg Kresse                                                    
   COPYR  = This file is part of the software VASP. Any use, copying, and all other rights are regul
   COPYR  = If you do not have a valid VASP license, you may not use, copy or distribute this file. 
   VRHFIN =F: s2p5                                                                                  
   LEXCH  = PE                                                                                      
   EATOM  =   659.6475 eV,   48.4827 Ry                                                             
                                                                                                    
   TITEL  = PAW_PBE F 08Apr2002                                                                     
   LULTRA =        F    use ultrasoft PP ?                                                          
   IUNSCR =        1    unscreen: 0-lin 1-nonlin 2-no                                               
   RPACOR =    1.200    partial core radius                                                         
   POMASS =   18.998; ZVAL   =    7.000    mass and valenz                                          
   RCORE  =    1.520    outmost cutoff radius                                                       
   RWIGS  =    1.500; RWIGS  =    0.794    wigner-seitz radius (au A)                               
   ENMAX  =  400.000; ENMIN  =  300.000 eV                                                          
   ICORE  =        2    local potential                                                             
   LCOR   =        T    correct aug charges                                                         
   LPAW   =        T    paw PP                                                                      
   EAUG   =  613.614                                                                                
   RMAX   =    1.555    core radius for proj-oper                                                   
   RAUG   =    1.300    factor for augmentation sphere                                              
   RDEP   =    1.539    radius for radial grids                                                     
   RDEPT  =    1.299    core radius for aug-charge                                                  
                                                                                                    
   Atomic configuration                                                                             
    4 entries                                                                                       
     n  l   j            E        occ.                                                              
     1  0  0.50      -663.3661   2.0000                                                             
     2  0  0.50       -29.8995   2.0000                                                             
     2  1  0.50       -11.1114   5.0000                                                             
     3  2  1.50       -10.8847   0.0000                                                             
   Description                                                                                      
     l       E           TYP  RCUT    TYP  RCUT                                                     
     0    -29.8995018     23  1.200                                                                 
     0     -9.5240782     23  1.200                                                                 
     1    -11.1113914     23  1.520                                                                 
     1      1.3605826     23  1.520                                                                 
     2    -10.8846608      7  1.500                                                                 
  local pseudopotential read in
  partial core-charges read in
  partial kinetic energy density read in
  atomic valenz-charges read in
  non local Contribution for L=           0  read in
    real space projection operators read in
  non local Contribution for L=           0  read in
    real space projection operators read in
  non local Contribution for L=           1  read in
    real space projection operators read in
  non local Contribution for L=           1  read in
    real space projection operators read in
    PAW grid and wavefunctions read in
 
   number of l-projection  operators is LMAX  =           4
   number of lm-projection operators is LMMAX =           8
 
 POTCAR:    PAW_PBE O 08Apr2002                   
   SHA256 =  818f92134a0a090dccd8ba1447fa70422a3b330e708bb4f08108d8ae51209ddf O/POTCAR              
   COPYR  = (c) Copyright 08Apr2002 Georg Kresse                                                    
   COPYR  = This file is part of the software VASP. Any use, copying, and all other rights are regul
   COPYR  = If you do not have a valid VASP license, you may not use, copy or distribute this file. 
   VRHFIN =O: s2p4                                                                                  
   LEXCH  = PE                                                                                      
   EATOM  =   432.3788 eV,   31.7789 Ry                                                             
                                                                                                    
   TITEL  = PAW_PBE O 08Apr2002                                                                     
   LULTRA =        F    use ultrasoft PP ?                                                          
   IUNSCR =        1    unscreen: 0-lin 1-nonlin 2-no                                               
   RPACOR =    1.200    partial core radius                                                         
   POMASS =   16.000; ZVAL   =    6.000    mass and valenz                                          
   RCORE  =    1.520    outmost cutoff radius                                                       
   RWIGS  =    1.550; RWIGS  =    0.820    wigner-seitz radius (au A)                               
   ENMAX  =  400.000; ENMIN  =  300.000 eV                                                          
   ICORE  =        2    local potential                                                             
   LCOR   =        T    correct aug charges                                                         
   LPAW   =        T    paw PP                                                                      
   EAUG   =  605.392                                                                                
   DEXC   =    0.000                                                                                
   RMAX   =    1.553    core radius for proj-oper                                                   
   RAUG   =    1.300    factor for augmentation sphere                                              
   RDEP   =    1.550    radius for radial grids                                                     
   RDEPT  =    1.329    core radius for aug-charge                                                  
                                                                                                    
   Atomic configuration                                                                             
    4 entries                                                                                       
     n  l   j            E        occ.                                                              
     1  0  0.50      -514.6923   2.0000                                                             
     2  0  0.50       -23.9615   2.0000                                                             
     2  1  0.50        -9.0305   4.0000                                                             
     3  2  1.50        -9.5241   0.0000                                                             
   Description                                                                                      
     l       E           TYP  RCUT    TYP  RCUT                                                     
     0    -23.9615318     23  1.200                                                                 
     0     -9.5240782     23  1.200                                                                 
     1     -9.0304911     23  1.520                                                                 
     1      8.1634956     23  1.520                                                                 
     2     -9.5240782      7  1.500                                                                 
  local pseudopotential read in
  partial core-charges read in
  partial kinetic energy density read in
  kinetic energy density of atom read in
  atomic valenz-charges read in
  non local Contribution for L=           0  read in
    real space projection operators read in
  non local Contribution for L=           0  read in
    real space projection operators read in
  non local Contribution for L=           1  read in
    real space projection operators read in
  non local Contribution for L=           1  read in
    real space projection operators read in
    PAW grid and wavefunctions read in
 
   number of l-projection  operators is LMAX  =           4
   number of lm-projection operators is LMMAX =           8
 
 POTCAR:    PAW_PBE H 15Jun2001                   
   SHA256 =  030f79b5d3ab3cf0e668861823c8fb652ff669f3e15e46930bd03bfd63a607b6 H/POTCAR              
   COPYR  = (c) Copyright 15Jun2001 Georg Kresse                                                    
   COPYR  = This file is part of the software VASP. Any use, copying, and all other rights are regul
   COPYR  = If you do not have a valid VASP license, you may not use, copy or distribute this file. 
   VRHFIN =H: ultrasoft test                                                                        
   LEXCH  = PE                                                                                      
   EATOM  =    12.4884 eV,    0.9179 Ry                                                             
                                                                                                    
   TITEL  = PAW_PBE H 15Jun2001                                                                     
   LULTRA =        F    use ultrasoft PP ?                                                          
   IUNSCR =        0    unscreen: 0-lin 1-nonlin 2-no                                               
   RPACOR =    0.000    partial core radius                                                         
   POMASS =    1.000; ZVAL   =    1.000    mass and valenz                                          
   RCORE  =    1.100    outmost cutoff radius                                                       
   RWIGS  =    0.700; RWIGS  =    0.370    wigner-seitz radius (au A)                               
   ENMAX  =  250.000; ENMIN  =  200.000 eV                                                          
   RCLOC  =    0.701    cutoff for local pot                                                        
   LCOR   =        T    correct aug charges                                                         
   LPAW   =        T    paw PP                                                                      
   EAUG   =  400.000                                                                                
   RMAX   =    1.123    core radius for proj-oper                                                   
   RAUG   =    1.200    factor for augmentation sphere                                              
   RDEP   =    1.112    radius for radial grids                                                     
   RDEPT  =    0.926    core radius for aug-charge                                                  
                                                                                                    
   Atomic configuration                                                                             
    2 entries                                                                                       
     n  l   j            E        occ.                                                              
     1  0  0.50        -6.4927   1.0000                                                             
     2  1  0.50        -3.4015   0.0000                                                             
   Description                                                                                      
     l       E           TYP  RCUT    TYP  RCUT                                                     
     0     -6.4927494     23  1.100                                                                 
     0      6.8029130     23  1.100                                                                 
     1     -4.0817478     23  1.100                                                                 
  local pseudopotential read in
  atomic valenz-charges read in
  non local Contribution for L=           0  read in
    real space projection operators read in
  non local Contribution for L=           0  read in
    real space projection operators read in
  non local Contribution for L=           1  read in
    real space projection operators read in
    PAW grid and wavefunctions read in
 
   number of l-projection  operators is LMAX  =           3
   number of lm-projection operators is LMMAX =           5
 
 Optimization of the real space projectors (new method)

 maximal supplied QI-value         = 25.13
 optimisation between [QCUT,QGAM] = [ 11.31, 22.87] = [ 35.82,146.48] Ry 
 Optimized for a Real-space Cutoff    1.03 Angstroem

   l    n(q)    QCUT    max X(q) W(low)/X(q) W(high)/X(q)  e(spline) 
   0      7    11.310   115.676    0.20E-03    0.90E-03    0.20E-06
   0      7    11.310    87.132    0.20E-03    0.89E-03    0.19E-06
   1      6    11.310     4.429    0.16E-03    0.28E-03    0.12E-06
   1      6    11.310     2.733    0.12E-03    0.21E-03    0.99E-07
 Optimization of the real space projectors (new method)

 maximal supplied QI-value         = 24.76
 optimisation between [QCUT,QGAM] = [ 11.39, 22.77] = [ 36.31,145.25] Ry 
 Optimized for a Real-space Cutoff    1.10 Angstroem

   l    n(q)    QCUT    max X(q) W(low)/X(q) W(high)/X(q)  e(spline) 
   0      7    11.387    14.049    0.19E-03    0.36E-03    0.12E-06
   0      7    11.387     8.945    0.22E-03    0.47E-03    0.17E-06
   1      7    11.387     7.086    0.20E-03    0.70E-03    0.23E-06
   1      7    11.387     6.747    0.18E-03    0.60E-03    0.21E-06
 Optimization of the real space projectors (new method)

 maximal supplied QI-value         = 24.76
 optimisation between [QCUT,QGAM] = [ 11.39, 22.77] = [ 36.31,145.25] Ry 
 Optimized for a Real-space Cutoff    1.10 Angstroem

   l    n(q)    QCUT    max X(q) W(low)/X(q) W(high)/X(q)  e(spline) 
   0      7    11.387    20.381    0.22E-03    0.48E-03    0.18E-06
   0      7    11.387    15.268    0.22E-03    0.52E-03    0.19E-06
   1      7    11.387     5.964    0.22E-03    0.73E-03    0.24E-06
   1      7    11.387     5.382    0.19E-03    0.60E-03    0.21E-06
 Optimization of the real space projectors (new method)

 maximal supplied QI-value         = 34.20
 optimisation between [QCUT,QGAM] = [ 11.29, 22.57] = [ 35.68,142.71] Ry 
 Optimized for a Real-space Cutoff    1.20 Angstroem

   l    n(q)    QCUT    max X(q) W(low)/X(q) W(high)/X(q)  e(spline) 
   0      8    11.287    19.460    0.22E-03    0.50E-03    0.19E-06
   0      8    11.287    12.209    0.21E-03    0.48E-03    0.18E-06
   1      8    11.287     4.655    0.21E-03    0.11E-04    0.26E-06
  PAW_PBE C 08Apr2002                   :
 energy of atom  1       EATOM= -147.1560
 kinetic energy error for atom=    0.0076 (will be added to EATOM!!)
  PAW_PBE F 08Apr2002                   :
 energy of atom  2       EATOM= -659.6475
 kinetic energy error for atom=    0.0354 (will be added to EATOM!!)
  PAW_PBE O 08Apr2002                   :
 energy of atom  3       EATOM= -432.3788
 kinetic energy error for atom=    0.0224 (will be added to EATOM!!)
  PAW_PBE H 15Jun2001                   :
 energy of atom  4       EATOM=  -12.4884
 kinetic energy error for atom=    0.0020 (will be added to EATOM!!)
 
 
 POSCAR: C F O H
  positions in direct lattice
  velocities in cartesian coordinates

 METAGGA = R2SCA    LMAXTAU =  6    LMIXTAU =  F

 exchange correlation table for  LEXCH =        8
   RHO(1)=    0.500       N(1)  =     2000
   RHO(2)=  100.500       N(2)  =     4000
 
 POSCAR: C F O H
  positions in direct lattice
  velocities in cartesian coordinates
 
 POSCAR: C F O H
  positions in direct lattice
  velocities in cartesian coordinates
 


--------------------------------------------------------------------------------------------------------


 ion  position               nearest neighbor table
   1  0.507  0.536  0.500-  20 1.08   2 1.39   6 1.40
   2  0.472  0.537  0.500-  19 1.08   1 1.39   3 1.39
   3  0.455  0.506  0.501-   2 1.39   4 1.39   9 1.50
   4  0.472  0.476  0.501-  18 1.08   5 1.39   3 1.39
   5  0.507  0.476  0.500-  17 1.08   4 1.39   6 1.40
   6  0.524  0.506  0.500-   1 1.40   5 1.40   7 1.50
   7  0.562  0.507  0.500-  13 1.23   6 1.50   8 1.50
   8  0.581  0.475  0.500-  16 1.09  14 1.09  15 1.09   7 1.50
   9  0.417  0.506  0.500-  12 1.36  11 1.36  10 1.37   3 1.50
  10  0.405  0.496  0.470-   9 1.37
  11  0.405  0.484  0.523-   9 1.36
  12  0.404  0.536  0.506-   9 1.36
  13  0.576  0.534  0.500-   7 1.23
  14  0.575  0.460  0.522-   8 1.09
  15  0.574  0.460  0.478-   8 1.09
  16  0.608  0.481  0.499-   8 1.09
  17  0.520  0.452  0.500-   5 1.08
  18  0.458  0.452  0.501-   4 1.08
  19  0.458  0.560  0.500-   2 1.08
  20  0.520  0.560  0.500-   1 1.08
 
  LATTYP: Found a simple cubic cell.
 ALAT       =    40.0000000000
  
  Lattice vectors:
  
 A1 = (  40.0000000000,   0.0000000000,   0.0000000000)
 A2 = (   0.0000000000,  40.0000000000,   0.0000000000)
 A3 = (   0.0000000000,   0.0000000000,  40.0000000000)


Analysis of symmetry for initial positions (statically):
=====================================================================
 Subroutine PRICEL returns:
 Original cell was already a primitive cell.
 

 Routine SETGRP: Setting up the symmetry group for a 
 simple cubic supercell.


 Subroutine GETGRP returns: Found  1 space group operations
 (whereof  1 operations were pure point group operations)
 out of a pool of 48 trial point group operations.


The static configuration has the point symmetry C_1 .


Analysis of symmetry for dynamics (positions and initial velocities):
=====================================================================
 Subroutine PRICEL returns:
 Original cell was already a primitive cell.
 

 Routine SETGRP: Setting up the symmetry group for a 
 simple cubic supercell.


 Subroutine GETGRP returns: Found  1 space group operations
 (whereof  1 operations were pure point group operations)
 out of a pool of 48 trial point group operations.


The dynamic configuration has the point symmetry C_1 .


Analysis of constrained symmetry for selective dynamics:
=====================================================================
 Subroutine PRICEL returns:
 Original cell was already a primitive cell.
 

 Routine SETGRP: Setting up the symmetry group for a 
 simple cubic supercell.


 Subroutine GETGRP returns: Found  1 space group operations
 (whereof  1 operations were pure point group operations)
 out of a pool of 48 trial point group operations.


The constrained configuration has the point symmetry C_1 .


Analysis of structural, dynamic, and magnetic symmetry:
=====================================================================
 Subroutine PRICEL returns:
 Original cell was already a primitive cell.
 

 Routine SETGRP: Setting up the symmetry group for a 
 simple cubic supercell.


 Subroutine GETGRP returns: Found  1 space group operations
 (whereof  1 operations were pure point group operations)
 out of a pool of 48 trial point group operations.


The overall configuration has the point symmetry C_1 .


 Subroutine INISYM returns: Found  1 space group operations
 (whereof  1 operations are pure point group operations),
 and found     1 'primitive' translations


----------------------------------------------------------------------------------------

                                     Primitive cell                                     

  volume of cell :   64000.0000

  direct lattice vectors                    reciprocal lattice vectors
    40.000000000  0.000000000  0.000000000     0.025000000  0.000000000  0.000000000
     0.000000000 40.000000000  0.000000000     0.000000000  0.025000000  0.000000000
     0.000000000  0.000000000 40.000000000     0.000000000  0.000000000  0.025000000

  length of vectors
    40.000000000 40.000000000 40.000000000     0.025000000  0.025000000  0.025000000

  position of ions in fractional coordinates (direct lattice)
     0.506644996  0.536279863  0.500116831
     0.472001703  0.536516086  0.500302297
     0.454805773  0.506221644  0.500553926
     0.471948226  0.475867662  0.500565733
     0.506648094  0.475878931  0.500344709
     0.524293640  0.506100386  0.500099721
     0.561690213  0.507313670  0.499790196
     0.581006360  0.475140096  0.499600564
     0.417432661  0.505640751  0.499995376
     0.405240114  0.495636951  0.469677620
     0.404531078  0.483908712  0.522807667
     0.403529892  0.535878259  0.506385311
     0.576129074  0.534428907  0.499676293
     0.574973777  0.460169193  0.521656033
     0.574499822  0.460119178  0.477713153
     0.607625374  0.480705007  0.499306607
     0.519750524  0.452206994  0.500354363
     0.458314149  0.452458018  0.500773083
     0.458485374  0.559965540  0.500316001
     0.520449156  0.559564154  0.499964516

  ion indices of the primitive-cell ions
   primitive index   ion index
                 1           1
                 2           2
                 3           3
                 4           4
                 5           5
                 6           6
                 7           7
                 8           8
                 9           9
                10          10
                11          11
                12          12
                13          13
                14          14
                15          15
                16          16
                17          17
                18          18
                19          19
                20          20

----------------------------------------------------------------------------------------

 
 
 KPOINTS: K-Point Grid                            

Automatic generation of k-mesh.
 Grid dimensions read from file:
 generate k-points for:    1    1    1

 Generating k-lattice:

  Cartesian coordinates                     Fractional coordinates (reciprocal lattice)
     0.025000000  0.000000000  0.000000000     1.000000000  0.000000000  0.000000000
     0.000000000  0.025000000  0.000000000     0.000000000  1.000000000  0.000000000
     0.000000000  0.000000000  0.025000000     0.000000000  0.000000000  1.000000000

  Length of vectors
     0.025000000  0.025000000  0.025000000

  Shift w.r.t. Gamma in fractional coordinates (k-lattice)
     0.000000000  0.000000000  0.000000000

 
 Subroutine IBZKPT returns following result:
 ===========================================
 
 Found      1 irreducible k-points:
 
 Following reciprocal coordinates:
            Coordinates               Weight
  0.000000  0.000000  0.000000      1.000000
 
 Following cartesian coordinates:
            Coordinates               Weight
  0.000000  0.000000  0.000000      1.000000
 


--------------------------------------------------------------------------------------------------------




 Dimension of arrays:
   k-points           NKPTS =      1   k-points in BZ     NKDIM =      1   number of bands    NBANDS=     56
   number of dos      NEDOS =    301   number of ions     NIONS =     20
   non local maximal  LDIM  =      4   non local SUM 2l+1 LMDIM =      8
   total plane-waves  NPLWV = ******
   max r-space proj   IRMAX =   2915   max aug-charges    IRDMAX=   5350
   dimension x,y,z NGX =   294 NGY =  294 NGZ =  294
   dimension x,y,z NGXF=   588 NGYF=  588 NGZF=  588
   support grid    NGXF=   588 NGYF=  588 NGZF=  588
   ions per type =               9   3   1   7
   NGX,Y,Z   is equivalent  to a cutoff of  12.22, 12.22, 12.22 a.u.
   NGXF,Y,Z  is equivalent  to a cutoff of  24.44, 24.44, 24.44 a.u.

 SYSTEM =  149_ox                                  
 POSCAR =  C F O H                                 

 Startparameter for this run:
   NWRITE =      2    write-flag & timer
   PREC   = accura    normal or accurate (medium, high low for compatibility)
   ISTART =      1    job   : 0-new  1-cont  2-samecut
   ICHARG =      2    charge: 1-file 2-atom 10-const
   ISPIN  =      2    spin polarized calculation?
   LNONCOLLINEAR =      F non collinear calculations
   LSORBIT =      F    spin-orbit coupling
   INIWAV =      1    electr: 0-lowe 1-rand  2-diag
   LASPH  =      T    aspherical Exc in radial PAW
 Electronic Relaxation 1
   ENCUT  =  500.0 eV  36.75 Ry    6.06 a.u.  72.93 72.93 72.93*2*pi/ulx,y,z
   ENINI  =  500.0     initial cutoff
   ENAUG  =  644.9 eV  augmentation charge cutoff
   NELM   =    100;   NELMIN=  2; NELMDL=  0     # of ELM steps 
   EDIFF  = 0.1E-04   stopping-criterion for ELM
   LREAL  =      T    real-space projection
   NLSPLINE    = F    spline interpolate recip. space projectors
   LCOMPAT=      F    compatible to vasp.4.4
   GGA_COMPAT  = T    GGA compatible to vasp.4.4-vasp.4.6
   LMAXPAW     = -100 max onsite density
   LMAXMIX     =    2 max onsite mixed and CHGCAR
   VOSKOWN=      0    Vosko Wilk Nusair interpolation
   ROPT   =   -0.00025  -0.00025  -0.00025  -0.00025
 Ionic relaxation
   EDIFFG = -.2E-01   stopping-criterion for IOM
   NSW    =    500    number of steps for IOM
   NBLOCK =      1;   KBLOCK =    500    inner block; outer block 
   IBRION =      2    ionic relax: 0-MD 1-quasi-New 2-CG
   NFREE  =      1    steps in history (QN), initial steepest desc. (CG)
   ISIF   =      2    stress and relaxation
   IWAVPR =     11    prediction:  0-non 1-charg 2-wave 3-comb
   ISYM   =      2    0-nonsym 1-usesym 2-fastsym
   LCORR  =      T    Harris-Foulkes like correction to forces

   POTIM  = 0.5000    time-step for ionic-motion
   TEIN   =    0.0    initial temperature
   TEBEG  =    0.0;   TEEND  =   0.0 temperature during run
   SMASS  =  -3.00    Nose mass-parameter (am)
   estimated Nose-frequenzy (Omega)   =  0.10E-29 period in steps = 0.13E+47 mass=  -0.366E-25a.u.
   SCALEE = 1.0000    scale energy and forces
   NPACO  =    256;   APACO  = 10.0  distance and # of slots for P.C.
   PSTRESS=    0.0 pullay stress

  Mass of Ions in am
   POMASS =  12.01 19.00 16.00  1.00
  Ionic Valenz
   ZVAL   =   4.00  7.00  6.00  1.00
  Atomic Wigner-Seitz radii
   RWIGS  =  -1.00 -1.00 -1.00 -1.00
  virtual crystal weights 
   VCA    =   1.00  1.00  1.00  1.00
   NELECT =      70.0000    total number of electrons
   NUPDOWN=      -1.0000    fix difference up-down

 DOS related values:
   EMIN   =  10.00;   EMAX   =-10.00  energy-range for DOS
   EFERMI =   0.00
   ISMEAR =     0;   SIGMA  =   0.05  broadening in eV -4-tet -1-fermi 0-gaus

 Electronic relaxation 2 (details)
   IALGO  =     68    algorithm
   LDIAG  =      T    sub-space diagonalisation (order eigenvalues)
   LSUBROT=      F    optimize rotation matrix (better conditioning)
   TURBO    =      0    0=normal 1=particle mesh
   IRESTART =      0    0=no restart 2=restart with 2 vectors
   NREBOOT  =      0    no. of reboots
   NMIN     =      0    reboot dimension
   EREF     =   0.00    reference energy to select bands
   IMIX   =      4    mixing-type and parameters
     AMIX     =   0.40;   BMIX     =  1.00
     AMIX_MAG =   1.60;   BMIX_MAG =  1.00
     AMIN     =   0.10
     WC   =   100.;   INIMIX=   1;  MIXPRE=   1;  MAXMIX= -45

 Intra band minimization:
   WEIMIN = 0.0010     energy-eigenvalue tresh-hold
   EBREAK =  0.45E-07  absolut break condition
   DEPER  =   0.30     relativ break condition  

   TIME   =   0.40     timestep for ELM

  volume/ion in A,a.u.               =    3200.00     21594.67
  Fermi-wavevector in a.u.,A,eV,Ry     =   0.168674  0.318747  0.387097  0.028451
  Thomas-Fermi vector in A             =   0.875745
 
 Write flags
   LWAVE        =      T    write WAVECAR
   LDOWNSAMPLE  =      F    k-point downsampling of WAVECAR
   LCHARG       =      F    write CHGCAR
   LVTOT        =      F    write LOCPOT, total local potential
   LVHAR        =      F    write LOCPOT, Hartree potential only
   LELF         =      F    write electronic localiz. function (ELF)
   LORBIT       =      0    0 simple, 1 ext, 2 COOP (PROOUT), +10 PAW based schemes


 Dipole corrections
   LMONO  =      F    monopole corrections only (constant potential shift)
   LDIPOL =      F    correct potential (dipole corrections)
   IDIPOL =      0    1-x, 2-y, 3-z, 4-all directions 
   EPSILON=  1.0000000 bulk dielectric constant

 Exchange correlation treatment:
   GGA     =    --    GGA type
   LEXCH   =     8    internal setting for exchange type
   LIBXC   =     F    Libxc                    
   VOSKOWN =     0    Vosko Wilk Nusair interpolation
   LHFCALC =     F    Hartree Fock is set to
   LHFONE  =     F    Hartree Fock one center treatment
   AEXX    =    0.0000 exact exchange contribution

 Linear response parameters
   LEPSILON=     F    determine dielectric tensor
   LRPA    =     F    only Hartree local field effects (RPA)
   LNABLA  =     F    use nabla operator in PAW spheres
   LVEL    =     F    velocity operator in full k-point grid
   CSHIFT  =0.1000    complex shift for real part using Kramers Kronig
   OMEGAMAX=  -1.0    maximum frequency
   DEG_THRESHOLD= 0.2000000E-02 threshold for treating states as degnerate
   RTIME   =   -0.100 relaxation time in fs
  (WPLASMAI=    0.000 imaginary part of plasma frequency in eV, 0.658/RTIME)
   DFIELD  = 0.0000000 0.0000000 0.0000000 field for delta impulse in time
 
  Optional k-point grid parameters
   LKPOINTS_OPT  =     F    use optional k-point grid
   KPOINTS_OPT_MODE=     1    mode for optional k-point grid
 
 Orbital magnetization related:
   ORBITALMAG=     F  switch on orbital magnetization
   LCHIMAG   =     F  perturbation theory with respect to B field
   DQ        =  0.001000  dq finite difference perturbation B field
   LLRAUG    =     F  two centre corrections for induced B field

 Solvation model:
   LSOL             =     T         switch on solvation model
   LSOL_SCF         =     T         include solvation in SCF
   ISOL             =     2         solvation model type
   EFERMI_ref       =  0.000000         reference Fermi level
   capacitance_init =  1.000000         initial capacitance
 Nonlinear solvation model:
   LNLDIEL     =     T         switch on non-linear dielectric mode
   LNLION      =     T         switch on non-linear ionic mode
   LNLTEST     =     F         test non-linear model in linear regime
   I_NLOC_SOL  =     1         type of nonlocal dielectric response
   NC_K        =  0.015000     cutoff charge density for cavities (1/Angstrom**3)
   TAU         =  0.000879     cavity formation energy (eV/Angstrom**2)
   SIGMA_K     =  0.600000     cavity width
   A_K         =  0.125000     smoothing length (Angstrom)
   R_SOLV      =  2.190000     solvent radius (Angstrom)
   R_CAV       =  0.000000     cavity radius (Angstrom)
   R_DIEL      =  1.000000     dielectric radius (Angstrom)
   R_ION       =  0.000000     ionic radius (Angstrom)
   R_B         =  0.000000     bound charge radius (Angstrom)
   SOLTEMP     =298.000000     solvent temperature (K)
   EB_K        = 35.688000     relative permittivity of the bulk solvent
   EPSILON_INF =  1.806900     optical relative permittivity of bulk solvent
   N_MOL       =  0.011500     molar density of solvent (1/Angstrom**3)
   P_MOL       =  0.820000     solvent dipole moment (e*Angstrom)
   C_MOLAR     =  0.000000     electrolyte concentration (mol/L)
   LAMBDA_D_K  =  0.000000     Debye length (Angstrom)
   ZION        =  1.000000     charge of ions in electrolyte (e)
   D_ION       = -1.000000     minimum ion packing diameter (Angstrom)



--------------------------------------------------------------------------------------------------------


 conjugate gradient relaxation of ions
   using selective dynamics as specified on POSCAR
 charge density and potential will be updated during run
 spin polarized calculation
 RMM-DIIS sequential band-by-band and
  variant of blocked Davidson during initial phase
 perform sub-space diagonalisation
    before iterative eigenvector-optimisation
 modified Broyden-mixing scheme, WC =      100.0
 initial mixing is a Kerker type mixing with AMIX =  0.4000 and BMIX =      1.0000
 Hartree-type preconditioning will be used
 using additional bands           21
 real space projection scheme for non local part
 use partial core corrections
 calculate Harris-corrections to forces 
   (improved forces if not selfconsistent)
 use gradient corrections 
 use of overlap-Matrix (Vanderbilt PP)
 Gauss-broadening in eV      SIGMA  =   0.05


--------------------------------------------------------------------------------------------------------


  energy-cutoff  :      500.00
  volume of cell :    64000.00
      direct lattice vectors                 reciprocal lattice vectors
    40.000000000  0.000000000  0.000000000     0.025000000  0.000000000  0.000000000
     0.000000000 40.000000000  0.000000000     0.000000000  0.025000000  0.000000000
     0.000000000  0.000000000 40.000000000     0.000000000  0.000000000  0.025000000

  length of vectors
    40.000000000 40.000000000 40.000000000     0.025000000  0.025000000  0.025000000


 
 old parameters found on file WAVECAR:
  energy-cutoff  :      500.00
  volume of cell :    64000.00
      direct lattice vectors                 reciprocal lattice vectors
    40.000000000  0.000000000  0.000000000     0.025000000  0.000000000  0.000000000
     0.000000000 40.000000000  0.000000000     0.000000000  0.025000000  0.000000000
     0.000000000  0.000000000 40.000000000     0.000000000  0.000000000  0.025000000

  length of vectors

 
 k-points in units of 2pi/SCALE and weight: K-Point Grid                            
   0.00000000  0.00000000  0.00000000       1.000
 
 k-points in reciprocal lattice and weights: K-Point Grid                            
   0.00000000  0.00000000  0.00000000       1.000
 
 position of ions in fractional coordinates (direct lattice) 
   0.50664500  0.53627986  0.50011683
   0.47200170  0.53651609  0.50030230
   0.45480577  0.50622164  0.50055393
   0.47194823  0.47586766  0.50056573
   0.50664809  0.47587893  0.50034471
   0.52429364  0.50610039  0.50009972
   0.56169021  0.50731367  0.49979020
   0.58100636  0.47514010  0.49960056
   0.41743266  0.50564075  0.49999538
   0.40524011  0.49563695  0.46967762
   0.40453108  0.48390871  0.52280767
   0.40352989  0.53587826  0.50638531
   0.57612907  0.53442891  0.49967629
   0.57497378  0.46016919  0.52165603
   0.57449982  0.46011918  0.47771315
   0.60762537  0.48070501  0.49930661
   0.51975052  0.45220699  0.50035436
   0.45831415  0.45245802  0.50077308
   0.45848537  0.55996554  0.50031600
   0.52044916  0.55956415  0.49996452
 
 position of ions in cartesian coordinates  (Angst):
  20.26579985 21.45119451 20.00467323
  18.88006814 21.46064344 20.01209187
  18.19223092 20.24886575 20.02215704
  18.87792902 19.03470647 20.02262931
  20.26592376 19.03515723 20.01378837
  20.97174558 20.24401544 20.00398885
  22.46760850 20.29254679 19.99160785
  23.24025440 19.00560384 19.98402255
  16.69730643 20.22563006 19.99981504
  16.20960457 19.82547803 18.78710479
  16.18124312 19.35634847 20.91230667
  16.14119568 21.43513035 20.25541244
  23.04516297 21.37715628 19.98705173
  22.99895108 18.40676771 20.86624131
  22.97999286 18.40476711 19.10852610
  24.30501498 19.22820030 19.97226428
  20.79002094 18.08827975 20.01417453
  18.33256597 18.09832073 20.03092333
  18.33941496 22.39862159 20.01264005
  20.81796625 22.38256617 19.99858066
 


--------------------------------------------------------------------------------------------------------


 k-point   1 :   0.0000 0.0000 0.0000  plane waves: 1624525

 maximum and minimum number of plane-waves per node :    162473   162437

 maximum number of plane-waves:   1624525
 maximum index in each direction: 
   IXMAX=   72   IYMAX=   72   IZMAX=   72
   IXMIN=  -72   IYMIN=  -72   IZMIN=  -72


 real space projection operators:
  total allocation   :       2299.98 KBytes
  max/ min on nodes  :        239.96        220.34


 parallel 3D FFT for wavefunctions:
    minimum data exchange during FFTs selected (reduces bandwidth)
 parallel 3D FFT for charge:
    minimum data exchange during FFTs selected (reduces bandwidth)


 total amount of memory used by VASP MPI-rank0   919730. kBytes
=======================================================================

   base      :      30000. kBytes
   nonlr-proj:       1256. kBytes
   fftplans  :     167689. kBytes
   grid      :     684374. kBytes
   one-center:         12. kBytes
   wavefun   :      36399. kBytes
 
     INWAV:  cpu time      8.4621: real time      8.4810
 Broyden mixing: mesh for mixing (old mesh)
   NGX =145   NGY =145   NGZ =145
  (NGX  =588   NGY  =588   NGZ  =588)
  gives a total of ****** points

 initial charge density was supplied:
 charge density of overlapping atoms calculated
 number of electron      70.0000000 magnetization      20.0000000
 keeping initial charge density in first step


--------------------------------------------------------------------------------------------------------


 Maximum index for non-local projection operator          321
 Maximum index for augmentation-charges          337 (set IRDMAX)


--------------------------------------------------------------------------------------------------------


 First call to EWALD:  gamma=   0.044
 Maximum number of real-space cells 3x 3x 3
 Maximum number of reciprocal cells 3x 3x 3

    FEWALD:  cpu time      0.0014: real time      0.0014


--------------------------------------- Iteration      1(   1)  ---------------------------------------


    POTLOK:  cpu time      7.8498: real time      7.8722
    SETDIJ:  cpu time      0.3399: real time      0.3406
     EDDAV:  cpu time     45.5280: real time     45.6242
       DOS:  cpu time      0.0005: real time      0.0005
    CHARGE:  cpu time      5.7595: real time      5.7708
    MIXING:  cpu time      0.1787: real time      0.1790
    --------------------------------------------
      LOOP:  cpu time     59.6565: real time     59.7873

 eigenvalue-minimisations  :   280
 total energy-change (2. order) :-0.1448825E+03  (-0.6459279E+01)
 number of electron      69.9999999 magnetization      19.2294443
 augmentation part        5.6523265 magnetization      19.3322703

 Broyden mixing:
  rms(total) = 0.30117E+01    rms(broyden)= 0.30110E+01
  rms(prec ) = 0.30338E+01
  weight for this iteration     100.00

 Free energy of the ion-electron system (eV)
  ---------------------------------------------------
  alpha Z        PSCENC =         0.32846731
  Ewald energy   TEWEN  =      8590.77654832
  -Hartree energ DENC   =    -11545.05658047
  -exchange      EXHF   =         0.00000000
  -V(xc)+E(xc)   XCENC  =       326.06170515
  PAW double counting   =      2901.24268165    -2939.70467730
  entropy T*S    EENTRO =        -0.00000000
  eigenvalues    EBANDS =     -1301.46408260
  atomic energy  EATOM  =      3822.93345712
  Solvation  Ecorr_sol  =         0.00000000
  ---------------------------------------------------
  free energy    TOTEN  =      -144.88248082 eV

  energy without entropy =     -144.88248082  energy(sigma->0) =     -144.88248082


--------------------------------------------------------------------------------------------------------




--------------------------------------- Iteration      1(   2)  ---------------------------------------


    --------------------------------------------
      INIT:  cpu time      0.2015: real time      0.2015
  FINALIZE:  cpu time     24.0852: real time     24.1089
    --------------------------------------------
    POTLOK:  cpu time     32.3465: real time     32.3998
    SETDIJ:  cpu time      0.3382: real time      0.3389
    EDDIAG:  cpu time      9.5374: real time      9.5578
  RMM-DIIS:  cpu time     60.2165: real time     60.3438
    ORTHCH:  cpu time      0.1457: real time      0.1460
       DOS:  cpu time      0.0003: real time      0.0003
    CHARGE:  cpu time      5.7442: real time      5.7558
    MIXING:  cpu time      0.1248: real time      0.1248
    --------------------------------------------
      LOOP:  cpu time    108.4536: real time    108.6672

 eigenvalue-minimisations  :   226
 total energy-change (2. order) : 0.3214450E+02  (-0.7992370E+01)
 number of electron      70.0000000 magnetization      18.4448149
 augmentation part        5.5730612 magnetization      18.3129080

 Broyden mixing:
  rms(total) = 0.13923E+01    rms(broyden)= 0.13921E+01
  rms(prec ) = 0.14088E+01
  weight for this iteration     100.00

 eigenvalues of (default mixing * dielectric matrix)
  average eigenvalue GAMMA=   0.9186
  0.9186

 Free energy of the ion-electron system (eV)
  ---------------------------------------------------
  alpha Z        PSCENC =         0.32846731
  Ewald energy   TEWEN  =      8590.77654832
  -Hartree energ DENC   =    -11644.73416417
  -exchange      EXHF   =         0.00000000
  -V(xc)+E(xc)   XCENC  =       352.03013622
  PAW double counting   =      3961.41480982    -4001.20566649
  entropy T*S    EENTRO =        -0.00000000
  eigenvalues    EBANDS =     -1189.91446920
  atomic energy  EATOM  =      3822.93345712
  Solvation  Ecorr_sol  =        -4.36710392
  ---------------------------------------------------
  free energy    TOTEN  =      -112.73798499 eV

  energy without entropy =     -112.73798499  energy(sigma->0) =     -112.73798499


--------------------------------------------------------------------------------------------------------




--------------------------------------- Iteration      1(   3)  ---------------------------------------


    --------------------------------------------
      INIT:  cpu time      0.2013: real time      0.2014
  FINALIZE:  cpu time     29.1646: real time     29.2141
    --------------------------------------------
    POTLOK:  cpu time     37.3980: real time     37.4781
    SETDIJ:  cpu time      0.3383: real time      0.3390
    EDDIAG:  cpu time      9.5527: real time      9.5731
  RMM-DIIS:  cpu time     66.8710: real time     67.0132
    ORTHCH:  cpu time      0.1408: real time      0.1411
       DOS:  cpu time      0.0003: real time      0.0003
    CHARGE:  cpu time      5.7478: real time      5.7594
    MIXING:  cpu time      0.1358: real time      0.1359
    --------------------------------------------
      LOOP:  cpu time    120.1847: real time    120.4401

 eigenvalue-minimisations  :   258
 total energy-change (2. order) :-0.2284394E+02  (-0.2930944E+01)
 number of electron      70.0000000 magnetization      17.3532476
 augmentation part        5.5039089 magnetization      17.2071854

 Broyden mixing:
  rms(total) = 0.86649E+00    rms(broyden)= 0.86643E+00
  rms(prec ) = 0.87342E+00
  weight for this iteration     100.00

 eigenvalues of (default mixing * dielectric matrix)
  average eigenvalue GAMMA=   1.1313
  0.7842  1.4783

 Free energy of the ion-electron system (eV)
  ---------------------------------------------------
  alpha Z        PSCENC =         0.32846731
  Ewald energy   TEWEN  =      8590.77654832
  -Hartree energ DENC   =    -11711.46279150
  -exchange      EXHF   =         0.00000000
  -V(xc)+E(xc)   XCENC  =       337.33300153
  PAW double counting   =      4834.01035821    -4874.39216231
  entropy T*S    EENTRO =        -0.00000000
  eigenvalues    EBANDS =     -1127.64484804
  atomic energy  EATOM  =      3822.93345712
  Solvation  Ecorr_sol  =        -7.46395390
  ---------------------------------------------------
  free energy    TOTEN  =      -135.58192327 eV

  energy without entropy =     -135.58192327  energy(sigma->0) =     -135.58192327


--------------------------------------------------------------------------------------------------------




--------------------------------------- Iteration      1(   4)  ---------------------------------------


    --------------------------------------------
      INIT:  cpu time      0.2015: real time      0.2013
  FINALIZE:  cpu time     29.2731: real time     29.3042
    --------------------------------------------
    POTLOK:  cpu time     37.5729: real time     37.6293
    SETDIJ:  cpu time      0.3378: real time      0.3384
    EDDIAG:  cpu time      9.5492: real time      9.5694
  RMM-DIIS:  cpu time     75.9773: real time     76.1411
    ORTHCH:  cpu time      0.1458: real time      0.1461
       DOS:  cpu time      0.0009: real time      0.0009
    CHARGE:  cpu time      5.7468: real time      5.7585
    MIXING:  cpu time      0.1428: real time      0.1429
    --------------------------------------------
      LOOP:  cpu time    129.4735: real time    129.7266

 eigenvalue-minimisations  :   307
 total energy-change (2. order) :-0.9196728E+01  (-0.1474661E+01)
 number of electron      70.0000000 magnetization      16.4229177
 augmentation part        5.4249391 magnetization      16.2978575

 Broyden mixing:
  rms(total) = 0.54582E+00    rms(broyden)= 0.54577E+00
  rms(prec ) = 0.54901E+00
  weight for this iteration     100.00

 eigenvalues of (default mixing * dielectric matrix)
  average eigenvalue GAMMA=   1.2203
  1.8615  1.1017  0.6977

 Free energy of the ion-electron system (eV)
  ---------------------------------------------------
  alpha Z        PSCENC =         0.32846731
  Ewald energy   TEWEN  =      8590.77654832
  -Hartree energ DENC   =    -11766.38526878
  -exchange      EXHF   =         0.00000000
  -V(xc)+E(xc)   XCENC  =       333.16885965
  PAW double counting   =      5772.29675355    -5812.76556944
  entropy T*S    EENTRO =        -0.00000000
  eigenvalues    EBANDS =     -1074.63248037
  atomic energy  EATOM  =      3822.93345712
  Solvation  Ecorr_sol  =       -10.49941855
  ---------------------------------------------------
  free energy    TOTEN  =      -144.77865119 eV

  energy without entropy =     -144.77865119  energy(sigma->0) =     -144.77865119


--------------------------------------------------------------------------------------------------------




--------------------------------------- Iteration      1(   5)  ---------------------------------------


    --------------------------------------------
      INIT:  cpu time      0.2039: real time      0.2038
  FINALIZE:  cpu time     32.7665: real time     32.7966
    --------------------------------------------
    POTLOK:  cpu time     41.0813: real time     41.1348
    SETDIJ:  cpu time      0.3381: real time      0.3388
    EDDIAG:  cpu time      9.5424: real time      9.5618
  RMM-DIIS:  cpu time     89.7411: real time     89.9304
    ORTHCH:  cpu time      0.1410: real time      0.1414
       DOS:  cpu time      0.0013: real time      0.0013
    CHARGE:  cpu time      5.7484: real time      5.7600
    MIXING:  cpu time      0.1373: real time      0.1375
    --------------------------------------------
      LOOP:  cpu time    146.7310: real time    147.0060

 eigenvalue-minimisations  :   360
 total energy-change (2. order) :-0.2025082E+01  (-0.3138701E+00)
 number of electron      70.0000000 magnetization      14.9420467
 augmentation part        5.4095506 magnetization      14.8451939

 Broyden mixing:
  rms(total) = 0.36599E+00    rms(broyden)= 0.36597E+00
  rms(prec ) = 0.36808E+00
  weight for this iteration     100.00

 eigenvalues of (default mixing * dielectric matrix)
  average eigenvalue GAMMA=   1.3977
  2.3233  1.7222  0.8753  0.6700

 Free energy of the ion-electron system (eV)
  ---------------------------------------------------
  alpha Z        PSCENC =         0.32846731
  Ewald energy   TEWEN  =      8590.77654832
  -Hartree energ DENC   =    -11774.55384446
  -exchange      EXHF   =         0.00000000
  -V(xc)+E(xc)   XCENC  =       331.83001848
  PAW double counting   =      6140.16931117    -6180.30140559
  entropy T*S    EENTRO =        -0.00000000
  eigenvalues    EBANDS =     -1066.73636861
  atomic energy  EATOM  =      3822.93345712
  Solvation  Ecorr_sol  =       -11.24991652
  ---------------------------------------------------
  free energy    TOTEN  =      -146.80373279 eV

  energy without entropy =     -146.80373279  energy(sigma->0) =     -146.80373279


--------------------------------------------------------------------------------------------------------




--------------------------------------- Iteration      1(   6)  ---------------------------------------


    --------------------------------------------
      INIT:  cpu time      0.2027: real time      0.2026
  FINALIZE:  cpu time     32.8206: real time     32.8564
    --------------------------------------------
    POTLOK:  cpu time     41.1252: real time     41.1840
    SETDIJ:  cpu time      0.3390: real time      0.3397
    EDDIAG:  cpu time      9.5414: real time      9.5614
  RMM-DIIS:  cpu time     86.9027: real time     87.0864
    ORTHCH:  cpu time      0.1404: real time      0.1408
       DOS:  cpu time      0.0013: real time      0.0013
    CHARGE:  cpu time      5.7410: real time      5.7528
    MIXING:  cpu time      0.1362: real time      0.1364
    --------------------------------------------
      LOOP:  cpu time    143.9274: real time    144.2029

 eigenvalue-minimisations  :   347
 total energy-change (2. order) :-0.1828462E+01  (-0.2040675E+00)
 number of electron      70.0000000 magnetization      14.2789103
 augmentation part        5.4255491 magnetization      14.2058768

 Broyden mixing:
  rms(total) = 0.21563E+00    rms(broyden)= 0.21562E+00
  rms(prec ) = 0.21632E+00
  weight for this iteration     100.00

 eigenvalues of (default mixing * dielectric matrix)
  average eigenvalue GAMMA=   1.3867
  2.8123  1.6426  1.0750  0.7582  0.6453

 Free energy of the ion-electron system (eV)
  ---------------------------------------------------
  alpha Z        PSCENC =         0.32846731
  Ewald energy   TEWEN  =      8590.77654832
  -Hartree energ DENC   =    -11777.93828874
  -exchange      EXHF   =         0.00000000
  -V(xc)+E(xc)   XCENC  =       330.31661733
  PAW double counting   =      6464.98837321    -6504.61981492
  entropy T*S    EENTRO =        -0.00000000
  eigenvalues    EBANDS =     -1064.88816014
  atomic energy  EATOM  =      3822.93345712
  Solvation  Ecorr_sol  =       -10.52939397
  ---------------------------------------------------
  free energy    TOTEN  =      -148.63219447 eV

  energy without entropy =     -148.63219447  energy(sigma->0) =     -148.63219447


--------------------------------------------------------------------------------------------------------




--------------------------------------- Iteration      1(   7)  ---------------------------------------


    --------------------------------------------
      INIT:  cpu time      0.2039: real time      0.2038
  FINALIZE:  cpu time     34.6712: real time     34.7030
    --------------------------------------------
    POTLOK:  cpu time     42.9608: real time     43.0160
    SETDIJ:  cpu time      0.3388: real time      0.3396
    EDDIAG:  cpu time      9.5625: real time      9.5835
  RMM-DIIS:  cpu time     90.0339: real time     90.2234
    ORTHCH:  cpu time      0.1417: real time      0.1420
       DOS:  cpu time      0.0008: real time      0.0008
    CHARGE:  cpu time      5.7388: real time      5.7507
    MIXING:  cpu time      0.1335: real time      0.1335
    --------------------------------------------
      LOOP:  cpu time    148.9108: real time    149.1895

 eigenvalue-minimisations  :   364
 total energy-change (2. order) : 0.2967009E+00  (-0.4955811E-01)
 number of electron      70.0000000 magnetization      13.2786482
 augmentation part        5.4238662 magnetization      13.2132450

 Broyden mixing:
  rms(total) = 0.18021E+00    rms(broyden)= 0.18021E+00
  rms(prec ) = 0.18080E+00
  weight for this iteration     100.00

 eigenvalues of (default mixing * dielectric matrix)
  average eigenvalue GAMMA=   1.3216
  2.8827  1.6424  1.0354  1.0354  0.6836  0.6498

 Free energy of the ion-electron system (eV)
  ---------------------------------------------------
  alpha Z        PSCENC =         0.32846731
  Ewald energy   TEWEN  =      8590.77654832
  -Hartree energ DENC   =    -11783.81216314
  -exchange      EXHF   =         0.00000000
  -V(xc)+E(xc)   XCENC  =       330.97630384
  PAW double counting   =      6512.17527531    -6551.85480560
  entropy T*S    EENTRO =        -0.00000000
  eigenvalues    EBANDS =     -1060.30191784
  atomic energy  EATOM  =      3822.93345712
  Solvation  Ecorr_sol  =        -9.55665889
  ---------------------------------------------------
  free energy    TOTEN  =      -148.33549356 eV

  energy without entropy =     -148.33549356  energy(sigma->0) =     -148.33549356


--------------------------------------------------------------------------------------------------------




--------------------------------------- Iteration      1(   8)  ---------------------------------------


    --------------------------------------------
      INIT:  cpu time      0.2023: real time      0.2022
  FINALIZE:  cpu time     31.0274: real time     31.0576
    --------------------------------------------
    POTLOK:  cpu time     39.3236: real time     39.3768
    SETDIJ:  cpu time      0.3472: real time      0.3480
    EDDIAG:  cpu time      9.5502: real time      9.5693
  RMM-DIIS:  cpu time     89.4633: real time     89.6523
    ORTHCH:  cpu time      0.1456: real time      0.1459
       DOS:  cpu time      0.0005: real time      0.0005
    CHARGE:  cpu time      5.7323: real time      5.7443
    MIXING:  cpu time      0.1329: real time      0.1330
    --------------------------------------------
      LOOP:  cpu time    144.6955: real time    144.9700

 eigenvalue-minimisations  :   360
 total energy-change (2. order) : 0.1460529E+01  (-0.4616032E-01)
 number of electron      70.0000000 magnetization      10.7583714
 augmentation part        5.4157969 magnetization      10.7030261

 Broyden mixing:
  rms(total) = 0.13856E+00    rms(broyden)= 0.13856E+00
  rms(prec ) = 0.13887E+00
  weight for this iteration     100.00

 eigenvalues of (default mixing * dielectric matrix)
  average eigenvalue GAMMA=   1.6878
  4.3072  2.5299  1.6350  1.1903  0.8202  0.7049  0.6273

 Free energy of the ion-electron system (eV)
  ---------------------------------------------------
  alpha Z        PSCENC =         0.32846731
  Ewald energy   TEWEN  =      8590.77654832
  -Hartree energ DENC   =    -11788.72632958
  -exchange      EXHF   =         0.00000000
  -V(xc)+E(xc)   XCENC  =       332.53451716
  PAW double counting   =      6474.63855476    -6514.42273956
  entropy T*S    EENTRO =        -0.00000000
  eigenvalues    EBANDS =     -1057.09837702
  atomic energy  EATOM  =      3822.93345712
  Solvation  Ecorr_sol  =        -7.83906303
  ---------------------------------------------------
  free energy    TOTEN  =      -146.87496451 eV

  energy without entropy =     -146.87496451  energy(sigma->0) =     -146.87496451


--------------------------------------------------------------------------------------------------------




--------------------------------------- Iteration      1(   9)  ---------------------------------------


    --------------------------------------------
      INIT:  cpu time      0.2024: real time      0.2024
  FINALIZE:  cpu time     32.8973: real time     32.9284
    --------------------------------------------
    POTLOK:  cpu time     41.1782: real time     41.2338
    SETDIJ:  cpu time      0.3453: real time      0.3460
    EDDIAG:  cpu time      9.5450: real time      9.5651
  RMM-DIIS:  cpu time     88.7096: real time     88.8957
    ORTHCH:  cpu time      0.1426: real time      0.1430
       DOS:  cpu time      0.0003: real time      0.0003
    CHARGE:  cpu time      5.7255: real time      5.7372
    MIXING:  cpu time      0.1374: real time      0.1375
    --------------------------------------------
      LOOP:  cpu time    145.7840: real time    146.0585

 eigenvalue-minimisations  :   358
 total energy-change (2. order) : 0.2206677E+01  (-0.5516468E-01)
 number of electron      70.0000000 magnetization      10.1435045
 augmentation part        5.4054682 magnetization      10.1020735

 Broyden mixing:
  rms(total) = 0.84437E-01    rms(broyden)= 0.84430E-01
  rms(prec ) = 0.84926E-01
  weight for this iteration     100.00

 eigenvalues of (default mixing * dielectric matrix)
  average eigenvalue GAMMA=   1.6767
  5.1392  2.5399  1.6217  0.9929  0.9929  0.6235  0.7516  0.7516

 Free energy of the ion-electron system (eV)
  ---------------------------------------------------
  alpha Z        PSCENC =         0.32846731
  Ewald energy   TEWEN  =      8590.77654832
  -Hartree energ DENC   =    -11795.88413263
  -exchange      EXHF   =         0.00000000
  -V(xc)+E(xc)   XCENC  =       334.76990174
  PAW double counting   =      6417.61968834    -6457.46960664
  entropy T*S    EENTRO =        -0.00000000
  eigenvalues    EBANDS =     -1054.01480853
  atomic energy  EATOM  =      3822.93345712
  Solvation  Ecorr_sol  =        -3.72780215
  ---------------------------------------------------
  free energy    TOTEN  =      -144.66828714 eV

  energy without entropy =     -144.66828714  energy(sigma->0) =     -144.66828714


--------------------------------------------------------------------------------------------------------




--------------------------------------- Iteration      1(  10)  ---------------------------------------


    --------------------------------------------
      INIT:  cpu time      0.2020: real time      0.2019
  FINALIZE:  cpu time     32.8011: real time     32.8602
    --------------------------------------------
    POTLOK:  cpu time     41.0973: real time     41.1801
    SETDIJ:  cpu time      0.3390: real time      0.3396
    EDDIAG:  cpu time      9.5656: real time      9.5868
  RMM-DIIS:  cpu time     90.2912: real time     90.4793
    ORTHCH:  cpu time      0.1455: real time      0.1459
       DOS:  cpu time      0.0004: real time      0.0003
    CHARGE:  cpu time      5.7339: real time      5.7453
    MIXING:  cpu time      0.1422: real time      0.1423
    --------------------------------------------
      LOOP:  cpu time    147.3150: real time    147.6197

 eigenvalue-minimisations  :   364
 total energy-change (2. order) : 0.5378588E+00  (-0.7639789E-02)
 number of electron      70.0000000 magnetization       8.8703862
 augmentation part        5.4056571 magnetization       8.8337053

 Broyden mixing:
  rms(total) = 0.66429E-01    rms(broyden)= 0.66427E-01
  rms(prec ) = 0.66685E-01
  weight for this iteration     100.00

 eigenvalues of (default mixing * dielectric matrix)
  average eigenvalue GAMMA=   1.7477
  5.9944  2.4446  1.6993  1.6993  1.0353  0.8295  0.7038  0.7038  0.6192

 Free energy of the ion-electron system (eV)
  ---------------------------------------------------
  alpha Z        PSCENC =         0.32846731
  Ewald energy   TEWEN  =      8590.77654832
  -Hartree energ DENC   =    -11795.31576231
  -exchange      EXHF   =         0.00000000
  -V(xc)+E(xc)   XCENC  =       335.20960559
  PAW double counting   =      6428.64252688    -6468.41211105
  entropy T*S    EENTRO =        -0.00000000
  eigenvalues    EBANDS =     -1055.37613548
  atomic energy  EATOM  =      3822.93345712
  Solvation  Ecorr_sol  =        -2.91702472
  ---------------------------------------------------
  free energy    TOTEN  =      -144.13042834 eV

  energy without entropy =     -144.13042834  energy(sigma->0) =     -144.13042834


--------------------------------------------------------------------------------------------------------




--------------------------------------- Iteration      1(  11)  ---------------------------------------


    --------------------------------------------
      INIT:  cpu time      0.2023: real time      0.2022
  FINALIZE:  cpu time     29.2263: real time     29.2559
    --------------------------------------------
    POTLOK:  cpu time     37.4982: real time     37.5503
    SETDIJ:  cpu time      0.3396: real time      0.3403
    EDDIAG:  cpu time      9.5649: real time      9.5855
  RMM-DIIS:  cpu time     90.3787: real time     90.5676
    ORTHCH:  cpu time      0.1439: real time      0.1443
       DOS:  cpu time      0.0003: real time      0.0003
    CHARGE:  cpu time      5.7401: real time      5.7517
    MIXING:  cpu time      0.1468: real time      0.1469
    --------------------------------------------
      LOOP:  cpu time    143.8125: real time    144.0868

 eigenvalue-minimisations  :   364
 total energy-change (2. order) : 0.1209329E+01  (-0.9191442E-02)
 number of electron      70.0000000 magnetization       7.9538273
 augmentation part        5.4108969 magnetization       7.9212841

 Broyden mixing:
  rms(total) = 0.50102E-01    rms(broyden)= 0.50098E-01
  rms(prec ) = 0.50300E-01
  weight for this iteration     100.00

 eigenvalues of (default mixing * dielectric matrix)
  average eigenvalue GAMMA=   1.9090
  7.6573  2.6896  2.1037  1.7220  1.0619  1.0619  0.7379  0.7379  0.6947  0.6235

 Free energy of the ion-electron system (eV)
  ---------------------------------------------------
  alpha Z        PSCENC =         0.32846731
  Ewald energy   TEWEN  =      8590.77654832
  -Hartree energ DENC   =    -11793.69583844
  -exchange      EXHF   =         0.00000000
  -V(xc)+E(xc)   XCENC  =       336.23087991
  PAW double counting   =      6426.30403786    -6465.95741391
  entropy T*S    EENTRO =        -0.00000000
  eigenvalues    EBANDS =     -1058.36258455
  atomic energy  EATOM  =      3822.93345712
  Solvation  Ecorr_sol  =        -1.47865271
  ---------------------------------------------------
  free energy    TOTEN  =      -142.92109910 eV

  energy without entropy =     -142.92109910  energy(sigma->0) =     -142.92109910


--------------------------------------------------------------------------------------------------------




--------------------------------------- Iteration      1(  12)  ---------------------------------------


    --------------------------------------------
      INIT:  cpu time      0.2020: real time      0.2020
  FINALIZE:  cpu time     29.3097: real time     29.3404
    --------------------------------------------
    POTLOK:  cpu time     37.5764: real time     37.6310
    SETDIJ:  cpu time      0.3378: real time      0.3385
    EDDIAG:  cpu time      9.5756: real time      9.5962
  RMM-DIIS:  cpu time     90.9676: real time     91.1757
    ORTHCH:  cpu time      0.1460: real time      0.1463
       DOS:  cpu time      0.0003: real time      0.0003
    CHARGE:  cpu time      5.7485: real time      5.7609
    MIXING:  cpu time      0.1562: real time      0.1563
    --------------------------------------------
      LOOP:  cpu time    144.5082: real time    144.8053

 eigenvalue-minimisations  :   364
 total energy-change (2. order) : 0.7755087E+00  (-0.9533616E-02)
 number of electron      70.0000000 magnetization       7.2779050
 augmentation part        5.4125283 magnetization       7.2512644

 Broyden mixing:
  rms(total) = 0.40551E-01    rms(broyden)= 0.40548E-01
  rms(prec ) = 0.40687E-01
  weight for this iteration     100.00

 eigenvalues of (default mixing * dielectric matrix)
  average eigenvalue GAMMA=   1.8489
  7.9151  2.7949  1.9081  1.3945  1.3945  1.3069  0.9053  0.7415  0.6776  0.6776
  0.6217

 Free energy of the ion-electron system (eV)
  ---------------------------------------------------
  alpha Z        PSCENC =         0.32846731
  Ewald energy   TEWEN  =      8590.77654832
  -Hartree energ DENC   =    -11795.01955750
  -exchange      EXHF   =         0.00000000
  -V(xc)+E(xc)   XCENC  =       337.05735795
  PAW double counting   =      6412.55724630    -6452.24742601
  entropy T*S    EENTRO =        -0.00000000
  eigenvalues    EBANDS =     -1058.06036352
  atomic energy  EATOM  =      3822.93345712
  Solvation  Ecorr_sol  =        -0.47132039
  ---------------------------------------------------
  free energy    TOTEN  =      -142.14559041 eV

  energy without entropy =     -142.14559041  energy(sigma->0) =     -142.14559041


--------------------------------------------------------------------------------------------------------




--------------------------------------- Iteration      1(  13)  ---------------------------------------


    --------------------------------------------
      INIT:  cpu time      0.2032: real time      0.2030
  FINALIZE:  cpu time     31.0501: real time     31.0816
    --------------------------------------------
    POTLOK:  cpu time     39.2969: real time     39.3526
    SETDIJ:  cpu time      0.3455: real time      0.3465
    EDDIAG:  cpu time      9.6049: real time      9.6266
  RMM-DIIS:  cpu time     90.3435: real time     90.5356
    ORTHCH:  cpu time      0.1437: real time      0.1441
       DOS:  cpu time      0.0021: real time      0.0021
    CHARGE:  cpu time      5.7494: real time      5.7612
    MIXING:  cpu time      0.1589: real time      0.1589
    --------------------------------------------
      LOOP:  cpu time    145.6448: real time    145.9275

 eigenvalue-minimisations  :   364
 total energy-change (2. order) : 0.5868144E+00  ( 0.1437399E-02)
 number of electron      70.0000000 magnetization       5.7585139
 augmentation part        5.4086271 magnetization       5.7358017

 Broyden mixing:
  rms(total) = 0.33958E-01    rms(broyden)= 0.33957E-01
  rms(prec ) = 0.34035E-01
  weight for this iteration     100.00

 eigenvalues of (default mixing * dielectric matrix)
  average eigenvalue GAMMA=   2.0040
  8.7479  3.4378  2.1593  2.1593  1.7804  1.1521  1.0973  0.8191  0.7030  0.7030
  0.6207  0.6682

 Free energy of the ion-electron system (eV)
  ---------------------------------------------------
  alpha Z        PSCENC =         0.32846731
  Ewald energy   TEWEN  =      8590.77654832
  -Hartree energ DENC   =    -11796.49438706
  -exchange      EXHF   =         0.00000000
  -V(xc)+E(xc)   XCENC  =       337.74564840
  PAW double counting   =      6411.76875417    -6451.54579586
  entropy T*S    EENTRO =        -0.00000000
  eigenvalues    EBANDS =     -1056.81965777
  atomic energy  EATOM  =      3822.93345712
  Solvation  Ecorr_sol  =        -0.25181070
  ---------------------------------------------------
  free energy    TOTEN  =      -141.55877606 eV

  energy without entropy =     -141.55877606  energy(sigma->0) =     -141.55877606


--------------------------------------------------------------------------------------------------------




--------------------------------------- Iteration      1(  14)  ---------------------------------------


    --------------------------------------------
      INIT:  cpu time      0.2014: real time      0.2015
  FINALIZE:  cpu time     32.8520: real time     32.8819
    --------------------------------------------
    POTLOK:  cpu time     41.2030: real time     41.2663
    SETDIJ:  cpu time      0.3428: real time      0.3435
    EDDIAG:  cpu time      9.6118: real time      9.6356
  RMM-DIIS:  cpu time     90.5583: real time     90.7597
    ORTHCH:  cpu time      0.1432: real time      0.1436
       DOS:  cpu time      0.0007: real time      0.0007
    CHARGE:  cpu time      5.7475: real time      5.7592
    MIXING:  cpu time      0.1617: real time      0.1617
    --------------------------------------------
      LOOP:  cpu time    147.7689: real time    148.0702

 eigenvalue-minimisations  :   364
 total energy-change (2. order) : 0.1175526E+01  ( 0.6898803E-02)
 number of electron      70.0000000 magnetization       5.3210874
 augmentation part        5.4065930 magnetization       5.3015259

 Broyden mixing:
  rms(total) = 0.29012E-01    rms(broyden)= 0.29010E-01
  rms(prec ) = 0.29146E-01
  weight for this iteration     100.00

 eigenvalues of (default mixing * dielectric matrix)
  average eigenvalue GAMMA=   2.0245
  9.3984  4.3482  2.5415  1.7791  1.3146  1.3146  1.3331  0.8335  0.7826  0.7060
  0.7060  0.6239  0.6375

 Free energy of the ion-electron system (eV)
  ---------------------------------------------------
  alpha Z        PSCENC =         0.32846731
  Ewald energy   TEWEN  =      8590.77654832
  -Hartree energ DENC   =    -11796.03042987
  -exchange      EXHF   =         0.00000000
  -V(xc)+E(xc)   XCENC  =       338.89467242
  PAW double counting   =      6418.19213621    -6457.98745170
  entropy T*S    EENTRO =        -0.00000000
  eigenvalues    EBANDS =     -1057.79974017
  atomic energy  EATOM  =      3822.93345712
  Solvation  Ecorr_sol  =         0.30909076
  ---------------------------------------------------
  free energy    TOTEN  =      -140.38324960 eV

  energy without entropy =     -140.38324960  energy(sigma->0) =     -140.38324960


--------------------------------------------------------------------------------------------------------




--------------------------------------- Iteration      1(  15)  ---------------------------------------


    --------------------------------------------
      INIT:  cpu time      0.2038: real time      0.2040
  FINALIZE:  cpu time     29.2971: real time     29.3295
    --------------------------------------------
    POTLOK:  cpu time     37.5543: real time     37.6099
    SETDIJ:  cpu time      0.3381: real time      0.3387
    EDDIAG:  cpu time      9.5840: real time      9.6049
  RMM-DIIS:  cpu time     90.0526: real time     90.2412
    ORTHCH:  cpu time      0.1400: real time      0.1404
       DOS:  cpu time      0.0007: real time      0.0007
    CHARGE:  cpu time      5.7427: real time      5.7541
    MIXING:  cpu time      0.1670: real time      0.1673
    --------------------------------------------
      LOOP:  cpu time    143.5794: real time    143.8571

 eigenvalue-minimisations  :   364
 total energy-change (2. order) : 0.2032536E+00  (-0.4238611E-02)
 number of electron      70.0000000 magnetization       4.4387607
 augmentation part        5.4058676 magnetization       4.4206655

 Broyden mixing:
  rms(total) = 0.23756E-01    rms(broyden)= 0.23755E-01
  rms(prec ) = 0.23813E-01
  weight for this iteration     100.00

 eigenvalues of (default mixing * dielectric matrix)
  average eigenvalue GAMMA=   1.9830
  9.6120  4.4941  2.5599  1.9774  1.4039  1.4039  1.1502  0.9281  0.9281  0.7643
  0.6820  0.6274  0.6154  0.6154

 Free energy of the ion-electron system (eV)
  ---------------------------------------------------
  alpha Z        PSCENC =         0.32846731
  Ewald energy   TEWEN  =      8590.77654832
  -Hartree energ DENC   =    -11794.90329130
  -exchange      EXHF   =         0.00000000
  -V(xc)+E(xc)   XCENC  =       339.02857184
  PAW double counting   =      6421.50028209    -6461.24914373
  entropy T*S    EENTRO =        -0.00000000
  eigenvalues    EBANDS =     -1058.95450301
  atomic energy  EATOM  =      3822.93345712
  Solvation  Ecorr_sol  =         0.35961531
  ---------------------------------------------------
  free energy    TOTEN  =      -140.17999605 eV

  energy without entropy =     -140.17999605  energy(sigma->0) =     -140.17999605


--------------------------------------------------------------------------------------------------------




--------------------------------------- Iteration      1(  16)  ---------------------------------------


    --------------------------------------------
      INIT:  cpu time      0.2023: real time      0.2023
  FINALIZE:  cpu time     29.3520: real time     29.3821
    --------------------------------------------
    POTLOK:  cpu time     37.6231: real time     37.6756
    SETDIJ:  cpu time      0.3394: real time      0.3402
[...]
  atomic energy  EATOM  =      3822.93345712
  Solvation  Ecorr_sol  =        -0.27089212
  ---------------------------------------------------
  free energy    TOTEN  =      -137.46515744 eV

  energy without entropy =     -137.46515744  energy(sigma->0) =     -137.46515744


--------------------------------------------------------------------------------------------------------




--------------------------------------- Iteration     15(   2)  ---------------------------------------


    --------------------------------------------
      INIT:  cpu time      0.2062: real time      0.2062
  FINALIZE:  cpu time     31.0961: real time     31.1267
    --------------------------------------------
    POTLOK:  cpu time     39.4822: real time     39.5347
    SETDIJ:  cpu time      0.3452: real time      0.3459
    EDDIAG:  cpu time      9.5150: real time      9.5351
  RMM-DIIS:  cpu time     44.7164: real time     44.8121
    ORTHCH:  cpu time      0.1470: real time      0.1474
       DOS:  cpu time      0.0017: real time      0.0017
    --------------------------------------------
      LOOP:  cpu time     94.2076: real time     94.3768

 eigenvalue-minimisations  :   150
 total energy-change (2. order) :-0.1221341E-05  (-0.7754390E-06)
 number of electron      70.0000001 magnetization       0.0000125
 augmentation part        5.4097555 magnetization       0.0000124

 Free energy of the ion-electron system (eV)
  ---------------------------------------------------
  alpha Z        PSCENC =         0.32846731
  Ewald energy   TEWEN  =      8595.94512486
  -Hartree energ DENC   =    -11797.11440412
  -exchange      EXHF   =         0.00000000
  -V(xc)+E(xc)   XCENC  =       341.75689578
  PAW double counting   =      6436.17364803    -6475.90686290
  entropy T*S    EENTRO =        -0.00000000
  eigenvalues    EBANDS =     -1061.31059691
  atomic energy  EATOM  =      3822.93345712
  Solvation  Ecorr_sol  =        -0.27088782
  ---------------------------------------------------
  free energy    TOTEN  =      -137.46515866 eV

  energy without entropy =     -137.46515866  energy(sigma->0) =     -137.46515866


--------------------------------------------------------------------------------------------------------




 average (electrostatic) potential at core
  the test charge radii are     0.6991  0.7167  0.7215  0.5201
  (the norm of the test charge is              1.0000)
       1 -61.5898       2 -61.7366       3 -62.1919       4 -61.7758       5 -61.7309
       6 -61.7606       7 -63.3007       8 -60.9837       9 -66.8536      10 -90.9815
      11 -91.0390      12 -91.1298      13 -84.0123      14 -44.7642      15 -44.7623
      16 -44.4697      17 -45.1091      18 -45.1020      19 -45.0339      20 -44.7615
 
 
 
 E-fermi :  -6.1061     XC(G=0):  -0.0375     alpha+bet : -0.0213

 Fermi energy:        -6.1061087716

 spin component 1

 k-point     1 :       0.0000    0.0000    0.0000
  band No.  band energies     occupation 
      1     -34.8300      1.00000
      2     -32.5708      1.00000
      3     -32.4370      1.00000
      4     -27.6834      1.00000
      5     -23.4450      1.00000
      6     -21.2532      1.00000
      7     -20.3446      1.00000
      8     -19.6846      1.00000
      9     -18.5220      1.00000
     10     -16.8039      1.00000
     11     -16.5652      1.00000
     12     -15.1804      1.00000
     13     -15.1065      1.00000
     14     -14.8914      1.00000
     15     -14.7047      1.00000
     16     -12.7368      1.00000
     17     -12.4347      1.00000
     18     -12.0763      1.00000
     19     -11.8274      1.00000
     20     -11.7297      1.00000
     21     -11.6202      1.00000
     22     -11.4222      1.00000
     23     -11.1259      1.00000
     24     -10.9316      1.00000
     25     -10.8867      1.00000
     26     -10.6235      1.00000
     27     -10.2632      1.00000
     28     -10.1248      1.00000
     29      -9.9750      1.00000
     30      -9.4237      1.00000
     31      -9.3185      1.00000
     32      -9.1695      1.00000
     33      -7.3633      1.00000
     34      -7.2294      1.00000
     35      -6.3500      1.00000
     36      -3.0027      0.00000
     37      -1.7050      0.00000
     38      -0.6316      0.00000
     39      -0.0948      0.00000
     40       0.0280      0.00000
     41       0.0970      0.00000
     42       0.1031      0.00000
     43       0.1043      0.00000
     44       0.1079      0.00000
     45       0.1081      0.00000
     46       0.1444      0.00000
     47       0.1735      0.00000
     48       0.1874      0.00000
     49       0.1917      0.00000
     50       0.1988      0.00000
     51       0.1992      0.00000
     52       0.2004      0.00000
     53       0.2016      0.00000
     54       0.2021      0.00000
     55       0.2021      0.00000
     56       0.2023      0.00000
 Fermi energy:        -6.1061087716

 spin component 2

 k-point     1 :       0.0000    0.0000    0.0000
  band No.  band energies     occupation 
      1     -34.8300      1.00000
      2     -32.5708      1.00000
      3     -32.4370      1.00000
      4     -27.6834      1.00000
      5     -23.4450      1.00000
      6     -21.2532      1.00000
      7     -20.3446      1.00000
      8     -19.6846      1.00000
      9     -18.5220      1.00000
     10     -16.8039      1.00000
     11     -16.5652      1.00000
     12     -15.1804      1.00000
     13     -15.1065      1.00000
     14     -14.8914      1.00000
     15     -14.7047      1.00000
     16     -12.7368      1.00000
     17     -12.4347      1.00000
     18     -12.0763      1.00000
     19     -11.8274      1.00000
     20     -11.7297      1.00000
     21     -11.6202      1.00000
     22     -11.4222      1.00000
     23     -11.1259      1.00000
     24     -10.9316      1.00000
     25     -10.8867      1.00000
     26     -10.6235      1.00000
     27     -10.2632      1.00000
     28     -10.1248      1.00000
     29      -9.9750      1.00000
     30      -9.4237      1.00000
     31      -9.3185      1.00000
     32      -9.1695      1.00000
     33      -7.3633      1.00000
     34      -7.2294      1.00000
     35      -6.3500      1.00000
     36      -3.0027      0.00000
     37      -1.7050      0.00000
     38      -0.6316      0.00000
     39      -0.0948      0.00000
     40       0.0285      0.00000
     41       0.0974      0.00000
     42       0.1036      0.00000
     43       0.1047      0.00000
     44       0.1083      0.00000
     45       0.1085      0.00000
     46       0.1450      0.00000
     47       0.1739      0.00000
     48       0.1879      0.00000
     49       0.1922      0.00000
     50       0.1994      0.00000
     51       0.2004      0.00000
     52       0.2010      0.00000
     53       0.2021      0.00000
     54       0.2022      0.00000
     55       0.2025      0.00000
     56       0.2027      0.00000


--------------------------------------------------------------------------------------------------------


 soft charge-density along one line, spin component           1
         0         1         2         3         4         5         6         7         8         9
 total charge-density along one line
 
 soft charge-density along one line, spin component           2
         0         1         2         3         4         5         6         7         8         9
 total charge-density along one line
 
 pseudopotential strength for first ion, spin component:           1
 10.491  13.951  -0.001   0.000  -0.001   0.005  -0.000   0.003
 13.951  18.551  -0.001   0.000  -0.001   0.007  -0.000   0.004
 -0.001  -0.001  -4.406   0.000   0.001   8.545  -0.000  -0.002
  0.000   0.000   0.000  -4.340   0.000  -0.000   8.446  -0.000
 -0.001  -0.001   0.001   0.000  -4.410  -0.002  -0.000   8.552
  0.005   0.007   8.545  -0.000  -0.002 -18.841   0.000   0.002
 -0.000  -0.000  -0.000   8.446  -0.000   0.000 -18.712   0.001
  0.003   0.004  -0.002  -0.000   8.552   0.002   0.001 -18.852
 pseudopotential strength for first ion, spin component:           2
 10.491  13.951  -0.001   0.000  -0.001   0.005  -0.000   0.003
 13.951  18.551  -0.001   0.000  -0.001   0.007  -0.000   0.004
 -0.001  -0.001  -4.406   0.000   0.001   8.545  -0.000  -0.002
  0.000   0.000   0.000  -4.340   0.000  -0.000   8.446  -0.000
 -0.001  -0.001   0.001   0.000  -4.410  -0.002  -0.000   8.552
  0.005   0.007   8.545  -0.000  -0.002 -18.841   0.000   0.002
 -0.000  -0.000  -0.000   8.446  -0.000   0.000 -18.712   0.001
  0.003   0.004  -0.002  -0.000   8.552   0.002   0.001 -18.852
 total augmentation occupancy for first ion, spin component:           1
  8.798  -3.959  -0.238   0.001  -0.158  -0.048   0.000  -0.031
 -3.959   1.823   0.167  -0.001   0.109   0.030  -0.000   0.019
 -0.238   0.167   1.830  -0.002  -0.026   0.169  -0.000  -0.008
  0.001  -0.001  -0.002   1.121  -0.003  -0.000   0.076  -0.001
 -0.158   0.109  -0.026  -0.003   1.887  -0.008  -0.001   0.183
 -0.048   0.030   0.169  -0.000  -0.008   0.017  -0.000  -0.002
  0.000  -0.000  -0.000   0.076  -0.001  -0.000   0.005  -0.000
 -0.031   0.019  -0.008  -0.001   0.183  -0.002  -0.000   0.019
 total augmentation occupancy for first ion, spin component:           2
  0.000  -0.000   0.000   0.000   0.000  -0.000   0.000   0.000
 -0.000   0.000  -0.000  -0.000  -0.000   0.000  -0.000  -0.000
  0.000  -0.000   0.000   0.000  -0.000   0.000   0.000  -0.000
  0.000  -0.000   0.000  -0.000   0.000  -0.000  -0.000   0.000
  0.000  -0.000  -0.000   0.000  -0.000  -0.000   0.000  -0.000
 -0.000   0.000   0.000  -0.000  -0.000   0.000  -0.000  -0.000
  0.000  -0.000   0.000  -0.000   0.000  -0.000  -0.000   0.000
  0.000  -0.000  -0.000   0.000  -0.000  -0.000   0.000  -0.000


------------------------ aborting loop because EDIFF is reached ----------------------------------------


    CHARGE:  cpu time      1.4258: real time      1.4288
    FORLOC:  cpu time      0.3273: real time      0.3277
    FORNL :  cpu time      4.4981: real time      4.5179
    STRESS:  cpu time     99.2286: real time     99.4410
    FORCOR:  cpu time      6.4788: real time      6.4927
    FORHAR:  cpu time      0.7255: real time      0.7267
    MIXING:  cpu time      0.0967: real time      0.0969
    OFIELD:  cpu time      0.0000: real time      0.0000

 ---------------------------------------------------------------------------------------------

         DFTD3 V3.0 Rev 1        
 Edisp (eV)   -0.17606

 E6    (eV) :    -0.1378
 E8    (eV) :    -0.0383
 % E8        : 21.74
    FORVDW:  cpu time      0.0052: real time      0.0053

  FORCE on cell =-STRESS in cart. coord.  units (eV):
  Direction    XX          YY          ZZ          XY          YZ          ZX
  --------------------------------------------------------------------------------------
  Alpha Z     0.32847     0.32847     0.32847
  Ewald    5443.59541  2830.15197   322.19709    -1.75017    -7.09854   -24.55432
  Hartree  6168.80488  3627.36825  2001.43163   -36.70312    -4.26048   -15.48534
  E(xc)    -314.75848  -315.65361  -318.40703    -0.16965    -0.00398    -0.01017
  Local  -12427.03087 -7225.73774 -3162.35771    52.71206    11.01713    39.22970
  n-local  -186.96922  -188.09537  -177.30409    -0.58537     0.01698     0.10023
  augment    62.63441    58.26557    58.46355    -0.82005     0.00407     0.05940
  Kinetic  1253.08986  1213.08671  1275.28514   -12.69916     0.30179     0.65678
  Fock        0.00000     0.00000     0.00000     0.00000     0.00000     0.00000
  vdW        -0.09047    -0.02486    -0.00217     0.00752    -0.00002     0.00012
  -------------------------------------------------------------------------------------
  Total      -0.39602    -0.31061    -0.36513    -0.00793    -0.02304    -0.00360
  in kB      -0.00991    -0.00778    -0.00914    -0.00020    -0.00058    -0.00009
  external pressure =       -0.01 kB  Pullay stress =        0.00 kB


 VOLUME and BASIS-vectors are now :
 -----------------------------------------------------------------------------
  energy-cutoff  :      500.00
  volume of cell :    64000.00
      direct lattice vectors                 reciprocal lattice vectors
    40.000000000  0.000000000  0.000000000     0.025000000  0.000000000  0.000000000
     0.000000000 40.000000000  0.000000000     0.000000000  0.025000000  0.000000000
     0.000000000  0.000000000 40.000000000     0.000000000  0.000000000  0.025000000

  length of vectors
    40.000000000 40.000000000 40.000000000     0.025000000  0.025000000  0.025000000


 FORCES acting on ions
    electron-ion (+dipol)            ewald-force                    non-local-force                 convergence-correction
 -----------------------------------------------------------------------------------------------
   -.714E+02 -.200E+03 0.198E+00   0.726E+02 0.202E+03 -.229E+00   -.112E+01 -.181E+01 0.310E-01   0.149E-02 0.238E-03 -.466E-03
   0.778E+01 -.215E+03 -.141E+00   -.791E+01 0.217E+03 0.138E+00   0.105E+00 -.215E+01 0.352E-02   0.996E-03 0.232E-03 -.466E-03
   -.174E+02 -.659E+01 -.649E+01   0.196E+02 0.677E+01 0.671E+01   -.219E+01 -.178E+00 -.217E+00   -.364E-03 -.586E-03 -.218E-03
   0.567E+01 0.212E+03 -.220E+01   -.580E+01 -.214E+03 0.222E+01   0.124E+00 0.188E+01 -.222E-01   0.182E-02 -.782E-03 -.621E-04
   -.772E+02 0.197E+03 -.133E+01   0.780E+02 -.198E+03 0.130E+01   -.792E+00 0.111E+01 0.329E-01   0.568E-03 -.120E-02 -.175E-03
   -.842E+02 0.682E+01 -.435E+00   0.849E+02 -.654E+01 0.413E+00   -.682E+00 -.278E+00 0.210E-01   0.179E-02 -.271E-03 -.330E-03
   -.831E+02 0.777E+02 0.204E+00   0.813E+02 -.830E+02 -.188E+00   0.180E+01 0.521E+01 -.148E-01   0.788E-03 -.126E-03 -.200E-04
   -.167E+03 0.143E+03 0.133E+01   0.168E+03 -.143E+03 -.135E+01   -.134E+01 -.548E-01 0.216E-01   -.104E-02 0.478E-03 -.106E-03
   0.113E+02 -.462E+01 -.214E+01   -.199E+00 0.484E+01 0.231E+01   -.109E+02 -.220E+00 -.156E+00   -.872E-03 -.420E-03 -.940E-04
   0.283E+03 0.149E+03 0.488E+03   -.302E+03 -.165E+03 -.536E+03   0.191E+02 0.157E+02 0.481E+02   -.464E-03 0.261E-04 0.143E-02
   0.301E+03 0.331E+03 -.373E+03   -.322E+03 -.366E+03 0.410E+03   0.208E+02 0.347E+02 -.368E+02   0.770E-04 -.109E-02 -.129E-02
   0.324E+03 -.470E+03 -.107E+03   -.347E+03 0.520E+03 0.118E+03   0.234E+02 -.493E+02 -.106E+02   -.131E-02 -.390E-02 0.467E-03
   -.300E+03 -.308E+03 0.178E+01   0.326E+03 0.355E+03 -.198E+01   -.262E+02 -.473E+02 0.198E+00   -.101E-02 -.235E-02 0.562E-03
   -.204E+02 0.578E+02 -.568E+02   0.192E+02 -.610E+02 0.615E+02   0.117E+01 0.320E+01 -.463E+01   -.119E-03 0.172E-03 -.168E-03
   -.193E+02 0.579E+02 0.570E+02   0.180E+02 -.611E+02 -.616E+02   0.127E+01 0.321E+01 0.460E+01   -.117E-03 0.198E-03 0.151E-03
   -.891E+02 0.970E+01 0.908E+00   0.950E+02 -.851E+01 -.972E+00   -.582E+01 -.120E+01 0.644E-01   -.175E-03 0.441E-04 -.171E-04
   -.317E+02 0.880E+02 -.355E+00   0.347E+02 -.934E+02 0.362E+00   -.294E+01 0.537E+01 -.467E-02   0.136E-03 0.977E-04 -.143E-04
   0.217E+02 0.957E+02 -.257E+00   -.247E+02 -.101E+03 0.322E+00   0.306E+01 0.531E+01 -.617E-01   0.954E-04 -.265E-03 0.124E-04
   0.202E+02 -.956E+02 0.489E+00   -.233E+02 0.101E+03 -.473E+00   0.308E+01 -.534E+01 -.151E-01   -.768E-04 0.245E-03 -.664E-04
   -.325E+02 -.895E+02 0.329E+00   0.358E+02 0.947E+02 -.363E+00   -.329E+01 -.524E+01 0.340E-01   0.315E-03 -.140E-03 -.649E-04
 -----------------------------------------------------------------------------------------------
   -.185E+02 0.374E+02 -.464E+00   0.128E-12 0.142E-13 0.107E-12   0.185E+02 -.374E+02 0.487E+00   0.253E-02 -.940E-02 -.937E-03
 
 
 POSITION                                       TOTAL-FORCE (eV/Angst)
 -----------------------------------------------------------------------------------
     20.26555     21.45073     20.00418         0.003264     -0.000360     -0.001165
     18.88032     21.45861     20.01141        -0.012029      0.000991     -0.001066
     18.19011     20.24862     20.02184         0.017311      0.002223      0.000634
     18.87807     19.03696     20.02240        -0.007400      0.005341      0.000631
     20.26501     19.03799     20.01355         0.004881      0.002030     -0.000498
     20.97188     20.24513     20.00395        -0.003669      0.000957     -0.002136
     22.46867     20.29854     19.99173        -0.005777     -0.015302      0.000681
     23.23848     19.00622     19.98392        -0.000021      0.000546      0.000303
     16.69391     20.22370     19.99944        -0.007862      0.001392      0.001753
     16.21182     19.82498     18.78745         0.001093     -0.003153     -0.004859
     16.18383     19.35390     20.91208         0.007136     -0.010905     -0.001201
     16.14225     21.43394     20.25696        -0.000767     -0.007459      0.005759
     23.04469     21.37895     19.98740         0.001368      0.008190      0.001634
     22.99842     18.40622     20.86562        -0.008605      0.004459      0.001221
     22.97918     18.40469     19.10874        -0.009068      0.005169     -0.002804
     24.30300     19.22597     19.97219         0.002940     -0.000528     -0.000416
     20.79135     18.09238     20.01443         0.010489     -0.012227      0.000989
     18.33103     18.10188     20.03169         0.000507     -0.002347      0.002289
     18.33613     22.39396     20.01272        -0.004979      0.007110     -0.000755
     20.82631     22.37663     19.99828         0.011186      0.013873     -0.000994
 -----------------------------------------------------------------------------------
    total drift:                               -0.000892     -0.034495      0.021872


--------------------------------------------------------------------------------------------------------



  FREE ENERGIE OF THE ION-ELECTRON SYSTEM (eV)
  ---------------------------------------------------
  free  energy   TOTEN  =      -137.64122162 eV

  energy  without entropy=     -137.64122162  energy(sigma->0) =     -137.64122162
 
 d Force = 0.7047927E-06[-0.179E-05, 0.320E-05]  d Energy = 0.7962414E-05-0.726E-05
 d Force = 0.4425900E-01[ 0.443E-01, 0.443E-01]  d Ewald  = 0.4425900E-01 0.833E-09


--------------------------------------------------------------------------------------------------------


    --------------------------------------------
      INIT:  cpu time      0.2082: real time      0.2083
  FINALIZE:  cpu time     31.0655: real time     31.1293
    --------------------------------------------
    POTLOK:  cpu time     39.7777: real time     39.8601


--------------------------------------------------------------------------------------------------------




--------------------------------------------------------------------------------------------------------


  
 reached required accuracy - stopping structural energy minimisation
 writing wavefunctions
     LOOP+:  cpu time    363.0658: real time    364.7895
    4ORBIT:  cpu time      0.0000: real time      0.0000

 total amount of memory used by VASP MPI-rank0   919730. kBytes
=======================================================================

   base      :      30000. kBytes
   nonlr-proj:       1256. kBytes
   fftplans  :     167689. kBytes
   grid      :     684374. kBytes
   one-center:         12. kBytes
   wavefun   :      36399. kBytes
 
  
  
 General timing and accounting informations for this job:
 ========================================================
  
                  Total CPU time used (sec):    16141.890
                            User time (sec):    15156.961
                          System time (sec):      984.929
                         Elapsed time (sec):    16174.860
  
                   Maximum memory used (kb):     2544880.
                   Average memory used (kb):          N/A
  
                          Minor page faults:    165104301
                          Major page faults:            0
                 Voluntary context switches:       361488
