
                                 *****************
                                 * O   R   C   A *
                                 *****************

                                            #,                                       
                                            ###                                      
                                            ####                                     
                                            #####                                    
                                            ######                                   
                                           ########,                                 
                                     ,,################,,,,,                         
                               ,,#################################,,                 
                          ,,##########################################,,             
                       ,#########################################, ''#####,          
                    ,#############################################,,   '####,        
                  ,##################################################,,,,####,       
                ,###########''''           ''''###############################       
              ,#####''   ,,,,##########,,,,          '''####'''          '####       
            ,##' ,,,,###########################,,,                        '##       
           ' ,,###''''                  '''############,,,                           
         ,,##''                                '''############,,,,        ,,,,,,###''
      ,#''                                            '''#######################'''  
     '                                                          ''''####''''         
             ,#######,   #######,   ,#######,      ##                                
            ,#'     '#,  ##    ##  ,#'     '#,    #''#        ,####,   ,####,        
            ##       ##  ##   ,#'  ##            #'  '#       #'       #'  '#        
            ##       ##  #######   ##           ,######,      #####,   #    #        
            '#,     ,#'  ##    ##  '#,     ,#' ,#      #,     #,   #   #,  ,#        
             '#######'   ##     ##  '#######'  #'      '#     '####' # '####'        



                #########################################################
                #                        -***-                          #
                #          Department of theory and spectroscopy        #
                #                                                       #
                #                      Frank Neese                      #
                #                                                       #
                #     Directorship, Architecture, Infrastructure        #
                #                    SHARK, DRIVERS                     #
                #        Core code/Algorithms in most modules           #
                #                                                       #
                #        Max Planck Institute fuer Kohlenforschung      #
                #                Kaiser Wilhelm Platz 1                 #
                #                 D-45470 Muelheim/Ruhr                 #
                #                      Germany                          #
                #                                                       #
                #                  All rights reserved                  #
                #                        -***-                          #
                #########################################################


                         Program Version 6.0.0  -   RELEASE  -


 With contributions from (in alphabetic order):
   Daniel Aravena         : Magnetic Suceptibility
   Michael Atanasov       : Ab Initio Ligand Field Theory (pilot matlab implementation)
   Alexander A. Auer      : GIAO ZORA, VPT2 properties, NMR spectrum
   Ute Becker             : All parallelization in ORCA, NUMFREQ, NUMCALC
   Giovanni Bistoni       : ED, misc. LED, open-shell LED, HFLD
   Martin Brehm           : Molecular dynamics
   Dmytro Bykov           : pre 5.0 version of the SCF Hessian
   Marcos Casanova-Páez   : Triplet and SCS-CIS(D). UHF-(DLPNO)-IP/EA/STEOM-CCSD. UHF-CVS-IP/STEOM-CCSD
   Vijay G. Chilkuri      : MRCI spin determinant printing, contributions to CSF-ICE
   Pauline Colinet        : FMM embedding
   Dipayan Datta          : RHF DLPNO-CCSD density
   Achintya Kumar Dutta   : EOM-CC, STEOM-CC
   Nicolas Foglia         : Exact transition moments, OPA infrastructure, MCD improvements
   Dmitry Ganyushin       : Spin-Orbit,Spin-Spin,Magnetic field MRCI
   Miquel Garcia          : C-PCM and meta-GGA Hessian, CCSD/C-PCM, Gaussian charge scheme
   Tiago L. C. Gouveia    : GS-ROHF, GS-ROCIS
   Yang Guo               : DLPNO-NEVPT2, F12-NEVPT2, CIM, IAO-localization
   Andreas Hansen         : Spin unrestricted coupled pair/coupled cluster methods
   Ingolf Harden          : AUTO-CI MPn and infrastructure 
   Benjamin Helmich-Paris : MC-RPA, TRAH-(SCF,CASSCF), AVAS, COSX integrals, SCF dyn. polar.
   Lee Huntington         : MR-EOM, pCC
   Robert Izsak           : Overlap fitted RIJCOSX, COSX-SCS-MP3, EOM
   Riya Kayal             : Wick's Theorem for AUTO-CI, AUTO-CI UHF-CCSDT
   Emily Kempfer          : AUTO-CI, RHF CISDT and CCSDT
   Christian Kollmar      : KDIIS, OOCD, Brueckner-CCSD(T), CCSD density, CASPT2, CASPT2-K, improved NEVPT2
   Axel Koslowski         : Symmetry handling
   Simone Kossmann        : Meta GGA functionals, TD-DFT gradient, OOMP2, (MP2 Hessian; deprecated post 5.0)
   Lucas Lang             : DCDCAS
   Marvin Lechner         : AUTO-CI (C++ implementation), FIC-MRCC
   Spencer Leger          : CASSCF response
   Dagmar Lenk            : GEPOL surface, SMD, ORCA-2-JSON
   Dimitrios Liakos       : Extrapolation schemes; Compound Job, initial MDCI parallelization
   Dimitrios Manganas     : Further ROCIS development; embedding schemes. LFT, Crystal Embedding
   Dimitrios Pantazis     : SARC Basis sets
   Anastasios Papadopoulos: AUTO-CI, single reference methods and gradients
   Taras Petrenko         : pre 6.0 DFT Hessian and TD-DFT gradient, (ASA, deprecated), ECA, 1-Electron XAS/XES, NRVS
   Peter Pinski           : DLPNO-MP2, DLPNO-MP2 Gradient
   Christoph Reimann      : Effective Core Potentials
   Marius Retegan         : Local ZFS, SOC
   Christoph Riplinger    : Optimizer, TS searches, QM/MM, DLPNO-CCSD(T), (RO)-DLPNO pert. Triples
   Michael Roemelt        : Original ROCIS implementation
   Masaaki Saitow         : Open-shell DLPNO-CCSD energy and density
   Barbara Sandhoefer     : DKH picture change effects
   Kantharuban Sivalingam : CASSCF convergence/infrastructure, NEVPT2 and variants, FIC-MRCI
   Bernardo de Souza      : ESD, SOC TD-DFT
   Georgi Stoychev        : AutoAux, RI-MP2 NMR, DLPNO-MP2 response, X2C
   Van Anh Tran           : RI-MP2 g-tensors
   Willem Van den Heuvel  : Paramagnetic NMR
   Zikuan Wang            : NOTCH, Electric field optimization 
   Frank Wennmohs         : Technical directorship and infrastructure
   Hang Xu                : AUTO-CI-Response properties 


 We gratefully acknowledge several colleagues who have allowed us to
 interface, adapt or use parts of their codes:
   Stefan Grimme, W. Hujo, H. Kruse, P. Pracht,  : VdW corrections, initial TS optimization,
                  C. Bannwarth, S. Ehlert,         DFT functionals, gCP, sTDA/sTD-DF
                  L. Wittmann, M. Mueller
   Ed Valeev, F. Pavosevic, A. Kumar             : LibInt (2-el integral package), F12 methods
   Garnet Chan, S. Sharma, J. Yang, R. Olivares  : DMRG
   Ulf Ekstrom                                   : XCFun DFT Library
   Mihaly Kallay                                 : mrcc  (arbitrary order and MRCC methods)
   Frank Weinhold                                : gennbo (NPA and NBO analysis)
   Simon Mueller                                 : openCOSMO-RS
   Christopher J. Cramer and Donald G. Truhlar   : smd solvation model
   Lars Goerigk                                  : TD-DFT with DH, B97 family of functionals
   V. Asgeirsson, H. Jonsson                     : NEB implementation
   FAccTs GmbH                                   : IRC, NEB, NEB-TS, DLPNO-Multilevel, CI-OPT
                                                   MM, QMMM, 2- and 3-layer-ONIOM, Crystal-QMMM,
                                                   LR-CPCM, SF, NACMEs, symmetry and pop. for TD-DFT,
                                                   nearIR, NL-DFT gradient (VV10), updates on ESD,
                                                   ML-optimized integration grids, MBIS, APM,
                                                   GOAT, DOCKER, SOLVATOR, interface openCOSMO-RS
   S Lehtola, MJT Oliveira, MAL Marques          : LibXC Library
   Liviu Ungur et al                             : ANISO software


 Your calculation uses the libint2 library for the computation of 2-el integrals
 For citations please refer to: http://libint.valeyev.net

 Your ORCA version has been built with support for libXC version: 6.2.2
 For citations please refer to: https://libxc.gitlab.io

 This ORCA versions uses:
   CBLAS   interface :  Fast vector & matrix operations
   LAPACKE interface :  Fast linear algebra routines
   SCALAPACK package :  Parallel linear algebra routines
   Shared memory     :  Shared parallel matrices
   BLAS/LAPACK       :  OpenBLAS 0.3.27  USE64BITINT DYNAMIC_ARCH NO_AFFINITY Sandybridge SINGLE_THREADED
        Core in use  :  Sandybridge
   Copyright (c) 2011-2014, The OpenBLAS Project


NOTE: MaxCore=3500 MB was set to SCF,MP2,MDCI,CIPSI,MRCI and CIS
      => If you want to overwrite this, your respective input block should be placed after the MaxCore statement
Your calculation utilizes the atom-pairwise dispersion correction
with the Becke-Johnson damping scheme (D3BJ)


Your calculation utilizes the SMD solvation module
Please cite in your paper:
A.V. Marenich, C.J. Cramer, D.G. Truhlar J. Phys. Chem. B, 113, (2009), 6378 

Warning: RI is on but no J-basis has been assigned. Assigning Def2/J (nothing to worry about!)
================================================================================

----- Orbital basis set information -----
Your calculation utilizes the basis: aug-cc-pVTZ 
    H, B-Ne : Obtained from the ccRepo (grant-hill.group.shef.ac.uk/ccrepo) Feb. 2017
              R. A. Kendall, T. H. Dunning, Jr., R. J. Harrison, J. Chem. Phys. 96, 6796 (1992)
         He : Obtained from the ccRepo (grant-hill.group.shef.ac.uk/ccrepo) Feb. 2017
              D. E. Woon, T. H. Dunning, Jr., J. Chem. Phys. 100, 2975 (1994)
  Li-Be, Na : Obtained from the ccRepo (grant-hill.group.shef.ac.uk/ccrepo) Feb. 2017
              B. P. Prascher, D. E. Woon, K. A. Peterson, T. H. Dunning, Jr., A. K. Wilson, Theor. Chem. Acc. 128, 69 (2011)
         Mg : Obtained from the Peterson Research Group Website (tyr0.chem.wsu.edu/~kipeters) Feb. 2017
              B. P. Prascher, D. E. Woon, K. A. Peterson, T. H. Dunning, Jr., A. K. Wilson, Theor. Chem. Acc. 128, 69 (2011)
      Al-Ar : Obtained from the ccRepo (grant-hill.group.shef.ac.uk/ccrepo) Feb. 2017
              D. E. Woon, T. H. Dunning, Jr., J. Chem. Phys. 98, 1358 (1993)
      Sc-Zn : Obtained from the ccRepo (grant-hill.group.shef.ac.uk/ccrepo) Feb. 2017
              N. B. Balabanov, K. A. Peterson, J. Chem. Phys. 123, 064107 (2005)
              N. B. Balabanov, K. A. Peterson, J. Chem. Phys. 125, 074110 (2006)
      Ga-Kr : Obtained from the ccRepo (grant-hill.group.shef.ac.uk/ccrepo) Feb. 2017
              A. K. Wilson, D. E. Woon, K. A. Peterson, T. H. Dunning, Jr., J. Chem. Phys. 110, 7667 (1999)
     Ag, Au : Obtained from the Peterson Research Group Website (tyr0.chem.wsu.edu/~kipeters) Feb. 2017
              K. A. Peterson, C. Puzzarini, Theor. Chem. Acc. 114, 283 (2005)

----- AuxJ basis set information -----
Your calculation utilizes the auxiliary basis: def2/J
   F. Weigend, Phys. Chem. Chem. Phys. 8, 1057 (2006).

================================================================================
                                        WARNINGS
                       Please study these warnings very carefully!
================================================================================


WARNING: your system is open-shell and RHF/RKS was chosen
  ===> : WILL SWITCH to UHF/UKS


================================================================================
                                       INPUT FILE
================================================================================
NAME = cs_rporg_w10_red_solv_02.inp
|  1> !B3LYP aug-cc-pVTZ d3 TightSCF SlowConv RIJCOSX defgrid2
|  2> 
|  3> %pal
|  4> nprocs 15
|  5> end
|  6> 
|  7> %scf
|  8> MaxIter 1500
|  9> end
| 10> 
| 11> %maxcore 3500
| 12> 
| 13> !CPCM
| 14> %cpcm smd true
| 15> SMDsolvent "WATER"
| 16> surfacetype gepol_ses
| 17> rsolv 1.40
| 18> end
| 19> 
| 20> * xyz -1 2
| 21> C           0.05676834437269     -0.04126375525375     -0.07379470178985
| 22> C           0.04676127079215      1.38639972567344      0.09948592866889
| 23> C           0.00732325322699      2.02650392411858      1.32436257991460
| 24> C          -0.02811199415728      1.28756028332669      2.56763955505213
| 25> C          -0.01950367462772     -0.17671526637425      2.44249972135594
| 26> C           0.02128903830978     -0.81737610319329      1.17794298580176
| 27> C           0.02766320595178     -2.22274936131322      1.12035686382715
| 28> C          -0.00525760141292     -2.98509780735118      2.27563842056320
| 29> C          -0.04596579054487     -2.34934581671190      3.53299210043314
| 30> C          -0.05269695553496     -0.96718770864542      3.60727949422398
| 31> H           0.07307998987984      1.97354439848574     -0.82691927210829
| 32> H          -0.08387968905241     -0.43627556568955      4.56348338899376
| 33> H          -0.07227523191341     -2.95060132238905      4.44937134345183
| 34> H           0.00009741014830     -4.07969694965667      2.21544872655867
| 35> H           0.05965826160228     -2.67423134322413      0.12415494788135
| 36> C          -0.00135605546558      3.52012474646347      1.44205228332186
| 37> H          -0.89947922034870      3.86767983350127      1.98595203666262
| 38> H           0.86028970160146      3.87394551637077      2.03844092282286
| 39> H           0.02673872207916      4.00491399489856      0.45047397160307
| 40> O          -0.06383664808370      1.85761287334880      3.68239612384268
| 41> O           0.09269366317713     -0.59678036638491     -1.19351016008137
| 42> *
| 43> 
| 44>                          ****END OF INPUT****
================================================================================

                       ****************************
                       * Single Point Calculation *
                       ****************************

---------------------------------
CARTESIAN COORDINATES (ANGSTROEM)
---------------------------------
  C      0.056768   -0.041264   -0.073795
  C      0.046761    1.386400    0.099486
  C      0.007323    2.026504    1.324363
  C     -0.028112    1.287560    2.567640
  C     -0.019504   -0.176715    2.442500
  C      0.021289   -0.817376    1.177943
  C      0.027663   -2.222749    1.120357
  C     -0.005258   -2.985098    2.275638
  C     -0.045966   -2.349346    3.532992
  C     -0.052697   -0.967188    3.607279
  H      0.073080    1.973544   -0.826919
  H     -0.083880   -0.436276    4.563483
  H     -0.072275   -2.950601    4.449371
  H      0.000097   -4.079697    2.215449
  H      0.059658   -2.674231    0.124155
  C     -0.001356    3.520125    1.442052
  H     -0.899479    3.867680    1.985952
  H      0.860290    3.873946    2.038441
  H      0.026739    4.004914    0.450474
  O     -0.063837    1.857613    3.682396
  O      0.092694   -0.596780   -1.193510

----------------------------
CARTESIAN COORDINATES (A.U.)
----------------------------
  NO LB      ZA    FRAG     MASS         X           Y           Z
   0 C     6.0000    0    12.011    0.107277   -0.077977   -0.139452
   1 C     6.0000    0    12.011    0.088366    2.619916    0.188001
   2 C     6.0000    0    12.011    0.013839    3.829537    2.502683
   3 C     6.0000    0    12.011   -0.053124    2.433136    4.852136
   4 C     6.0000    0    12.011   -0.036857   -0.333943    4.615656
   5 C     6.0000    0    12.011    0.040230   -1.544617    2.225990
   6 C     6.0000    0    12.011    0.052276   -4.200388    2.117168
   7 C     6.0000    0    12.011   -0.009935   -5.641017    4.300333
   8 C     6.0000    0    12.011   -0.086863   -4.439620    6.676388
   9 C     6.0000    0    12.011   -0.099583   -1.827720    6.816770
  10 H     1.0000    0     1.008    0.138101    3.729458   -1.562651
  11 H     1.0000    0     1.008   -0.158510   -0.824441    8.623734
  12 H     1.0000    0     1.008   -0.136580   -5.575828    8.408093
  13 H     1.0000    0     1.008    0.000184   -7.709510    4.186591
  14 H     1.0000    0     1.008    0.112738   -5.053565    0.234619
  15 C     6.0000    0    12.011   -0.002563    6.652072    2.725084
  16 H     1.0000    0     1.008   -1.699769    7.308856    3.752905
  17 H     1.0000    0     1.008    1.625712    7.320696    3.852095
  18 H     1.0000    0     1.008    0.050529    7.568191    0.851272
  19 O     8.0000    0    15.999   -0.120634    3.510380    6.958720
  20 O     8.0000    0    15.999    0.175166   -1.127751   -2.255407

--------------------------------
INTERNAL COORDINATES (ANGSTROEM)
--------------------------------
 C      0   0   0     0.000000000000     0.00000000     0.00000000
 C      1   0   0     1.438175696216     0.00000000     0.00000000
 C      2   1   0     1.382610412540   124.50812949     0.00000000
 C      3   2   1     1.446731142241   121.70588078     0.00000000
 C      4   3   2     1.469638379532   115.82252815     0.00000000
 C      5   4   3     1.418172800013   121.74889751     0.00000000
 C      6   5   4     1.406567021544   119.20947720   179.99880767
 C      7   6   5     1.384534003941   121.05632145     0.00000000
 C      8   7   6     1.409530427677   119.77994445     0.00000000
 C      9   8   7     1.384169412013   119.89408279     0.00000000
 H      2   1   3     1.097113548277   115.42660111   179.99778718
 H     10   9   8     1.094150791610   122.11118552   179.99555097
 H      9   8   7     1.096335389763   119.93047029   179.98885497
 H      8   7   6     1.096265824401   120.25510231   179.99516959
 H      7   6   5     1.094201956181   116.72247885   180.00197700
 C      3   2   1     1.498275461199   122.09222497   180.00665501
 H     16   3   2     1.106004837019   110.89154313   121.61065199
 H     16   3   2     1.106029817507   110.90075962   238.45618005
 H     16   3   2     1.104100303503   111.53222565     0.00000000
 O      4   3   2     1.252564734435   122.21278884   179.99316998
 O      1   2   3     1.250460731615   123.30466601   179.99843054

---------------------------
INTERNAL COORDINATES (A.U.)
---------------------------
 C      0   0   0     0.000000000000     0.00000000     0.00000000
 C      1   0   0     2.717758198310     0.00000000     0.00000000
 C      2   1   0     2.612755029608   124.50812949     0.00000000
 C      3   2   1     2.733925648251   121.70588078     0.00000000
 C      4   3   2     2.777214053216   115.82252815     0.00000000
 C      5   4   3     2.679958202602   121.74889751     0.00000000
 C      6   5   4     2.658026459724   119.20947720   179.99880767
 C      7   6   5     2.616390090550   121.05632145     0.00000000
 C      8   7   6     2.663626485738   119.77994445     0.00000000
 C      9   8   7     2.615701111655   119.89408279     0.00000000
 H      2   1   3     2.073244144058   115.42660111   179.99778718
 H     10   9   8     2.067645345356   122.11118552   179.99555097
 H      9   8   7     2.071773637579   119.93047029   179.98885497
 H      8   7   6     2.071642178095   120.25510231   179.99516959
 H      7   6   5     2.067742032383   116.72247885   180.00197700
 C      3   2   1     2.831330294840   122.09222497   180.00665501
 H     16   3   2     2.090046244758   110.89154313   121.61065199
 H     16   3   2     2.090093451040   110.90075962   238.45618005
 H     16   3   2     2.086447197999   111.53222565     0.00000000
 O      4   3   2     2.367004313090   122.21278884   179.99316998
 O      1   2   3     2.363028323975   123.30466601   179.99843054

---------------------
BASIS SET INFORMATION
---------------------
There are 3 groups of distinct atoms

 Group   1 Type C   : 19s6p3d2f contracted to 5s4p3d2f pattern {88111/3111/111/11}
 Group   2 Type H   : 6s3p2d contracted to 4s3p2d pattern {3111/111/11}
 Group   3 Type O   : 19s6p3d2f contracted to 5s4p3d2f pattern {88111/3111/111/11}

Atom   0C    basis set group =>   1
Atom   1C    basis set group =>   1
Atom   2C    basis set group =>   1
Atom   3C    basis set group =>   1
Atom   4C    basis set group =>   1
Atom   5C    basis set group =>   1
Atom   6C    basis set group =>   1
Atom   7C    basis set group =>   1
Atom   8C    basis set group =>   1
Atom   9C    basis set group =>   1
Atom  10H    basis set group =>   2
Atom  11H    basis set group =>   2
Atom  12H    basis set group =>   2
Atom  13H    basis set group =>   2
Atom  14H    basis set group =>   2
Atom  15C    basis set group =>   1
Atom  16H    basis set group =>   2
Atom  17H    basis set group =>   2
Atom  18H    basis set group =>   2
Atom  19O    basis set group =>   3
Atom  20O    basis set group =>   3
---------------------------------
AUXILIARY/J BASIS SET INFORMATION
---------------------------------
There are 3 groups of distinct atoms

 Group   1 Type C   : 12s5p4d2f1g contracted to 6s4p3d1f1g pattern {711111/2111/211/2/1}
 Group   2 Type H   : 5s2p1d contracted to 3s1p1d pattern {311/2/1}
 Group   3 Type O   : 12s5p4d2f1g contracted to 6s4p3d1f1g pattern {711111/2111/211/2/1}

Atom   0C    basis set group =>   1
Atom   1C    basis set group =>   1
Atom   2C    basis set group =>   1
Atom   3C    basis set group =>   1
Atom   4C    basis set group =>   1
Atom   5C    basis set group =>   1
Atom   6C    basis set group =>   1
Atom   7C    basis set group =>   1
Atom   8C    basis set group =>   1
Atom   9C    basis set group =>   1
Atom  10H    basis set group =>   2
Atom  11H    basis set group =>   2
Atom  12H    basis set group =>   2
Atom  13H    basis set group =>   2
Atom  14H    basis set group =>   2
Atom  15C    basis set group =>   1
Atom  16H    basis set group =>   2
Atom  17H    basis set group =>   2
Atom  18H    basis set group =>   2
Atom  19O    basis set group =>   3
Atom  20O    basis set group =>   3


           ************************************************************
           *        Program running with 15 parallel MPI-processes    *
           *              working on a common directory               *
           ************************************************************
------------------------------------------------------------------------------
                             ORCA STARTUP CALCULATIONS
                           -- RI-GTO INTEGRALS CHOSEN --
------------------------------------------------------------------------------
------------------------------------------------------------------------------
                   ___                                                        
                  /   \      - P O W E R E D   B Y -                         
                 /     \                                                     
                 |  |  |   _    _      __       _____    __    __             
                 |  |  |  | |  | |    /  \     |  _  \  |  |  /  |          
                  \  \/   | |  | |   /    \    | | | |  |  | /  /          
                 / \  \   | |__| |  /  /\  \   | |_| |  |  |/  /          
                |  |  |   |  __  | /  /__\  \  |    /   |      \           
                |  |  |   | |  | | |   __   |  |    \   |  |\   \          
                \     /   | |  | | |  |  |  |  | |\  \  |  | \   \       
                 \___/    |_|  |_| |__|  |__|  |_| \__\ |__|  \__/        
                                                                              
                      - O R C A' S   B I G   F R I E N D -                    
                                      &                                       
                       - I N T E G R A L  F E E D E R -                       
                                                                              
 v1 FN, 2020, v2 2021, v3 2022-2024                                           
------------------------------------------------------------------------------


----------------------
SHARK INTEGRAL PACKAGE
----------------------

Number of atoms                             ...     21
Number of basis functions                   ...    860
Number of shells                            ...    332
Maximum angular momentum                    ...      3
Integral batch strategy                     ... SHARK/LIBINT Hybrid
RI-J (if used) integral strategy            ... SPLIT-RIJ (Revised 2003 algorithm where possible)
Printlevel                                  ...      1
Contraction scheme used                     ... PARTIAL GENERAL contraction
Prescreening option                         ... SCHWARTZ
   Thresh                                   ... 2.500e-11
   Tcut                                     ... 2.500e-12
   Tpresel                                  ... 2.500e-12 
Coulomb Range Separation                    ... NOT USED
Exchange Range Separation                   ... NOT USED
Multipole approximations                    ... NOT USED
Finite Nucleus Model                        ... NOT USED
CABS basis                                  ... NOT available
Auxiliary Coulomb fitting basis             ... AVAILABLE
   # of basis functions in Aux-J            ...    725
   # of shells in Aux-J                     ...    235
   Maximum angular momentum in Aux-J        ...      4
Auxiliary J/K fitting basis                 ... NOT available
Auxiliary Correlation fitting basis         ... NOT available
Auxiliary 'external' fitting basis          ... NOT available

Checking pre-screening integrals            ... done (  0.1 sec) Dimension = 332
Save PGC pre-screening integrals            ... done (  0.1 sec) Dimension = 332
Calculate PGC overlap integrals             ... done (  0.2 sec) Dimension = 254
Calculating pre-screening integrals (ORCA)  ... done (  0.3 sec) Dimension = 254
Check shell pair data                       ... done (  0.1 sec)
Shell pair information
Shell pair cut-off parameter TPreSel        ...   2.5e-12
Total number of shell pairs                 ...     55278
Shell pairs after pre-screening             ...     43795
Total number of primitive shell pairs       ...     70188
Primitive shell pairs kept                  ...     51570
          la=0 lb=0:   9764 shell pairs
          la=1 lb=0:  11027 shell pairs
          la=1 lb=1:   2693 shell pairs
          la=2 lb=0:   7790 shell pairs
          la=2 lb=1:   3801 shell pairs
          la=2 lb=2:   1386 shell pairs
          la=3 lb=0:   3817 shell pairs
          la=3 lb=1:   1844 shell pairs
          la=3 lb=2:   1333 shell pairs
          la=3 lb=3:    340 shell pairs

Calculating one electron integrals          ... done (  0.1 sec)
Calculating RI/J V-Matrix + Cholesky decomp.... done (  0.1 sec)
Calculating Nuclear repulsion               ... done (  0.0 sec) ENN=    721.417799139466 Eh

Diagonalization of the overlap matrix:
Smallest eigenvalue                        ... 3.509e-07
Time for diagonalization                   ...    0.198 sec
Threshold for overlap eigenvalues          ... 1.000e-07
Number of eigenvalues below threshold      ... 0

IMPORTANT:
Smallest eigenvalue of S below the DiffSThresh (1.000e-06) while
Thresh>1e-12 and/or TCut>1e-13! In order to avoid SCF convergence issues,
Thresh will be set to at least 1e-12 and TCut to at least 1e-13.
This can be turned off by adding %SCF DiffSThresh -1 END to the input.

Time for construction of square roots      ...    0.142 sec
Total time needed                          ...    0.414 sec

-------------------
DFT GRID GENERATION
-------------------

General Integration Accuracy     IntAcc      ... 4.388
Radial Grid Type                 RadialGrid  ... OptM3 with GC (2021)
Angular Grid (max. ang.)         AngularGrid ... 4 (Lebedev-302)
Angular grid pruning method      GridPruning ... 4 (adaptive)
Weight generation scheme         WeightScheme... mBecke (2022)
Basis function cutoff            BFCut       ... 1.0000e-11
Integration weight cutoff        WCut        ... 1.0000e-14
Partially contracted basis set               ... off
Rotationally invariant grid construction     ... off
Angular grids for H and He will be reduced by one unit
Diffuse basis detected: some atoms will have their outermost
                        angular grid increased by 1.

Total number of grid points                  ...   108469
Total number of batches                      ...     1707
Average number of points per batch           ...       63
Average number of grid points per atom       ...     5165

---------------------
SHARK GRID GENERATION
---------------------

General Integration Accuracy     IntAcc      ... 4.388
Radial Grid Type                 RadialGrid  ... OptM3 with GC (2021)
Angular Grid (max. ang.)         AngularGrid ... 4 (Lebedev-302)
Angular grid pruning method      GridPruning ... 4 (adaptive)
Weight generation scheme         WeightScheme... mBecke (2022)
Basis function cutoff            BFCut       ... 1.0000e-11
Integration weight cutoff        WCut        ... 1.0000e-14
Partially contracted basis set               ... off
Rotationally invariant grid construction     ... off
Angular grids for H and He will be reduced by one unit
Diffuse basis detected: some atoms will have their outermost
                        angular grid increased by 1.
Steep s-basis detected: some atoms will have their radial
                        grid points doubled.

Total number of grid points                  ...   190241
Total number of batches                      ...     2982
Average number of points per batch           ...       63
Average number of grid points per atom       ...     9059

--------------------
COSX GRID GENERATION
--------------------

GRIDX 1
-------
General Integration Accuracy     IntAcc      ... 3.816
Radial Grid Type                 RadialGrid  ... OptM3 with GC (2021)
Angular Grid (max. ang.)         AngularGrid ... 1 (Lebedev-50)
Angular grid pruning method      GridPruning ... 4 (adaptive)
Weight generation scheme         WeightScheme... mBecke (2022)
Basis function cutoff            BFCut       ... 1.0000e-11
Integration weight cutoff        WCut        ... 1.0000e-14
Partially contracted basis set               ... on
Rotationally invariant grid construction     ... off
Angular grids for H and He will be reduced by one unit
Diffuse basis detected: some atoms will have their outermost
                        angular grid increased by 1.

Total number of grid points                  ...    13635
Total number of batches                      ...      115
Average number of points per batch           ...      118
Average number of grid points per atom       ...      649
UseSFitting                                  ... on

GRIDX 2
-------
General Integration Accuracy     IntAcc      ... 4.020
Radial Grid Type                 RadialGrid  ... OptM3 with GC (2021)
Angular Grid (max. ang.)         AngularGrid ... 2 (Lebedev-110)
Angular grid pruning method      GridPruning ... 4 (adaptive)
Weight generation scheme         WeightScheme... mBecke (2022)
Basis function cutoff            BFCut       ... 1.0000e-11
Integration weight cutoff        WCut        ... 1.0000e-14
Partially contracted basis set               ... on
Rotationally invariant grid construction     ... off
Angular grids for H and He will be reduced by one unit
Diffuse basis detected: some atoms will have their outermost
                        angular grid increased by 1.

Total number of grid points                  ...    33550
Total number of batches                      ...      273
Average number of points per batch           ...      122
Average number of grid points per atom       ...     1598
UseSFitting                                  ... on

GRIDX 3
-------
General Integration Accuracy     IntAcc      ... 4.338
Radial Grid Type                 RadialGrid  ... OptM3 with GC (2021)
Angular Grid (max. ang.)         AngularGrid ... 3 (Lebedev-194)
Angular grid pruning method      GridPruning ... 4 (adaptive)
Weight generation scheme         WeightScheme... mBecke (2022)
Basis function cutoff            BFCut       ... 1.0000e-11
Integration weight cutoff        WCut        ... 1.0000e-14
Partially contracted basis set               ... on
Rotationally invariant grid construction     ... off
Angular grids for H and He will be reduced by one unit
Diffuse basis detected: some atoms will have their outermost
                        angular grid increased by 1.

Total number of grid points                  ...    74237
Total number of batches                      ...      593
Average number of points per batch           ...      125
Average number of grid points per atom       ...     3535
UseSFitting                                  ... on
Initializing property integral containers    ... done (  0.1 sec)

SHARK setup successfully completed in   9.1 seconds

Maximum memory used throughout the entire STARTUP-calculation: 87.9 MB


           ************************************************************
           *        Program running with 15 parallel MPI-processes    *
           *              working on a common directory               *
           ************************************************************
-------------------------------------------------------------------------------
                                 ORCA GUESS
                   Start orbitals & Density for SCF / CASSCF
-------------------------------------------------------------------------------

------------
SCF SETTINGS
------------
Hamiltonian:
 Density Functional     Method          .... DFT(GTOs)
 Exchange Functional    Exchange        .... B88
   X-Alpha parameter    XAlpha          ....  0.666667
   Becke's b parameter  XBeta           ....  0.004200
 Correlation Functional Correlation     .... LYP
 LDA part of GGA corr.  LDAOpt          .... VWN-5
 Gradients option       PostSCFGGA      .... off
 Hybrid DFT is turned on
   Fraction HF Exchange ScalHFX         ....  0.200000
   Scaling of DF-GGA-X  ScalDFX         ....  0.720000
   Scaling of DF-GGA-C  ScalDFC         ....  0.810000
   Scaling of DF-LDA-C  ScalLDAC        ....  1.000000
   Perturbative correction              ....  0.000000
   NL short-range parameter             ....  4.800000
 RI-approximation to the Coulomb term is turned on
   Number of AuxJ basis functions       .... 725
   RIJ-COSX (HFX calculated with COS-X)).... on


General Settings:
 Integral files         IntName         .... cs_rporg_w10_red_solv_02
 Hartree-Fock type      HFTyp           .... UHF
 Total Charge           Charge          ....   -1
 Multiplicity           Mult            ....    2
 Number of Electrons    NEL             ....   91
 Basis Dimension        Dim             ....  782
 Nuclear Repulsion      ENuc            ....    721.4177991395 Eh

Convergence Acceleration:
 AO-DIIS                CNVDIIS         .... on
   Start iteration      DIISMaxIt       ....     0
   Startup error        DIISStart       ....  0.200000
   # of expansion vecs  DIISMaxEq       ....     5
   Bias factor          DIISBfac        ....   1.050
   Max. coefficient     DIISMaxC        ....  10.000
 MO-DIIS                CNVKDIIS        .... off
 Trust-Rad. Augm. Hess. CNVTRAH         .... auto
   Auto Start mean grad. ratio tolernc. ....  1.125000
   Auto Start start iteration           ....    50
   Auto Start num. interpolation iter.  ....    10
   Max. Number of Micro iterations      ....    24
   Max. Number of Macro iterations      .... Maxiter - #DIIS iter
   Number of Davidson start vectors     ....     2
   Converg. threshold    (grad. norm)   ....   1.000e-05
   Grad. Scal. Fac. for Micro threshold ....   0.100
   Minimum threshold for Micro iter.    ....   1.000e-02
   NR start threshold (gradient norm)   ....   1.000e-04
   Initial trust radius                 ....   0.400
   Minimum AH scaling param. (alpha)    ....   1.000
   Maximum AH scaling param. (alpha)    .... 1000.000
   Quad. conv. algorithm                .... NR
   White noise on init. David. guess    .... on
   Maximum white noise                  ....   0.010
   Pseudo random numbers                .... off
   Inactive MOs                         .... canonical
   Orbital update algorithm             .... Taylor
   Preconditioner                       .... Diag
   Full preconditioner red. dimension   ....   250
 SOSCF                  CNVSOSCF        .... on
   Start iteration      SOSCFMaxIt      ....   150
   Startup grad/error   SOSCFStart      ....  0.001000
   Hessian update       SOSCFHessUp     .... L-BFGS
 Level Shifting         CNVShift        .... on
   Level shift para.    LevelShift      ....    0.2500
   Turn off err/grad.   ShiftErr        ....    0.0000
 Zerner damping         CNVZerner       .... off
 Static damping         CNVDamp         .... on
   Fraction old density DampFac         ....    0.8500
   Max. Damping (<1)    DampMax         ....    0.9800
   Min. Damping (>=0)   DampMin         ....    0.0000
   Turn off err/grad.   DampErr         ....    0.0300

SCF Procedure:
 Maximum # iterations   MaxIter         ....  1500
 SCF integral mode      SCFMode         .... Direct
   Integral package                     .... SHARK and LIBINT hybrid scheme
 Reset frequency        DirectResetFreq ....    20
 Integral Threshold     Thresh          ....  1.000e-12 Eh
 Primitive CutOff       TCut            ....  1.000e-13 Eh

Convergence Tolerance:
 Convergence Check Mode ConvCheckMode   .... Total+1el-Energy
 Convergence forced     ConvForced      .... 0
 Energy Change          TolE            ....  1.000e-08 Eh
 1-El. energy change                    ....  1.000e-05 Eh
 Orbital Gradient       TolG            ....  1.000e-05
 Orbital Rotation angle TolX            ....  1.000e-05
 DIIS Error             TolErr          ....  5.000e-07

------------------------------
INITIAL GUESS: MODEL POTENTIAL
------------------------------
Loading Hartree-Fock densities                     ... done
Calculating cut-offs                               ... done
Initializing the effective Hamiltonian             ... done
Setting up the integral package (SHARK)            ... done
Starting the Coulomb interaction                   ... done (   0.5 sec)
Making the grid                                    ... done (   0.4 sec)
Mapping shells                                     ... done
Starting the XC term evaluation                    ... done (   0.4 sec)
  promolecular density results
     # of electrons  =     89.993987626
     EX              =    -75.271406125
     EC              =     -3.069608202
     EX+EC           =    -78.341014326
Transforming the Hamiltonian                       ... done (   0.2 sec)
Diagonalizing the Hamiltonian                      ... done (   0.2 sec)
Back transforming the eigenvectors                 ... done (   0.3 sec)
Now organizing SCF variables                       ... done
                      ------------------
                      INITIAL GUESS DONE (   3.7 sec)
                      ------------------
             **** ENERGY FILE WAS UPDATED (cs_rporg_w10_red_solv_02.en.tmp) ****
Finished Guess after   5.7 sec
Maximum memory used throughout the entire GUESS-calculation: 65.9 MB


           ************************************************************
           *        Program running with 15 parallel MPI-processes    *
           *              working on a common directory               *
           ************************************************************

-------------------------------------------------------------------------------------------
                                      ORCA LEAN-SCF
                              memory conserving SCF solver
-------------------------------------------------------------------------------------------

--------------------
CPCM SOLVATION MODEL
--------------------
CPCM parameters:
  Epsilon                                         ...      78.3550
  Refrac                                          ...       1.3328
  Rsolv                                           ...       1.4000
  Surface type                                    ...    GEPOL SES
  Discretization scheme                           ... Constant num. charges
  Epsilon function type                           ...         CPCM
Solvent:                                          ... WATER
SMD-CDS solvent descriptors:
  Soln                                            ...       1.3328
  Soln25                                          ...       1.3323
  Sola                                            ...       0.0000
  Solb                                            ...       0.0000
  Solg                                            ...       0.0000
  Solc                                            ...       0.0000
  Solh                                            ...       0.0000
Radii:
  Scheme                                          ... Element-dependent radii
  Radius for C  used is    3.4960 Bohr (=   1.8500 Ang.)
  Radius for H  used is    2.2677 Bohr (=   1.2000 Ang.)
  Radius for O  used is    2.8724 Bohr (=   1.5200 Ang.)
Calculating surface                               ...        done! (  0.0s)
Cavity surface points                             ...          722
Cavity Volume                                     ...    1170.7020
Cavity Surface-area                               ...     666.2173
Calculating surface distance matrix               ...        done! (  0.0s)
Performing Cholesky decomposition & store         ...        done! (  0.0s)
Overall time for CPCM initialization              ...                 0.1s

----------------------------------------D-I-I-S--------------------------------------------
Iteration    Energy (Eh)           Delta-E    RMSDP     MaxDP     DIISErr   Damp  Time(sec)
-------------------------------------------------------------------------------------------
               ***  Starting incremental Fock matrix formation  ***
    1    -574.0641939027443641     0.00e+00  1.16e-03  8.11e-02  1.67e-01  0.850  19.8
Warning: op=0 Small HOMO/LUMO gap (   0.072) - skipping pre-diagonalization
         Will do a full diagonalization
    2    -574.1717046240732998    -1.08e-01  1.17e-03  8.25e-02  1.18e-01  0.850  15.8
                               ***Turning on AO-DIIS***
    3    -574.2402636872000130    -6.86e-02  7.18e-04  4.36e-02  7.49e-02  0.850  13.6
    4    -574.2836856792678191    -4.34e-02  5.37e-04  3.06e-02  6.18e-02  0.850  14.8
    5    -574.3153366418139285    -3.17e-02  4.41e-04  2.48e-02  5.40e-02  0.850  15.1
    6    -574.3407233910643299    -2.54e-02  3.74e-04  2.05e-02  4.68e-02  0.850  15.9
    7    -574.3618386271066356    -2.11e-02  3.18e-04  1.72e-02  3.92e-02  0.850  14.6
    8    -574.3793238123844276    -1.75e-02  2.65e-04  1.48e-02  3.20e-02  0.850  13.9
    9    -574.3935953920060911    -1.43e-02  2.21e-04  1.27e-02  2.68e-02  0.850  13.3
   10    -574.4053565347908261    -1.18e-02  1.25e-03  7.11e-02  2.30e-02  0.000  15.5
   11    -574.4674891067786575    -6.21e-02  4.40e-05  2.41e-03  1.14e-03  0.000  13.8
   12    -574.4675106436741316    -2.15e-05  2.93e-05  2.04e-03  2.32e-03  0.000  13.6
                              *** Initializing SOSCF ***
---------------------------------------S-O-S-C-F--------------------------------------
Iteration    Energy (Eh)           Delta-E    RMSDP     MaxDP     MaxGrad    Time(sec)
--------------------------------------------------------------------------------------
   13    -574.4675466761816551    -3.60e-05  1.42e-05  7.14e-04  4.34e-04    14.1
               *** Restarting incremental Fock matrix formation ***
   14    -574.4675431619480150     3.51e-06  2.12e-03  2.25e-01  1.69e-04    20.1
   15    -574.4675450655875011    -1.90e-06  9.80e-04  9.45e-02  1.82e-04    16.7
   16    -574.4675449744981961     9.11e-08  8.36e-04  8.06e-02  1.61e-04    16.6
   17    -574.4675456332854537    -6.59e-07  1.48e-04  1.48e-02  1.68e-05    16.3
   18    -574.4675456334166483    -1.31e-10  3.24e-05  3.25e-03  2.29e-05    16.6
                 **** Energy Check signals convergence ****

               *****************************************************
               *                     SUCCESS                       *
               *           SCF CONVERGED AFTER  18 CYCLES          *
               *****************************************************

Recomputing exchange energy using gridx3       ... done (   20.533 sec)
Old exchange energy                            :    -15.307349324 Eh
New exchange energy                            :    -15.307396483 Eh
Exchange energy change after final integration :     -0.000047158 Eh
Total energy after final integration           :   -574.467592792 Eh

SMD CDS free energy correction energy :                 5.17638     Kcal/mol
Total Energy after SMD CDS correction =              -574.459343705 Eh
             **** ENERGY FILE WAS UPDATED (cs_rporg_w10_red_solv_02.en.tmp) ****

----------------
TOTAL SCF ENERGY
----------------

Total Energy       :       -574.45934370500277 Eh          -15631.83345 eV

Components:
Nuclear Repulsion  :        721.41779913946561 Eh           19630.77632 eV
Electronic Energy  :      -1295.78457730582068 Eh          -35260.09094 eV
One Electron Energy:      -2226.11491179305494 Eh          -60575.66636 eV
Two Electron Energy:        930.33033448723438 Eh           25315.57542 eV
CPCM Dielectric    :         -0.10076746706154 Eh              -2.74202 eV
SMD CDS (Gcds)     :          0.00824908689447 Eh               0.22447 eV

Virial components:
Potential Energy   :      -1145.61265613534874 Eh          -31173.70521 eV
Kinetic Energy     :        571.15331243034598 Eh           15541.87176 eV
Virial Ratio       :          2.00578834299426

DFT components:
N(Alpha)           :       46.000063407182 electrons
N(Beta)            :       45.000060648963 electrons
N(Total)           :       91.000124056145 electrons
E(X)               :      -60.874981291069 Eh       
E(C)               :       -3.657002641237 Eh       
E(XC)              :      -64.531983932306 Eh       

CPCM Solvation Model Properties:
Surface-charge          :          0.93056259338668
Corrected charge        :          1.00000000000000
Outlying charge corr.   :          0.00033561750922 Eh               0.00913 eV
Free-energy (cav+disp)  :          0.00824908689447 Eh               0.22447 eV

---------------
SCF CONVERGENCE
---------------

  Last Energy change         ...    1.3119e-10  Tolerance :   1.0000e-08
  Last MAX-Density change    ...    3.2550e-03  Tolerance :   1.0000e-07
  Last RMS-Density change    ...    3.2402e-05  Tolerance :   5.0000e-09
  Last DIIS Error            ...    4.3413e-04  Tolerance :   5.0000e-07
  Last Orbital Gradient      ...    2.2853e-05  Tolerance :   1.0000e-05
  Last Orbital Rotation      ...    5.3074e-05  Tolerance :   1.0000e-05


----------------------
UHF SPIN CONTAMINATION
----------------------

Warning: in a DFT calculation there is little theoretical justification to 
         calculate <S**2> as in Hartree-Fock theory. We will do it anyways
         but you should keep in mind that the values have only limited relevance

Expectation value of <S**2>     :     0.757676
Ideal value S*(S+1) for S=0.5   :     0.750000
Deviation                       :     0.007676

----------------
ORBITAL ENERGIES
----------------
                 SPIN UP ORBITALS
  NO   OCC          E(Eh)            E(eV) 
   0   1.0000     -19.087661      -519.4017 
   1   1.0000     -19.087196      -519.3890 
   2   1.0000     -10.225827      -278.2589 
   3   1.0000     -10.222943      -278.1804 
   4   1.0000     -10.174560      -276.8639 
   5   1.0000     -10.173801      -276.8432 
   6   1.0000     -10.173622      -276.8383 
   7   1.0000     -10.173240      -276.8279 
   8   1.0000     -10.172954      -276.8202 
   9   1.0000     -10.170729      -276.7596 
  10   1.0000     -10.170511      -276.7537 
  11   1.0000     -10.160498      -276.4812 
  12   1.0000     -10.157483      -276.3992 
  13   1.0000      -1.010228       -27.4897 
  14   1.0000      -1.007911       -27.4266 
  15   1.0000      -0.855384       -23.2762 
  16   1.0000      -0.808351       -21.9963 
  17   1.0000      -0.750219       -20.4145 
  18   1.0000      -0.746910       -20.3244 
  19   1.0000      -0.697119       -18.9696 
  20   1.0000      -0.657020       -17.8784 
  21   1.0000      -0.611065       -16.6279 
  22   1.0000      -0.589374       -16.0377 
  23   1.0000      -0.553084       -15.0502 
  24   1.0000      -0.506712       -13.7883 
  25   1.0000      -0.492974       -13.4145 
  26   1.0000      -0.466182       -12.6855 
  27   1.0000      -0.444292       -12.0898 
  28   1.0000      -0.429152       -11.6778 
  29   1.0000      -0.424810       -11.5597 
  30   1.0000      -0.419568       -11.4170 
  31   1.0000      -0.418059       -11.3760 
  32   1.0000      -0.397056       -10.8045 
  33   1.0000      -0.388359       -10.5678 
  34   1.0000      -0.378770       -10.3069 
  35   1.0000      -0.377450       -10.2709 
  36   1.0000      -0.367106        -9.9895 
  37   1.0000      -0.349917        -9.5217 
  38   1.0000      -0.344417        -9.3721 
  39   1.0000      -0.334189        -9.0937 
  40   1.0000      -0.276219        -7.5163 
  41   1.0000      -0.256391        -6.9767 
  42   1.0000      -0.253190        -6.8896 
  43   1.0000      -0.245472        -6.6796 
  44   1.0000      -0.242266        -6.5924 
  45   1.0000      -0.154888        -4.2147 
  46   0.0000      -0.032991        -0.8977 
  47   0.0000      -0.013891        -0.3780 
  48   0.0000      -0.001323        -0.0360 
  49   0.0000       0.008652         0.2354 
  50   0.0000       0.015002         0.4082 
  51   0.0000       0.026405         0.7185 
  52   0.0000       0.028260         0.7690 
  53   0.0000       0.029619         0.8060 
  54   0.0000       0.040799         1.1102 
  55   0.0000       0.043827         1.1926 
  56   0.0000       0.048533         1.3207 

                 SPIN DOWN ORBITALS
  NO   OCC          E(Eh)            E(eV) 
   0   1.0000     -19.082178      -519.2525 
   1   1.0000     -19.081490      -519.2338 
   2   1.0000     -10.223993      -278.2090 
   3   1.0000     -10.220815      -278.1225 
   4   1.0000     -10.173497      -276.8349 
   5   1.0000     -10.173240      -276.8279 
   6   1.0000     -10.172867      -276.8178 
   7   1.0000     -10.172789      -276.8156 
   8   1.0000     -10.172460      -276.8067 
   9   1.0000     -10.170670      -276.7580 
  10   1.0000     -10.170329      -276.7487 
  11   1.0000     -10.159313      -276.4490 
  12   1.0000     -10.157605      -276.4025 
  13   1.0000      -1.000341       -27.2207 
  14   1.0000      -0.997637       -27.1471 
  15   1.0000      -0.853307       -23.2197 
  16   1.0000      -0.803359       -21.8605 
  17   1.0000      -0.748121       -20.3574 
  18   1.0000      -0.745033       -20.2734 
  19   1.0000      -0.692665       -18.8484 
  20   1.0000      -0.650271       -17.6948 
  21   1.0000      -0.608945       -16.5702 
  22   1.0000      -0.586700       -15.9649 
  23   1.0000      -0.550175       -14.9710 
  24   1.0000      -0.504419       -13.7259 
  25   1.0000      -0.490023       -13.3342 
  26   1.0000      -0.463314       -12.6074 
  27   1.0000      -0.443211       -12.0604 
  28   1.0000      -0.420738       -11.4489 
  29   1.0000      -0.417075       -11.3492 
  30   1.0000      -0.416637       -11.3373 
  31   1.0000      -0.416378       -11.3302 
  32   1.0000      -0.387391       -10.5415 
  33   1.0000      -0.386341       -10.5129 
  34   1.0000      -0.377236       -10.2651 
  35   1.0000      -0.365979        -9.9588 
  36   1.0000      -0.357164        -9.7189 
  37   1.0000      -0.342822        -9.3287 
  38   1.0000      -0.338595        -9.2136 
  39   1.0000      -0.333177        -9.0662 
  40   1.0000      -0.252399        -6.8681 
  41   1.0000      -0.249867        -6.7992 
  42   1.0000      -0.248150        -6.7525 
  43   1.0000      -0.238845        -6.4993 
  44   1.0000      -0.237291        -6.4570 
  45   0.0000      -0.088470        -2.4074 
  46   0.0000      -0.024866        -0.6766 
  47   0.0000      -0.002582        -0.0703 
  48   0.0000      -0.001148        -0.0312 
  49   0.0000       0.008628         0.2348 
  50   0.0000       0.015097         0.4108 
  51   0.0000       0.026447         0.7197 
  52   0.0000       0.028242         0.7685 
  53   0.0000       0.030274         0.8238 
  54   0.0000       0.040935         1.1139 
  55   0.0000       0.046482         1.2648 
*Only the first 10 virtual orbitals were printed.

                    ********************************
                    * MULLIKEN POPULATION ANALYSIS *
                    ********************************

--------------------------------------------
MULLIKEN ATOMIC CHARGES AND SPIN POPULATIONS
--------------------------------------------
   0 C :    1.115353    0.112063
   1 C :   -0.688353    0.111447
   2 C :    0.398779    0.099794
   3 C :    0.726415    0.132568
   4 C :    1.469489    0.015455
   5 C :    1.100980    0.044504
   6 C :   -1.220251    0.010174
   7 C :   -0.450746    0.030750
   8 C :   -0.414118    0.020727
   9 C :   -1.462930    0.021720
  10 H :    0.134677   -0.003953
  11 H :   -0.006067   -0.004090
  12 H :    0.616293   -0.000823
  13 H :    0.550821   -0.001302
  14 H :   -0.036086   -0.003534
  15 C :   -0.820942   -0.013086
  16 H :    0.209733    0.007442
  17 H :    0.206416    0.007422
  18 H :    0.189861   -0.001033
  19 O :   -1.305609    0.213915
  20 O :   -1.313716    0.199840
Sum of atomic charges         :   -1.0000000
Sum of atomic spin populations:    1.0000000

-----------------------------------------------------
MULLIKEN REDUCED ORBITAL CHARGES AND SPIN POPULATIONS
-----------------------------------------------------
CHARGE
  0 C s       :     3.450605  s :     3.450605
      pz      :     0.530706  p :     1.317507
      px      :     0.736313
      py      :     0.050488
      dz2     :    -0.029178  d :     0.144055
      dxz     :     0.049119
      dyz     :     0.060412
      dx2y2   :     0.030670
      dxy     :     0.033032
      f0      :    -0.018382  f :    -0.027519
      f+1     :     0.003432
      f-1     :    -0.006264
      f+2     :    -0.009293
      f-2     :     0.003068
      f+3     :     0.001258
      f-3     :    -0.001338

  1 C s       :     3.680905  s :     3.680905
      pz      :     0.955108  p :     2.829398
      px      :     1.039716
      py      :     0.834574
      dz2     :    -0.047704  d :     0.200544
      dxz     :     0.040347
      dyz     :     0.185649
      dx2y2   :    -0.003378
      dxy     :     0.025630
      f0      :    -0.013387  f :    -0.022494
      f+1     :     0.001052
      f-1     :     0.003783
      f+2     :    -0.009883
      f-2     :    -0.002045
      f+3     :    -0.000546
      f-3     :    -0.001469

  2 C s       :     3.281697  s :     3.281697
      pz      :     0.661250  p :     2.158199
      px      :     0.921762
      py      :     0.575187
      dz2     :     0.118990  d :     0.236535
      dxz     :     0.044984
      dyz     :     0.103359
      dx2y2   :    -0.014811
      dxy     :    -0.015987
      f0      :    -0.037934  f :    -0.075210
      f+1     :    -0.001564
      f-1     :    -0.015748
      f+2     :    -0.014571
      f-2     :    -0.000117
      f+3     :    -0.002934
      f-3     :    -0.002343

  3 C s       :     3.594361  s :     3.594361
      pz      :     0.383944  p :     1.585829
      px      :     0.764381
      py      :     0.437505
      dz2     :     0.008069  d :     0.139841
      dxz     :     0.053557
      dyz     :     0.039743
      dx2y2   :     0.026818
      dxy     :     0.011654
      f0      :    -0.025835  f :    -0.046446
      f+1     :     0.002336
      f-1     :    -0.010865
      f+2     :    -0.013503
      f-2     :     0.000644
      f+3     :     0.002157
      f-3     :    -0.001381

  4 C s       :     2.834059  s :     2.834059
      pz      :     0.430891  p :     1.729009
      px      :     0.985659
      py      :     0.312459
      dz2     :    -0.106898  d :     0.080147
      dxz     :    -0.011459
      dyz     :     0.154113
      dx2y2   :     0.035469
      dxy     :     0.008922
      f0      :    -0.049312  f :    -0.112705
      f+1     :     0.000601
      f-1     :    -0.010962
      f+2     :    -0.043272
      f-2     :    -0.004238
      f+3     :    -0.000384
      f-3     :    -0.005138

  5 C s       :     3.215904  s :     3.215904
      pz      :     0.542350  p :     1.769356
      px      :     0.987521
      py      :     0.239485
      dz2     :     0.082202  d :     0.030675
      dxz     :     0.031777
      dyz     :    -0.046855
      dx2y2   :    -0.024031
      dxy     :    -0.012419
      f0      :    -0.065995  f :    -0.116914
      f+1     :    -0.002949
      f-1     :    -0.016142
      f+2     :    -0.027545
      f-2     :    -0.000064
      f+3     :     0.000332
      f-3     :    -0.004553

  6 C s       :     4.171567  s :     4.171567
      pz      :     0.804629  p :     2.861271
      px      :     0.950858
      py      :     1.105783
      dz2     :     0.019149  d :     0.206757
      dxz     :     0.009316
      dyz     :     0.151438
      dx2y2   :     0.007178
      dxy     :     0.019676
      f0      :    -0.007568  f :    -0.019344
      f+1     :     0.000596
      f-1     :    -0.003068
      f+2     :    -0.008644
      f-2     :    -0.000308
      f+3     :     0.000817
      f-3     :    -0.001168

  7 C s       :     3.595039  s :     3.595039
      pz      :     0.896028  p :     2.822344
      px      :     0.971824
      py      :     0.954492
      dz2     :     0.005999  d :     0.037707
      dxz     :     0.035655
      dyz     :     0.002021
      dx2y2   :    -0.013745
      dxy     :     0.007776
      f0      :    -0.003518  f :    -0.004344
      f+1     :     0.000500
      f-1     :    -0.002737
      f+2     :    -0.002756
      f-2     :     0.000717
      f+3     :     0.000484
      f-3     :     0.002966

  8 C s       :     3.570266  s :     3.570266
      pz      :     0.886234  p :     2.824055
      px      :     0.964950
      py      :     0.972870
      dz2     :    -0.044456  d :     0.024321
      dxz     :     0.016451
      dyz     :     0.029353
      dx2y2   :    -0.005509
      dxy     :     0.028481
      f0      :    -0.005903  f :    -0.004524
      f+1     :     0.000916
      f-1     :     0.002809
      f+2     :    -0.002565
      f-2     :     0.000196
      f+3     :     0.000585
      f-3     :    -0.000562

  9 C s       :     4.347037  s :     4.347037
      pz      :     1.089029  p :     2.874961
      px      :     0.960720
      py      :     0.825213
      dz2     :     0.045196  d :     0.257565
      dxz     :     0.017373
      dyz     :     0.130879
      dx2y2   :     0.046561
      dxy     :     0.017556
      f0      :    -0.010605  f :    -0.016632
      f+1     :     0.000778
      f-1     :     0.001822
      f+2     :    -0.006081
      f-2     :     0.000163
      f+3     :     0.000096
      f-3     :    -0.002804

 10 H s       :     0.836230  s :     0.836230
      pz      :    -0.003976  p :     0.023999
      px      :     0.026150
      py      :     0.001825
      dz2     :     0.000396  d :     0.005093
      dxz     :     0.002556
      dyz     :     0.001514
      dx2y2   :    -0.000217
      dxy     :     0.000844

 11 H s       :     0.983405  s :     0.983405
      pz      :     0.017202  p :     0.017534
      px      :     0.020058
      py      :    -0.019727
      dz2     :     0.002646  d :     0.005129
      dxz     :     0.003284
      dyz     :    -0.001135
      dx2y2   :    -0.000581
      dxy     :     0.000914

 12 H s       :     0.394674  s :     0.394674
      pz      :    -0.011693  p :    -0.016467
      px      :     0.017045
      py      :    -0.021820
      dz2     :     0.000071  d :     0.005501
      dxz     :     0.002962
      dyz     :     0.001176
      dx2y2   :     0.000235
      dxy     :     0.001055

 13 H s       :     0.457930  s :     0.457930
      pz      :     0.004055  p :    -0.014250
      px      :     0.017376
      py      :    -0.035681
      dz2     :     0.001111  d :     0.005499
      dxz     :    -0.000215
      dyz     :     0.001060
      dx2y2   :    -0.000743
      dxy     :     0.004286

 14 H s       :     1.010702  s :     1.010702
      pz      :    -0.022392  p :     0.020951
      px      :     0.018424
      py      :     0.024919
      dz2     :    -0.000923  d :     0.004432
      dxz     :     0.003676
      dyz     :     0.001268
      dx2y2   :    -0.000066
      dxy     :     0.000476

 15 C s       :     3.577876  s :     3.577876
      pz      :     1.120164  p :     3.172625
      px      :     1.133236
      py      :     0.919224
      dz2     :     0.012790  d :     0.061009
      dxz     :     0.020028
      dyz     :     0.017777
      dx2y2   :    -0.000268
      dxy     :     0.010682
      f0      :     0.005416  f :     0.009432
      f+1     :     0.000138
      f-1     :     0.001570
      f+2     :    -0.001247
      f-2     :    -0.000203
      f+3     :     0.005154
      f-3     :    -0.001396

 16 H s       :     0.747935  s :     0.747935
      pz      :     0.007295  p :     0.037235
      px      :     0.014072
      py      :     0.015867
      dz2     :     0.001745  d :     0.005096
      dxz     :    -0.000677
      dyz     :     0.001541
      dx2y2   :     0.000887
      dxy     :     0.001601

 17 H s       :     0.750639  s :     0.750639
      pz      :     0.007097  p :     0.037804
      px      :     0.014653
      py      :     0.016054
      dz2     :     0.001870  d :     0.005141
      dxz     :    -0.000919
      dyz     :     0.001738
      dx2y2   :     0.001100
      dxy     :     0.001352

 18 H s       :     0.766130  s :     0.766130
      pz      :     0.009142  p :     0.037628
      px      :     0.011856
      py      :     0.016630
      dz2     :     0.000130  d :     0.006381
      dxz     :     0.002290
      dyz     :     0.001329
      dx2y2   :     0.001921
      dxy     :     0.000710

 19 O s       :     4.264292  s :     4.264292
      pz      :     1.544834  p :     4.986455
      px      :     1.566980
      py      :     1.874641
      dz2     :     0.007614  d :     0.049105
      dxz     :     0.019167
      dyz     :     0.012932
      dx2y2   :     0.002701
      dxy     :     0.006690
      f0      :     0.001756  f :     0.005757
      f+1     :     0.001195
      f-1     :     0.000774
      f+2     :     0.000752
      f-2     :     0.000924
      f+3     :     0.000154
      f-3     :     0.000200

 20 O s       :     4.259081  s :     4.259081
      pz      :     1.538948  p :     4.994686
      px      :     1.571295
      py      :     1.884444
      dz2     :     0.011472  d :     0.054491
      dxz     :     0.020486
      dyz     :     0.011758
      dx2y2   :     0.004630
      dxy     :     0.006145
      f0      :     0.001755  f :     0.005457
      f+1     :     0.001201
      f-1     :     0.000614
      f+2     :     0.000748
      f-2     :     0.000868
      f+3     :     0.000110
      f-3     :     0.000161


SPIN
  0 C s       :    -0.006620  s :    -0.006620
      pz      :    -0.009370  p :     0.108262
      px      :     0.114951
      py      :     0.002681
      dz2     :     0.000644  d :     0.012572
      dxz     :     0.008231
      dyz     :    -0.001785
      dx2y2   :    -0.000637
      dxy     :     0.006120
      f0      :    -0.001791  f :    -0.002151
      f+1     :     0.000951
      f-1     :    -0.000243
      f+2     :    -0.001103
      f-2     :     0.000329
      f+3     :    -0.000254
      f-3     :    -0.000039

  1 C s       :     0.005033  s :     0.005033
      pz      :     0.011141  p :     0.087566
      px      :     0.074061
      py      :     0.002364
      dz2     :     0.004060  d :     0.020523
      dxz     :     0.007823
      dyz     :    -0.000324
      dx2y2   :     0.000786
      dxy     :     0.008178
      f0      :    -0.000206  f :    -0.001675
      f+1     :     0.000271
      f-1     :    -0.000592
      f+2     :    -0.000420
      f-2     :    -0.000147
      f+3     :    -0.000407
      f-3     :    -0.000173

  2 C s       :    -0.003231  s :    -0.003231
      pz      :     0.007799  p :     0.094851
      px      :     0.092841
      py      :    -0.005790
      dz2     :     0.004249  d :     0.009725
      dxz     :     0.012560
      dyz     :    -0.003876
      dx2y2   :    -0.002049
      dxy     :    -0.001159
      f0      :    -0.000778  f :    -0.001551
      f+1     :    -0.000132
      f-1     :    -0.000550
      f+2     :     0.000037
      f-2     :    -0.000137
      f+3     :     0.000065
      f-3     :    -0.000056

  3 C s       :    -0.012389  s :    -0.012389
      pz      :     0.004753  p :     0.131230
      px      :     0.125624
      py      :     0.000853
      dz2     :     0.001415  d :     0.017882
      dxz     :     0.014387
      dyz     :     0.002710
      dx2y2   :    -0.000825
      dxy     :     0.000195
      f0      :    -0.002437  f :    -0.004155
      f+1     :     0.000256
      f-1     :    -0.000359
      f+2     :    -0.001340
      f-2     :     0.000121
      f+3     :    -0.000285
      f-3     :    -0.000111

  4 C s       :    -0.001254  s :    -0.001254
      pz      :    -0.006331  p :     0.018987
      px      :     0.020303
      py      :     0.005016
      dz2     :     0.001308  d :    -0.001192
      dxz     :    -0.001711
      dyz     :    -0.007588
      dx2y2   :     0.000720
      dxy     :     0.006079
      f0      :     0.000081  f :    -0.001085
      f+1     :     0.000288
      f-1     :    -0.000158
      f+2     :    -0.000098
      f-2     :    -0.000722
      f+3     :    -0.000331
      f-3     :    -0.000146

  5 C s       :     0.004129  s :     0.004129
      pz      :     0.015506  p :     0.041327
      px      :     0.032655
      py      :    -0.006835
      dz2     :    -0.001211  d :    -0.000239
      dxz     :     0.004980
      dyz     :     0.001430
      dx2y2   :    -0.003404
      dxy     :    -0.002035
      f0      :    -0.000132  f :    -0.000713
      f+1     :    -0.000512
      f-1     :    -0.000481
      f+2     :     0.000385
      f-2     :     0.000232
      f+3     :    -0.000183
      f-3     :    -0.000023

  6 C s       :     0.003143  s :     0.003143
      pz      :     0.000113  p :     0.008764
      px      :     0.008058
      py      :     0.000594
      dz2     :    -0.001154  d :    -0.002075
      dxz     :     0.000503
      dyz     :    -0.001189
      dx2y2   :    -0.001068
      dxy     :     0.000832
      f0      :     0.000023  f :     0.000343
      f+1     :     0.000038
      f-1     :     0.000171
      f+2     :    -0.000016
      f-2     :    -0.000079
      f+3     :     0.000139
      f-3     :     0.000067

  7 C s       :    -0.000874  s :    -0.000874
      pz      :     0.002280  p :     0.029254
      px      :     0.025587
      py      :     0.001386
      dz2     :    -0.000552  d :     0.002376
      dxz     :     0.004029
      dyz     :    -0.000352
      dx2y2   :    -0.000704
      dxy     :    -0.000045
      f0      :     0.000002  f :    -0.000005
      f+1     :    -0.000037
      f-1     :     0.000092
      f+2     :    -0.000000
      f-2     :    -0.000050
      f+3     :     0.000013
      f-3     :    -0.000025

  8 C s       :    -0.000870  s :    -0.000870
      pz      :     0.001057  p :     0.018277
      px      :     0.016533
      py      :     0.000687
      dz2     :     0.000138  d :     0.003342
      dxz     :     0.002014
      dyz     :    -0.001093
      dx2y2   :    -0.000044
      dxy     :     0.002327
      f0      :    -0.000004  f :    -0.000022
      f+1     :     0.000006
      f-1     :     0.000133
      f+2     :    -0.000089
      f-2     :    -0.000105
      f+3     :     0.000020
      f-3     :     0.000017

  9 C s       :     0.002931  s :     0.002931
      pz      :     0.001427  p :     0.019814
      px      :     0.017370
      py      :     0.001017
      dz2     :    -0.001592  d :    -0.001457
      dxz     :     0.001845
      dyz     :    -0.001193
      dx2y2   :    -0.000385
      dxy     :    -0.000132
      f0      :    -0.000059  f :     0.000433
      f+1     :     0.000004
      f-1     :     0.000243
      f+2     :     0.000106
      f-2     :     0.000166
      f+3     :    -0.000034
      f-3     :     0.000007

 10 H s       :    -0.004398  s :    -0.004398
      pz      :    -0.001506  p :     0.000106
      px      :     0.000540
      py      :     0.001072
      dz2     :     0.000081  d :     0.000340
      dxz     :     0.000200
      dyz     :     0.000108
      dx2y2   :     0.000019
      dxy     :    -0.000068

 11 H s       :    -0.003163  s :    -0.003163
      pz      :    -0.000197  p :    -0.000706
      px      :    -0.000180
      py      :    -0.000329
      dz2     :    -0.000001  d :    -0.000221
      dxz     :    -0.000039
      dyz     :    -0.000026
      dx2y2   :    -0.000091
      dxy     :    -0.000063

 12 H s       :    -0.001395  s :    -0.001395
      pz      :     0.000072  p :     0.000612
      px      :     0.000441
      py      :     0.000099
      dz2     :    -0.000025  d :    -0.000039
      dxz     :     0.000023
      dyz     :    -0.000003
      dx2y2   :     0.000000
      dxy     :    -0.000035

 13 H s       :    -0.002035  s :    -0.002035
      pz      :     0.000041  p :     0.000727
      px      :     0.000645
      py      :     0.000041
      dz2     :    -0.000007  d :     0.000006
      dxz     :    -0.000051
      dyz     :    -0.000020
      dx2y2   :     0.000012
      dxy     :     0.000072

 14 H s       :    -0.001712  s :    -0.001712
      pz      :    -0.000298  p :    -0.001540
      px      :    -0.000355
      py      :    -0.000887
      dz2     :     0.000003  d :    -0.000282
      dxz     :    -0.000092
      dyz     :    -0.000086
      dx2y2   :    -0.000064
      dxy     :    -0.000043

 15 C s       :    -0.008658  s :    -0.008658
      pz      :    -0.001648  p :    -0.009982
      px      :    -0.001651
      py      :    -0.006683
      dz2     :    -0.001254  d :     0.005035
      dxz     :    -0.000151
      dyz     :     0.000130
      dx2y2   :     0.001229
      dxy     :     0.005080
      f0      :     0.000109  f :     0.000519
      f+1     :     0.000008
      f-1     :    -0.000015
      f+2     :    -0.000045
      f-2     :    -0.000014
      f+3     :     0.000466
      f-3     :     0.000010

 16 H s       :     0.006717  s :     0.006717
      pz      :     0.000092  p :     0.000625
      px      :     0.000116
      py      :     0.000417
      dz2     :     0.000064  d :     0.000101
      dxz     :    -0.000006
      dyz     :     0.000023
      dx2y2   :     0.000021
      dxy     :    -0.000002

 17 H s       :     0.006676  s :     0.006676
      pz      :     0.000095  p :     0.000645
      px      :     0.000118
      py      :     0.000432
      dz2     :     0.000059  d :     0.000101
      dxz     :    -0.000002
      dyz     :     0.000028
      dx2y2   :     0.000022
      dxy     :    -0.000006

 18 H s       :    -0.001452  s :    -0.001452
      pz      :    -0.000031  p :     0.000503
      px      :     0.000201
      py      :     0.000334
      dz2     :    -0.000008  d :    -0.000084
      dxz     :     0.000014
      dyz     :    -0.000064
      dx2y2   :    -0.000007
      dxy     :    -0.000019

 19 O s       :     0.002815  s :     0.002815
      pz      :     0.006712  p :     0.205007
      px      :     0.192231
      py      :     0.006064
      dz2     :     0.000137  d :     0.005878
      dxz     :     0.004693
      dyz     :    -0.000006
      dx2y2   :     0.000040
      dxy     :     0.001014
      f0      :     0.000059  f :     0.000215
      f+1     :     0.000108
      f-1     :    -0.000009
      f+2     :     0.000001
      f-2     :     0.000040
      f+3     :     0.000010
      f-3     :     0.000007

 20 O s       :     0.003803  s :     0.003803
      pz      :     0.006361  p :     0.190749
      px      :     0.178942
      py      :     0.005446
      dz2     :    -0.000070  d :     0.005129
      dxz     :     0.003844
      dyz     :    -0.000059
      dx2y2   :     0.000018
      dxy     :     0.001397
      f0      :     0.000039  f :     0.000158
      f+1     :     0.000038
      f-1     :    -0.000002
      f+2     :    -0.000001
      f-2     :     0.000056
      f+3     :     0.000020
      f-3     :     0.000008



                     *******************************
                     * LOEWDIN POPULATION ANALYSIS *
                     *******************************

-------------------------------------------
LOEWDIN ATOMIC CHARGES AND SPIN POPULATIONS
-------------------------------------------
   0 C :   -0.653294    0.119855
   1 C :    0.178378    0.086056
   2 C :   -0.164931    0.100139
   3 C :   -0.621403    0.132835
   4 C :   -0.146696    0.044184
   5 C :   -0.152020    0.044226
   6 C :    0.179123    0.012675
   7 C :    0.186802    0.019624
   8 C :    0.186679    0.016903
   9 C :    0.180972    0.014555
  10 H :   -0.188691    0.009437
  11 H :   -0.194499    0.001565
  12 H :   -0.171271    0.002614
  13 H :   -0.171655    0.003707
  14 H :   -0.194224    0.000640
  15 C :    0.526166    0.013629
  16 H :   -0.164846    0.003497
  17 H :   -0.164796    0.003499
  18 H :   -0.168051   -0.000239
  19 O :    0.376219    0.190616
  20 O :    0.342036    0.179984

----------------------------------------------------
LOEWDIN REDUCED ORBITAL CHARGES AND SPIN POPULATIONS
----------------------------------------------------
CHARGE
  0 C s       :     2.484718  s :     2.484718
      pz      :     0.841876  p :     2.268692
      px      :     0.582720
      py      :     0.844096
      dz2     :     0.350272  d :     1.249753
      dxz     :     0.208171
      dyz     :     0.378646
      dx2y2   :     0.158308
      dxy     :     0.154355
      f0      :     0.186115  f :     0.650131
      f+1     :     0.070521
      f-1     :     0.132082
      f+2     :     0.116281
      f-2     :     0.077873
      f+3     :     0.032841
      f-3     :     0.034418

  1 C s       :     2.492308  s :     2.492308
      pz      :     0.847508  p :     2.311758
      px      :     0.632506
      py      :     0.831744
      dz2     :     0.166365  d :     0.685713
      dxz     :     0.071381
      dyz     :     0.240519
      dx2y2   :     0.115549
      dxy     :     0.091899
      f0      :     0.077727  f :     0.331843
      f+1     :     0.030145
      f-1     :     0.066927
      f+2     :     0.065303
      f-2     :     0.025441
      f+3     :     0.032696
      f-3     :     0.033604

  2 C s       :     2.471966  s :     2.471966
      pz      :     0.863605  p :     2.271440
      px      :     0.608183
      py      :     0.799652
      dz2     :     0.248969  d :     0.934711
      dxz     :     0.137927
      dyz     :     0.274061
      dx2y2   :     0.130518
      dxy     :     0.143236
      f0      :     0.143993  f :     0.486814
      f+1     :     0.046542
      f-1     :     0.074151
      f+2     :     0.089204
      f-2     :     0.053431
      f+3     :     0.050057
      f-3     :     0.029435

  3 C s       :     2.475296  s :     2.475296
      pz      :     0.847333  p :     2.258441
      px      :     0.585002
      py      :     0.826106
      dz2     :     0.347963  d :     1.233543
      dxz     :     0.216243
      dyz     :     0.376847
      dx2y2   :     0.151292
      dxy     :     0.141198
      f0      :     0.185867  f :     0.654122
      f+1     :     0.071421
      f-1     :     0.135631
      f+2     :     0.116212
      f-2     :     0.074939
      f+3     :     0.037501
      f-3     :     0.032550

  4 C s       :     2.459204  s :     2.459204
      pz      :     0.843129  p :     2.283446
      px      :     0.613740
      py      :     0.826577
      dz2     :     0.245198  d :     0.903508
      dxz     :     0.130052
      dyz     :     0.264987
      dx2y2   :     0.137412
      dxy     :     0.125859
      f0      :     0.134112  f :     0.500538
      f+1     :     0.038940
      f-1     :     0.085813
      f+2     :     0.094566
      f-2     :     0.068685
      f+3     :     0.039598
      f-3     :     0.038824

  5 C s       :     2.460214  s :     2.460214
      pz      :     0.830152  p :     2.285999
      px      :     0.615945
      py      :     0.839902
      dz2     :     0.224943  d :     0.905486
      dxz     :     0.128478
      dyz     :     0.287465
      dx2y2   :     0.137779
      dxy     :     0.126821
      f0      :     0.139370  f :     0.500322
      f+1     :     0.055831
      f-1     :     0.080720
      f+2     :     0.094665
      f-2     :     0.050561
      f+3     :     0.040453
      f-3     :     0.038721

  6 C s       :     2.482022  s :     2.482022
      pz      :     0.846376  p :     2.284927
      px      :     0.593472
      py      :     0.845079
      dz2     :     0.175673  d :     0.713863
      dxz     :     0.060701
      dyz     :     0.247144
      dx2y2   :     0.116315
      dxy     :     0.114030
      f0      :     0.084534  f :     0.340065
      f+1     :     0.027232
      f-1     :     0.059386
      f+2     :     0.071589
      f-2     :     0.027327
      f+3     :     0.035885
      f-3     :     0.034111

  7 C s       :     2.493325  s :     2.493325
      pz      :     0.858045  p :     2.301361
      px      :     0.609756
      py      :     0.833560
      dz2     :     0.260925  d :     0.691781
      dxz     :     0.124366
      dyz     :     0.172677
      dx2y2   :     0.095784
      dxy     :     0.038028
      f0      :     0.108060  f :     0.326731
      f+1     :     0.024184
      f-1     :     0.062052
      f+2     :     0.054260
      f-2     :     0.056200
      f+3     :     0.005740
      f-3     :     0.016235

  8 C s       :     2.493291  s :     2.493291
      pz      :     0.836519  p :     2.300305
      px      :     0.608390
      py      :     0.855396
      dz2     :     0.147360  d :     0.692777
      dxz     :     0.067705
      dyz     :     0.273728
      dx2y2   :     0.108469
      dxy     :     0.095514
      f0      :     0.085068  f :     0.326948
      f+1     :     0.034893
      f-1     :     0.053780
      f+2     :     0.070226
      f-2     :     0.017949
      f+3     :     0.033334
      f-3     :     0.031699

  9 C s       :     2.481709  s :     2.481709
      pz      :     0.829310  p :     2.284141
      px      :     0.594515
      py      :     0.860316
[...]
      dxz     :     0.003241
      dyz     :    -0.000113
      dx2y2   :    -0.000173
      dxy     :     0.004190
      f0      :    -0.000081  f :     0.000800
      f+1     :    -0.000027
      f-1     :     0.000016
      f+2     :    -0.000117
      f-2     :     0.001304
      f+3     :    -0.000255
      f-3     :    -0.000040

 10 H s       :    -0.001344  s :    -0.001344
      pz      :     0.000089  p :     0.006307
      px      :     0.006188
      py      :     0.000030
      dz2     :    -0.000046  d :     0.004474
      dxz     :     0.000860
      dyz     :     0.000066
      dx2y2   :    -0.000074
      dxy     :     0.003668

 11 H s       :    -0.000343  s :    -0.000343
      pz      :    -0.000006  p :     0.001845
      px      :     0.002166
      py      :    -0.000314
      dz2     :    -0.000051  d :     0.000063
      dxz     :    -0.000135
      dyz     :     0.000012
      dx2y2   :    -0.000110
      dxy     :     0.000346

 12 H s       :    -0.000315  s :    -0.000315
      pz      :     0.000031  p :     0.001656
      px      :     0.001600
      py      :     0.000024
      dz2     :    -0.000004  d :     0.001272
      dxz     :     0.000030
      dyz     :     0.000032
      dx2y2   :    -0.000014
      dxy     :     0.001228

 13 H s       :    -0.000457  s :    -0.000457
      pz      :    -0.000020  p :     0.002485
      px      :     0.002359
      py      :     0.000146
      dz2     :     0.000029  d :     0.001678
      dxz     :     0.000129
      dyz     :     0.000005
      dx2y2   :     0.000016
      dxy     :     0.001498

 14 H s       :    -0.000214  s :    -0.000214
      pz      :    -0.000217  p :     0.001095
      px      :     0.001457
      py      :    -0.000145
      dz2     :    -0.000022  d :    -0.000241
      dxz     :     0.000158
      dyz     :    -0.000137
      dx2y2   :    -0.000016
      dxy     :    -0.000225

 15 C s       :    -0.000367  s :    -0.000367
      pz      :    -0.000437  p :    -0.002270
      px      :    -0.000251
      py      :    -0.001581
      dz2     :    -0.000031  d :     0.009497
      dxz     :    -0.000652
      dyz     :    -0.000229
      dx2y2   :     0.000307
      dxy     :     0.010102
      f0      :    -0.000014  f :     0.006769
      f+1     :     0.000998
      f-1     :     0.000057
      f+2     :    -0.000033
      f-2     :     0.000668
      f+3     :     0.005060
      f-3     :     0.000034

 16 H s       :     0.002248  s :     0.002248
      pz      :    -0.000000  p :     0.000610
      px      :     0.000135
      py      :     0.000475
      dz2     :     0.000433  d :     0.000639
      dxz     :     0.000021
      dyz     :     0.000155
      dx2y2   :     0.000087
      dxy     :    -0.000057

 17 H s       :     0.002251  s :     0.002251
      pz      :     0.000021  p :     0.000610
      px      :     0.000108
      py      :     0.000481
      dz2     :     0.000459  d :     0.000638
      dxz     :     0.000000
      dyz     :     0.000134
      dx2y2   :     0.000081
      dxy     :    -0.000037

 18 H s       :    -0.000080  s :    -0.000080
      pz      :    -0.000038  p :    -0.000021
      px      :     0.000223
      py      :    -0.000206
      dz2     :    -0.000045  d :    -0.000138
      dxz     :     0.000094
      dyz     :    -0.000118
      dx2y2   :    -0.000018
      dxy     :    -0.000051

 19 O s       :     0.002947  s :     0.002947
      pz      :     0.001423  p :     0.157125
      px      :     0.153032
      py      :     0.002670
      dz2     :     0.000008  d :     0.025616
      dxz     :     0.021181
      dyz     :     0.000053
      dx2y2   :     0.000029
      dxy     :     0.004345
      f0      :    -0.000040  f :     0.004928
      f+1     :     0.002994
      f-1     :     0.000038
      f+2     :    -0.000025
      f-2     :     0.001827
      f+3     :     0.000122
      f-3     :     0.000012

 20 O s       :     0.002746  s :     0.002746
      pz      :     0.001485  p :     0.149213
      px      :     0.145254
      py      :     0.002474
      dz2     :     0.000064  d :     0.023685
      dxz     :     0.017771
      dyz     :    -0.000044
      dx2y2   :     0.000009
      dxy     :     0.005884
      f0      :    -0.000023  f :     0.004340
      f+1     :     0.002188
      f-1     :     0.000029
      f+2     :    -0.000038
      f-2     :     0.001966
      f+3     :     0.000210
      f-3     :     0.000008



                      *****************************
                      * MAYER POPULATION ANALYSIS *
                      *****************************

  NA   - Mulliken gross atomic population
  ZA   - Total nuclear charge
  QA   - Mulliken gross atomic charge
  VA   - Mayer's total valence
  BVA  - Mayer's bonded valence
  FA   - Mayer's free valence

  ATOM       NA         ZA         QA         VA         BVA        FA
  0 C      4.8846     6.0000     1.1154     1.1104     1.0862     0.0242
  1 C      6.6884     6.0000    -0.6884     2.9514     2.9403     0.0111
  2 C      5.6012     6.0000     0.3988     2.9501     2.9326     0.0175
  3 C      5.2736     6.0000     0.7264     2.1120     2.0831     0.0289
  4 C      4.5305     6.0000     1.4695     0.5891     0.5869     0.0022
  5 C      4.8990     6.0000     1.1010     1.4569     1.4542     0.0028
  6 C      7.2203     6.0000    -1.2203     2.5159     2.5158     0.0002
  7 C      6.4507     6.0000    -0.4507     2.6569     2.6558     0.0011
  8 C      6.4141     6.0000    -0.4141     2.5722     2.5715     0.0007
  9 C      7.4629     6.0000    -1.4629     2.4605     2.4601     0.0004
 10 H      0.8653     1.0000     0.1347     1.1715     1.1715     0.0000
 11 H      1.0061     1.0000    -0.0061     1.3149     1.3149     0.0000
 12 H      0.3837     1.0000     0.6163     0.3645     0.3645     0.0000
 13 H      0.4492     1.0000     0.5508     0.4703     0.4703     0.0000
 14 H      1.0361     1.0000    -0.0361     1.3307     1.3307     0.0000
 15 C      6.8209     6.0000    -0.8209     3.5199     3.5196     0.0002
 16 H      0.7903     1.0000     0.2097     0.9887     0.9886     0.0000
 17 H      0.7936     1.0000     0.2064     0.9923     0.9923     0.0000
 18 H      0.8101     1.0000     0.1899     1.0247     1.0247     0.0000
 19 O      9.3056     8.0000    -1.3056     0.9562     0.9148     0.0414
 20 O      9.3137     8.0000    -1.3137     0.9535     0.9170     0.0365

  Mayer bond orders larger than 0.100000
B(  0-C ,  1-C ) :   0.7675 B(  0-C ,  3-C ) :   0.1187 B(  0-C ,  5-C ) :   0.2584 
B(  0-C ,  6-C ) :   0.6118 B(  0-C ,  8-C ) :   0.1248 B(  0-C ,  9-C ) :  -0.1537 
B(  0-C , 10-H ) :  -0.2684 B(  0-C , 20-O ) :  -0.3690 B(  1-C ,  2-C ) :   1.0688 
B(  1-C ,  3-C ) :  -0.2645 B(  1-C ,  4-C ) :  -0.1096 B(  1-C ,  5-C ) :   0.3253 
B(  1-C ,  6-C ) :   0.1175 B(  1-C , 10-H ) :   0.9025 B(  1-C , 15-C ) :  -0.1627 
B(  1-C , 20-O ) :   0.2752 B(  2-C ,  3-C ) :   0.6808 B(  2-C ,  4-C ) :   0.5910 
B(  2-C ,  5-C ) :  -0.1370 B(  2-C , 15-C ) :   0.3941 B(  2-C , 16-H ) :  -0.1213 
B(  2-C , 17-H ) :  -0.1211 B(  2-C , 19-O ) :   0.1968 B(  2-C , 20-O ) :   0.1256 
B(  3-C ,  4-C ) :   0.3825 B(  3-C ,  6-C ) :  -0.1820 B(  3-C ,  9-C ) :   0.6954 
B(  3-C , 10-H ) :   0.1031 B(  3-C , 15-C ) :   0.2563 B(  4-C ,  5-C ) :   0.9235 
B(  4-C ,  6-C ) :  -0.6325 B(  4-C ,  7-C ) :  -0.2267 B(  4-C ,  9-C ) :  -0.5172 
B(  4-C , 11-H ) :  -0.1876 B(  4-C , 19-O ) :   0.1349 B(  5-C ,  8-C ) :  -0.1226 
B(  5-C ,  9-C ) :  -0.2638 B(  5-C , 10-H ) :   0.1368 B(  5-C , 14-H ) :  -0.1664 
B(  5-C , 20-O ) :   0.2199 B(  6-C ,  7-C ) :   1.1628 B(  6-C ,  9-C ) :   0.1395 
B(  6-C , 13-H ) :  -0.1896 B(  6-C , 14-H ) :   1.3714 B(  7-C ,  8-C ) :   1.1008 
B(  7-C , 13-H ) :   0.4647 B(  8-C ,  9-C ) :   1.2079 B(  8-C , 12-H ) :   0.3649 
B(  9-C , 11-H ) :   1.2813 B(  9-C , 12-H ) :  -0.1950 B( 10-H , 14-H ) :   0.1152 
B( 10-H , 20-O ) :   0.1527 B( 11-H , 19-O ) :   0.2813 B( 14-H , 20-O ) :   0.2690 
B( 15-C , 16-H ) :   0.9956 B( 15-C , 17-H ) :   0.9991 B( 15-C , 18-H ) :   1.0146 


-------
TIMINGS
-------

Total SCF time: 0 days 0 hours 5 min 8 sec 

Total time                  ....     308.588 sec
Sum of individual times     ....     304.904 sec  ( 98.8%)

SCF preparation             ....       2.009 sec  (  0.7%)
Fock matrix formation       ....     233.951 sec  ( 75.8%)
  Startup                   ....       9.310 sec  (  4.0% of F)
  Split-RI-J                ....      20.090 sec  (  8.6% of F)
  Chain of spheres X        ....     134.554 sec  ( 57.5% of F)
  XC integration            ....      49.127 sec  ( 21.0% of F)
    XC Preparation          ....       0.000 sec  (  0.0% of XC)
    Basis function eval.    ....       3.640 sec  (  7.4% of XC)
    Density eval.           ....      14.895 sec  ( 30.3% of XC)
    XC-Functional eval.     ....       0.247 sec  (  0.5% of XC)
    XC-Potential eval.      ....      22.048 sec  ( 44.9% of XC)
  CPCM terms                ....       7.357 sec  (  3.1% of F)
Diagonalization             ....       0.000 sec  (  0.0%)
Density matrix formation    ....      17.825 sec  (  5.8%)
Total Energy calculation    ....       7.862 sec  (  2.5%)
Population analysis         ....       1.827 sec  (  0.6%)
Orbital Transformation      ....       3.394 sec  (  1.1%)
Orbital Orthonormalization  ....       0.000 sec  (  0.0%)
DIIS solution               ....      30.677 sec  (  9.9%)
SOSCF solution              ....       7.360 sec  (  2.4%)
Finished LeanSCF after 309.6 sec

Maximum memory used throughout the entire LEANSCF-calculation: 136.5 MB


-------------------------------------------------------------------------------
                          DFT DISPERSION CORRECTION                            
                                                                               
                              DFTD3 V3.1  Rev 1                                
                          USING Becke-Johnson damping                          
-------------------------------------------------------------------------------
The B3LYP functional is recognized
Active option DFTDOPT                   ...         4   

molecular C6(AA) [au] = 5699.665687 


            DFT-D V3
 parameters
 s6 scaling factor         :     1.0000 
 a1 scaling factor         :     0.3981 
 s8 scaling factor         :     1.9889 
 a2 scaling factor         :     4.4211 
 ad hoc parameters k1-k3   :    16.0000     1.3333    -4.0000 

 Edisp/kcal,au: -27.995489017266  -0.044613646786 
 E6   /kcal   : -12.823677192 
 E8   /kcal   : -15.171811825 
 % E8         :  54.193773203 

-------------------------   ----------------
Dispersion correction           -0.044613647
-------------------------   ----------------


-------------------------   --------------------
FINAL SINGLE POINT ENERGY      -574.503957351789
-------------------------   --------------------



           ************************************************************
           *        Program running with 15 parallel MPI-processes    *
           *              working on a common directory               *
           ************************************************************

------------------------------------------------------------------------------
                              ORCA PROPERTY CALCULATIONS
------------------------------------------------------------------------------

GBWName                                 ... cs_rporg_w10_red_solv_02.gbw
Number of atoms                         ...     21
Number of basis functions               ...    860
Max core memory                         ...   3500 MB

Electric properties:
Dipole moment                           ... YES
Quadrupole moment                       ...  NO
Static polarizability (Dipole/Dipole)   ...  NO
Static polarizability (Dipole/Quad.)    ...  NO
Static polarizability (Quad./Quad.)     ...  NO
Static polarizability (Velocity)        ...  NO

Atomic electric properties:
Dipole moment                           ...  NO
Quadrupole moment                       ...  NO
Static polarizability                   ...  NO

Choice of electric origin               ... Center of mass
Position of electric origin             ...     0.005583     0.084459     3.175671

General magnetic properties:
Magnetizability                         ...  NO

EPR properties:
g-Tensor (aka g-matrix)                 ...  NO
Zero-Field splitting spin-orbit         ...  NO
Zero-field splitting spin-spin          ...  NO
Hyperfine couplings                     ...  NO (   0 nuclei)
Quadrupole couplings                    ...  NO (   0 nuclei)
Contact density                         ...  NO (   0 nuclei)

NMR properties:
Chemical shifts                         ...  NO (   0 nuclei)
Spin-rotation constants                 ...  NO (   0 nuclei)
Spin-spin couplings                     ...  NO (   0 nuclei,    0 pairs)

Choice of magnetic origin               ... GIAO
Position of magnetic origin             ...     0.000000     0.000000     0.000000

Properties with geometric perturbations:
SCF Hessian                             ...  NO
IR spectrum                             ...  NO
VCD spectrum                            ...  NO
X-ray spectroscopy properties:
SCF XES/XAS/RIXS spectra                ...  NO


-------------
DIPOLE MOMENT
-------------

Method             : SCF
Type of density    : Electron Density
Multiplicity       :   2
Irrep              :   0
Energy             :  -574.4593437050027660 Eh
Relativity type    : 
Basis              : AO
                                X                 Y                 Z
Electronic contribution:      0.028178068      -3.925634928      -0.482979674
Nuclear contribution   :     -0.055391570       3.039875839       1.447342045
                        -----------------------------------------
Total Dipole Moment    :     -0.027213502      -0.885759089       0.964362371
                        -----------------------------------------
Magnitude (a.u.)       :      1.309696347
Magnitude (Debye)      :      3.328983555



--------------------
Rotational spectrum 
--------------------
 
Rotational constants in cm-1:             0.041924             0.026162             0.016157 
Rotational constants in MHz :          1256.843177           784.307239           484.385236 

Dipole components along the rotational axes: 
x,y,z [a.u.] :    -1.021066     0.820200     0.000685 
x,y,z [Debye]:    -2.595344     2.084782     0.001742 

 

Dipole moment calculation done in   0.3 sec 

Maximum memory used throughout the entire PROP-calculation: 72.5 MB

--------------------------------
SUGGESTED CITATIONS FOR THIS RUN
--------------------------------

Below you find a list of papers that are relevant to this ORCA run
We neither can nor want to force you to cite these papers, but we appreciate if you do
You receive ORCA, which is the product of decades of hard work by many enthusiastic individuals, for free
The only thing we kindly ask in return is that you cite our papers,
We deeply appreciate it, if you show your appreciation for ORCA by not just citing the generic ORCA reference.

Please note that relegating all ORCA citations to the supporting information does *not* help us.
SI sections are not indexed - citations you put there will not count into any citation statistics
But we need these citations in order to attract the funding resources that allow us to do what we are doing

Therefore, if you are a happy ORCA user, please consider citing a few of the papers listed below in the main body of your paper

In addition to the list printed below, the program has created the file cs_rporg_w10_red_solv_02.bibtex that contains the list in bibtex format
You can import this file easily into all common literature databanks and citation aid programs


List of essential papers. We consider these as the minimum necessary citations

  1. Neese,F.
     Software update: the ORCA program system, version 5.0
     WIRES Comput. Molec. Sci., 2022 12(1)e1606
     doi.org/10.1002/wcms.1606

List of papers to cite with high priority. The work reported in these papers was absolutely
necessary for this run to complete.
Our perspective: the developers of density functionals and basis sets usually get cited in chemistry papers
Good! But without the algorithms to do something with them, the functionals or basis sets would not do anything.
Hence, in our opinion, the algorithm design and method developments papers are equally worthy of getting cited

  1. Neese,F.
     An improvement of the resolution of the identity approximation for the formation of the Coulomb matrix
     J. Comp. Chem., 2003 24(14)1740-1747
     doi.org/10.1002/jcc.10318
  2. Neese,F.; Wennmohs,F.; Hansen,A.; Becker,U.
     Efficient, approximate and parallel Hartree-Fock and hybrid DFT calculations. A 'chain-of-spheres' algorithm for the Hartree-Fock exchange
     Chem. Phys., 2009 356(1-3)98-109
     doi.org/10.1016/j.chemphys.2008.10.036
  3. Garcia-Rates,M.; Neese,F.
     Effect of the Solute Cavity on the Solvation Energy and its Derivatives within the Framework of the Gaussian Charge Scheme
     J. Comput. Chem., 2020 41 922-939
     doi.org/10.1002/jcc.26139
  4. Helmich-Paris,B.; de Souza,B.; Neese,F.; Izsák,R.
     An improved chain of spheres for exchange algorithm
     J. Chem. Phys., 2021 155 104109
     doi.org/doi: 10.1063/5.0058766.
  5. Neese,F.
     The SHARK Integral Generation and Digestion System
     J. Comp. Chem., 2022  1-16
     doi.org/10.1002/jcc.26942
  6. Grimme,S.; Antony,J.; Ehrlich,S.; Krieg,H.
     A consistent and accurate ab initio parametrization of density functional dispersion correction (DFT-D) for the 94 elements H-Pu
     J. Chem. Phys., 2010 132 154104-XXXX
     doi.org/10.1063/1.3382344
  7. Grimme,S.; Ehrlich,S.; Goerigk,L.
     Effect of the damping function in dispersion corrected density functional theory
     J. Comput. Chem., 2011 32(7)1456-1465
     doi.org/10.1002/jcc.21759

List of suggested additional citations. These are papers that are important in the 'surrounding' of 
of this run, or papers that preceded the highly important papers. If you like your results we are grateful for a citation.

  1. Izsak,R.; Neese,F.
     An overlap fitted chain of spheres exchange method
     J. Chem. Phys., 2011 135 144105
     doi.org/10.1063/1.3646921
  2. Izsak,R.; Hansen,A.; Neese,F.
     The resolution of identity and chain of spheres approximations for the LPNO-CCSD singles Fock term
     Molec. Phys., 2012 110 2413-2417
     doi.org/10.1080/00268976.2012.687466
  3. Neese,F.
     The ORCA program system
     WIRES Comput. Molec. Sci., 2012 2(1)73-78
     doi.org/10.1002/wcms.81
  4. Izsak,R.; Neese,F.; Klopper,W.
     Robust fitting techniques in the chain of spheres approximation to the Fock exchange: The role of the complementary space
     J. Chem. Phys., 2013 139 
     doi.org/10.1063/1.4819264
  5. Neese,F.
     Software update: the ORCA program system, version 4.0
     WIRES Comput. Molec. Sci., 2018 8(1)1-6
     doi.org/10.1002/wcms.1327
  6. Neese,F.; Wennmohs,F.; Becker,U.; Riplinger,C.
     The ORCA quantum chemistry program package
     J. Chem. Phys., 2020 152 Art. No. L224108
     doi.org/10.1063/5.0004608

List of optional additional citations

  1. Neese,F.
     Approximate second-order SCF convergence for spin unrestricted wavefunctions
     Chem. Phys. Lett., 2000 325(1-3)93-98
     doi.org/10.1016/s0009-2614(00)00662-x

Timings for individual modules:

Sum of individual times          ...      331.115 sec (=   5.519 min)
Startup calculation              ...       10.796 sec (=   0.180 min)   3.3 %
SCF iterations                   ...      317.881 sec (=   5.298 min)  96.0 %
Property calculations            ...        2.439 sec (=   0.041 min)   0.7 %
                             ****ORCA TERMINATED NORMALLY****
TOTAL RUN TIME: 0 days 0 hours 5 minutes 34 seconds 824 msec
