 vasp.6.3.2 27Jun22 (build Oct 25 2024 11:36:28) complex                        
  
 executed on             LinuxIFC date 2025.09.10  03:55:54
 running on   90 total cores
 distrk:  each k-point on   90 cores,    1 groups
 distr:  one band on NCORE=  15 cores,    6 groups


--------------------------------------------------------------------------------------------------------


 INCAR:
   SYSTEM = 103_red
   ISTART = 1
   ICHARG = 2
   INIWAV = 1
   LHFCALC = .TRUE.
   HFSCREEN = 0.2
   NELM = 500
   ALGO = Damped
   ISPIN = 2
   EDIFF = 1E-05
   ISMEAR = 0
   SIGMA = 0.05
   PREC = accurate
   ENCUT = 500
   LREAL = auto  	
   LDIAG = .FALSE.
   LWAVE = .TRUE.
   LCHARG = .FALSE.
   LAECHG = .FALSE.
   LVHAR = .FALSE.
   LVTOT = .FALSE.
   EDIFFG = -0.02
   IBRION = 2
   NSW = 0
   ISIF = 2
   POTIM = 0.5
   IVDW = 12
   VDW_A1 = 0.383
   VDW_S8 = 2.310
   VDW_A2 = 5.685
   LPLANE = .TRUE.
   NCORE = 15
   LSCALU = .FALSE.
   NSIM = 4
   LSOL = .TRUE.
   ISOL = 2
   R_SOLV = 2.1900
   EPSILON_INF = 1.8069
   N_MOL = 0.0115
   P_MOL = 0.82
   EB_K = 35.6880
   NELECT = 51

 POTCAR:    PAW_PBE C 08Apr2002                   
 POTCAR:    PAW_PBE H 15Jun2001                   
 -----------------------------------------------------------------------------
|                                                                             |
|           W    W    AA    RRRRR   N    N  II  N    N   GGGG   !!!           |
|           W    W   A  A   R    R  NN   N  II  NN   N  G    G  !!!           |
|           W    W  A    A  R    R  N N  N  II  N N  N  G       !!!           |
|           W WW W  AAAAAA  RRRRR   N  N N  II  N  N N  G  GGG   !            |
|           WW  WW  A    A  R   R   N   NN  II  N   NN  G    G                |
|           W    W  A    A  R    R  N    N  II  N    N   GGGG   !!!           |
|                                                                             |
|     You use a magnetic or noncollinear calculation, but did not specify     |
|     the initial magnetic moment with the MAGMOM tag. Note that a            |
|     default of 1 will be used for all atoms. This ferromagnetic setup       |
|     may break the symmetry of the crystal, in particular it may rule        |
|     out finding an antiferromagnetic solution. Thence, we recommend         |
|     setting the initial magnetic moment manually or verifying carefully     |
|     that this magnetic setup is desired.                                    |
|                                                                             |
 -----------------------------------------------------------------------------

 POTCAR:    PAW_PBE C 08Apr2002                   
   SHA256 =  253f7b50bb8d59471dbedb8285d89021f4a42ed1a2c5d38a03a736e69125dd95 C/POTCAR              
   COPYR  = (c) Copyright 08Apr2002 Georg Kresse                                                    
   COPYR  = This file is part of the software VASP. Any use, copying, and all other rights are regul
   COPYR  = If you do not have a valid VASP license, you may not use, copy or distribute this file. 
   VRHFIN =C: s2p2                                                                                  
   LEXCH  = PE                                                                                      
   EATOM  =   147.1560 eV,   10.8157 Ry                                                             
                                                                                                    
   TITEL  = PAW_PBE C 08Apr2002                                                                     
   LULTRA =        F    use ultrasoft PP ?                                                          
   IUNSCR =        1    unscreen: 0-lin 1-nonlin 2-no                                               
   RPACOR =    1.200    partial core radius                                                         
   POMASS =   12.011; ZVAL   =    4.000    mass and valenz                                          
   RCORE  =    1.500    outmost cutoff radius                                                       
   RWIGS  =    1.630; RWIGS  =    0.863    wigner-seitz radius (au A)                               
   ENMAX  =  400.000; ENMIN  =  300.000 eV                                                          
   ICORE  =        2    local potential                                                             
   LCOR   =        T    correct aug charges                                                         
   LPAW   =        T    paw PP                                                                      
   EAUG   =  644.873                                                                                
   DEXC   =    0.000                                                                                
   RMAX   =    1.529    core radius for proj-oper                                                   
   RAUG   =    1.300    factor for augmentation sphere                                              
   RDEP   =    1.501    radius for radial grids                                                     
   RDEPT  =    1.300    core radius for aug-charge                                                  
                                                                                                    
   Atomic configuration                                                                             
    4 entries                                                                                       
     n  l   j            E        occ.                                                              
     1  0  0.50      -273.3789   2.0000                                                             
     2  0  0.50       -13.7508   2.0000                                                             
     2  1  0.50        -5.2854   2.0000                                                             
     3  2  1.50        -5.4423   0.0000                                                             
   Description                                                                                      
     l       E           TYP  RCUT    TYP  RCUT                                                     
     0    -13.7508458     23  1.200                                                                 
     0     -8.2022199     23  1.200                                                                 
     1     -5.2854383     23  1.500                                                                 
     1     34.0145650     23  1.500                                                                 
     2     -5.4423304      7  1.500                                                                 
  local pseudopotential read in
  partial core-charges read in
  partial kinetic energy density read in
  atomic valenz-charges read in
  non local Contribution for L=           0  read in
    real space projection operators read in
  non local Contribution for L=           0  read in
    real space projection operators read in
  non local Contribution for L=           1  read in
    real space projection operators read in
  non local Contribution for L=           1  read in
    real space projection operators read in
    PAW grid and wavefunctions read in
 
   number of l-projection  operators is LMAX  =           4
   number of lm-projection operators is LMMAX =           8
 
 POTCAR:    PAW_PBE H 15Jun2001                   
   SHA256 =  030f79b5d3ab3cf0e668861823c8fb652ff669f3e15e46930bd03bfd63a607b6 H/POTCAR              
   COPYR  = (c) Copyright 15Jun2001 Georg Kresse                                                    
   COPYR  = This file is part of the software VASP. Any use, copying, and all other rights are regul
   COPYR  = If you do not have a valid VASP license, you may not use, copy or distribute this file. 
   VRHFIN =H: ultrasoft test                                                                        
   LEXCH  = PE                                                                                      
   EATOM  =    12.4884 eV,    0.9179 Ry                                                             
                                                                                                    
   TITEL  = PAW_PBE H 15Jun2001                                                                     
   LULTRA =        F    use ultrasoft PP ?                                                          
   IUNSCR =        0    unscreen: 0-lin 1-nonlin 2-no                                               
   RPACOR =    0.000    partial core radius                                                         
   POMASS =    1.000; ZVAL   =    1.000    mass and valenz                                          
   RCORE  =    1.100    outmost cutoff radius                                                       
   RWIGS  =    0.700; RWIGS  =    0.370    wigner-seitz radius (au A)                               
   ENMAX  =  250.000; ENMIN  =  200.000 eV                                                          
   RCLOC  =    0.701    cutoff for local pot                                                        
   LCOR   =        T    correct aug charges                                                         
   LPAW   =        T    paw PP                                                                      
   EAUG   =  400.000                                                                                
   RMAX   =    1.123    core radius for proj-oper                                                   
   RAUG   =    1.200    factor for augmentation sphere                                              
   RDEP   =    1.112    radius for radial grids                                                     
   RDEPT  =    0.926    core radius for aug-charge                                                  
                                                                                                    
   Atomic configuration                                                                             
    2 entries                                                                                       
     n  l   j            E        occ.                                                              
     1  0  0.50        -6.4927   1.0000                                                             
     2  1  0.50        -3.4015   0.0000                                                             
   Description                                                                                      
     l       E           TYP  RCUT    TYP  RCUT                                                     
     0     -6.4927494     23  1.100                                                                 
     0      6.8029130     23  1.100                                                                 
     1     -4.0817478     23  1.100                                                                 
  local pseudopotential read in
  atomic valenz-charges read in
  non local Contribution for L=           0  read in
    real space projection operators read in
  non local Contribution for L=           0  read in
    real space projection operators read in
  non local Contribution for L=           1  read in
    real space projection operators read in
    PAW grid and wavefunctions read in
 
   number of l-projection  operators is LMAX  =           3
   number of lm-projection operators is LMMAX =           5
 
 Optimization of the real space projectors (new method)

 maximal supplied QI-value         = 25.13
 optimisation between [QCUT,QGAM] = [ 11.31, 22.87] = [ 35.82,146.48] Ry 
 Optimized for a Real-space Cutoff    1.03 Angstroem

   l    n(q)    QCUT    max X(q) W(low)/X(q) W(high)/X(q)  e(spline) 
   0      7    11.310   115.676    0.20E-03    0.90E-03    0.20E-06
   0      7    11.310    87.132    0.20E-03    0.89E-03    0.19E-06
   1      6    11.310     4.429    0.16E-03    0.28E-03    0.12E-06
   1      6    11.310     2.733    0.12E-03    0.21E-03    0.99E-07
 Optimization of the real space projectors (new method)

 maximal supplied QI-value         = 34.20
 optimisation between [QCUT,QGAM] = [ 11.29, 22.57] = [ 35.68,142.71] Ry 
 Optimized for a Real-space Cutoff    1.20 Angstroem

   l    n(q)    QCUT    max X(q) W(low)/X(q) W(high)/X(q)  e(spline) 
   0      8    11.287    19.460    0.22E-03    0.50E-03    0.19E-06
   0      8    11.287    12.209    0.21E-03    0.48E-03    0.18E-06
   1      8    11.287     4.655    0.21E-03    0.11E-04    0.26E-06
  PAW_PBE C 08Apr2002                   :
 energy of atom  1       EATOM= -147.1560
 kinetic energy error for atom=    0.0076 (will be added to EATOM!!)
  PAW_PBE H 15Jun2001                   :
 energy of atom  2       EATOM=  -12.4884
 kinetic energy error for atom=    0.0020 (will be added to EATOM!!)
 
 
 POSCAR: C H
  positions in direct lattice
  velocities in cartesian coordinates
 exchange correlation table for  LEXCH =        8
   RHO(1)=    0.500       N(1)  =     2000
   RHO(2)=  100.500       N(2)  =     4000
 
 POSCAR: C H
  positions in direct lattice
  velocities in cartesian coordinates
 
 POSCAR: C H
  positions in direct lattice
  velocities in cartesian coordinates
 


--------------------------------------------------------------------------------------------------------


 ion  position               nearest neighbor table
   1  0.495  0.474  0.500-  22 1.09   2 1.37   6 1.43
   2  0.461  0.470  0.500-  21 1.09   1 1.37   3 1.42
   3  0.439  0.499  0.500-   4 1.42   2 1.42  10 1.48
   4  0.453  0.531  0.500-  17 1.09   5 1.38   3 1.42
   5  0.487  0.535  0.500-  16 1.09   4 1.38   6 1.43
   6  0.509  0.507  0.500-   7 1.42   5 1.43   1 1.43
   7  0.544  0.513  0.500-  15 1.09   8 1.38   6 1.42
   8  0.570  0.490  0.500-  14 1.09   7 1.38   9 1.47
   9  0.605  0.498  0.500-  13 1.09  12 1.10  11 1.10   8 1.47
  10  0.402  0.494  0.500-  18 1.09  20 1.10  19 1.10   3 1.48
  11  0.618  0.487  0.522-   9 1.10
  12  0.618  0.487  0.478-   9 1.10
  13  0.610  0.525  0.500-   9 1.09
  14  0.563  0.463  0.500-   8 1.09
  15  0.552  0.540  0.500-   7 1.09
  16  0.498  0.560  0.500-   5 1.09
  17  0.437  0.553  0.500-   4 1.09
  18  0.389  0.517  0.505-  10 1.09
  19  0.394  0.484  0.475-  10 1.10
  20  0.395  0.474  0.518-  10 1.10
  21  0.450  0.445  0.500-   2 1.09
  22  0.511  0.452  0.500-   1 1.09
 
  LATTYP: Found a simple cubic cell.
 ALAT       =    40.0000000000
  
  Lattice vectors:
  
 A1 = (  40.0000000000,   0.0000000000,   0.0000000000)
 A2 = (   0.0000000000,  40.0000000000,   0.0000000000)
 A3 = (   0.0000000000,   0.0000000000,  40.0000000000)


Analysis of symmetry for initial positions (statically):
=====================================================================
 Subroutine PRICEL returns:
 Original cell was already a primitive cell.
 

 Routine SETGRP: Setting up the symmetry group for a 
 simple cubic supercell.


 Subroutine GETGRP returns: Found  1 space group operations
 (whereof  1 operations were pure point group operations)
 out of a pool of 48 trial point group operations.


The static configuration has the point symmetry C_1 .


Analysis of symmetry for dynamics (positions and initial velocities):
=====================================================================
 Subroutine PRICEL returns:
 Original cell was already a primitive cell.
 

 Routine SETGRP: Setting up the symmetry group for a 
 simple cubic supercell.


 Subroutine GETGRP returns: Found  1 space group operations
 (whereof  1 operations were pure point group operations)
 out of a pool of 48 trial point group operations.


The dynamic configuration has the point symmetry C_1 .


Analysis of constrained symmetry for selective dynamics:
=====================================================================
 Subroutine PRICEL returns:
 Original cell was already a primitive cell.
 

 Routine SETGRP: Setting up the symmetry group for a 
 simple cubic supercell.


 Subroutine GETGRP returns: Found  1 space group operations
 (whereof  1 operations were pure point group operations)
 out of a pool of 48 trial point group operations.


The constrained configuration has the point symmetry C_1 .


Analysis of structural, dynamic, and magnetic symmetry:
=====================================================================
 Subroutine PRICEL returns:
 Original cell was already a primitive cell.
 

 Routine SETGRP: Setting up the symmetry group for a 
 simple cubic supercell.


 Subroutine GETGRP returns: Found  1 space group operations
 (whereof  1 operations were pure point group operations)
 out of a pool of 48 trial point group operations.


The overall configuration has the point symmetry C_1 .


 Subroutine INISYM returns: Found  1 space group operations
 (whereof  1 operations are pure point group operations),
 and found     1 'primitive' translations


----------------------------------------------------------------------------------------

                                     Primitive cell                                     

  volume of cell :   64000.0000

  direct lattice vectors                    reciprocal lattice vectors
    40.000000000  0.000000000  0.000000000     0.025000000  0.000000000  0.000000000
     0.000000000 40.000000000  0.000000000     0.000000000  0.025000000  0.000000000
     0.000000000  0.000000000 40.000000000     0.000000000  0.000000000  0.025000000

  length of vectors
    40.000000000 40.000000000 40.000000000     0.025000000  0.025000000  0.025000000

  position of ions in fractional coordinates (direct lattice)
     0.494976689  0.474384483  0.500108921
     0.460868091  0.470391987  0.500180239
     0.439059935  0.498515572  0.500264321
     0.453160992  0.531055526  0.500212722
     0.487284871  0.535360129  0.500101438
     0.509333905  0.507202099  0.500069669
     0.544334769  0.513492827  0.500022318
     0.569541714  0.489830428  0.500018629
     0.605309927  0.498238614  0.499958658
     0.402255009  0.493662300  0.500019305
     0.617715892  0.486679989  0.521754275
     0.617654175  0.486601351  0.478170759
     0.610101529  0.525190934  0.499902620
     0.563107969  0.463263177  0.500076740
     0.551868145  0.539780800  0.499972130
     0.498037600  0.560411076  0.500087502
     0.436628505  0.552715855  0.500306180
     0.388626160  0.516860760  0.505012853
     0.394331289  0.484254013  0.475302937
     0.394667435  0.474387456  0.518097340
     0.450112530  0.445338731  0.500256487
     0.511022869  0.452382895  0.500104957

  ion indices of the primitive-cell ions
   primitive index   ion index
                 1           1
                 2           2
                 3           3
                 4           4
                 5           5
                 6           6
                 7           7
                 8           8
                 9           9
                10          10
                11          11
                12          12
                13          13
                14          14
                15          15
                16          16
                17          17
                18          18
                19          19
                20          20
                21          21
                22          22

----------------------------------------------------------------------------------------

 
 
 KPOINTS: K-Point Grid                            

Automatic generation of k-mesh.
 Grid dimensions read from file:
 generate k-points for:    1    1    1

 Generating k-lattice:

  Cartesian coordinates                     Fractional coordinates (reciprocal lattice)
     0.025000000  0.000000000  0.000000000     1.000000000  0.000000000  0.000000000
     0.000000000  0.025000000  0.000000000     0.000000000  1.000000000  0.000000000
     0.000000000  0.000000000  0.025000000     0.000000000  0.000000000  1.000000000

  Length of vectors
     0.025000000  0.025000000  0.025000000

  Shift w.r.t. Gamma in fractional coordinates (k-lattice)
     0.000000000  0.000000000  0.000000000

 
 Subroutine IBZKPT returns following result:
 ===========================================
 
 Found      1 irreducible k-points:
 
 Following reciprocal coordinates:
            Coordinates               Weight
  0.000000  0.000000  0.000000      1.000000
 
 Following cartesian coordinates:
            Coordinates               Weight
  0.000000  0.000000  0.000000      1.000000
 
 
 Subroutine IBZKPT_HF returns following result:
 ==============================================
 
 Found      1 k-points in 1st BZ
 the following      1 k-points will be used (e.g. in the exchange kernel)
 Following reciprocal coordinates:   # in IRBZ
  0.000000  0.000000  0.000000    1.00000000   1 t-inv F


--------------------------------------------------------------------------------------------------------




 Dimension of arrays:
   k-points           NKPTS =      1   k-points in BZ     NKDIM =      1   number of bands    NBANDS=     48
   number of dos      NEDOS =    301   number of ions     NIONS =     22
   non local maximal  LDIM  =      4   non local SUM 2l+1 LMDIM =      8
   total plane-waves  NPLWV = ******
   max r-space proj   IRMAX =   2915   max aug-charges    IRDMAX=   4885
   dimension x,y,z NGX =   294 NGY =  294 NGZ =  294
   dimension x,y,z NGXF=   588 NGYF=  588 NGZF=  588
   support grid    NGXF=   588 NGYF=  588 NGZF=  588
   ions per type =              10  12
   NGX,Y,Z   is equivalent  to a cutoff of  12.22, 12.22, 12.22 a.u.
   NGXF,Y,Z  is equivalent  to a cutoff of  24.44, 24.44, 24.44 a.u.

 SYSTEM =  103_red                                 
 POSCAR =  C H                                     

 Startparameter for this run:
   NWRITE =      2    write-flag & timer
   PREC   = accura    normal or accurate (medium, high low for compatibility)
   ISTART =      1    job   : 0-new  1-cont  2-samecut
   ICHARG =      2    charge: 1-file 2-atom 10-const
   ISPIN  =      2    spin polarized calculation?
   LNONCOLLINEAR =      F non collinear calculations
   LSORBIT =      F    spin-orbit coupling
   INIWAV =      1    electr: 0-lowe 1-rand  2-diag
   LASPH  =      F    aspherical Exc in radial PAW
 Electronic Relaxation 1
   ENCUT  =  500.0 eV  36.75 Ry    6.06 a.u.  72.93 72.93 72.93*2*pi/ulx,y,z
   ENINI  =  500.0     initial cutoff
   ENAUG  =  644.9 eV  augmentation charge cutoff
   NELM   =    500;   NELMIN=  2; NELMDL=  0     # of ELM steps 
   EDIFF  = 0.1E-04   stopping-criterion for ELM
   LREAL  =      T    real-space projection
   NLSPLINE    = F    spline interpolate recip. space projectors
   LCOMPAT=      F    compatible to vasp.4.4
   GGA_COMPAT  = T    GGA compatible to vasp.4.4-vasp.4.6
   LMAXPAW     = -100 max onsite density
   LMAXMIX     =    2 max onsite mixed and CHGCAR
   VOSKOWN=      0    Vosko Wilk Nusair interpolation
   ROPT   =   -0.00025  -0.00025
 Ionic relaxation
   EDIFFG = -.2E-01   stopping-criterion for IOM
   NSW    =      0    number of steps for IOM
   NBLOCK =      1;   KBLOCK =      1    inner block; outer block 
   IBRION =     -1    ionic relax: 0-MD 1-quasi-New 2-CG
   NFREE  =      1    steps in history (QN), initial steepest desc. (CG)
   ISIF   =      2    stress and relaxation
   IWAVPR =     10    prediction:  0-non 1-charg 2-wave 3-comb
   ISYM   =      3    0-nonsym 1-usesym 2-fastsym
   LCORR  =      T    Harris-Foulkes like correction to forces

   POTIM  = 0.5000    time-step for ionic-motion
   TEIN   =    0.0    initial temperature
   TEBEG  =    0.0;   TEEND  =   0.0 temperature during run
   SMASS  =  -3.00    Nose mass-parameter (am)
   estimated Nose-frequenzy (Omega)   =  0.10E-29 period in steps = 0.13E+47 mass=  -0.366E-25a.u.
   SCALEE = 1.0000    scale energy and forces
   NPACO  =    256;   APACO  = 10.0  distance and # of slots for P.C.
   PSTRESS=    0.0 pullay stress

  Mass of Ions in am
   POMASS =  12.01  1.00
  Ionic Valenz
   ZVAL   =   4.00  1.00
  Atomic Wigner-Seitz radii
   RWIGS  =  -1.00 -1.00
  virtual crystal weights 
   VCA    =   1.00  1.00
   NELECT =      51.0000    total number of electrons
   NUPDOWN=      -1.0000    fix difference up-down

 DOS related values:
   EMIN   =  10.00;   EMAX   =-10.00  energy-range for DOS
   EFERMI =   0.00
   ISMEAR =     0;   SIGMA  =   0.05  broadening in eV -4-tet -1-fermi 0-gaus

 Electronic relaxation 2 (details)
   IALGO  =     53    algorithm
   LDIAG  =      F    sub-space diagonalisation (order eigenvalues)
   LSUBROT=      F    optimize rotation matrix (better conditioning)
   TURBO    =      0    0=normal 1=particle mesh
   IRESTART =      0    0=no restart 2=restart with 2 vectors
   NREBOOT  =      0    no. of reboots
   NMIN     =      0    reboot dimension
   EREF     =   0.00    reference energy to select bands
   IMIX   =      4    mixing-type and parameters
     AMIX     =   0.40;   BMIX     =  1.00
     AMIX_MAG =   1.60;   BMIX_MAG =  1.00
     AMIN     =   0.10
     WC   =   100.;   INIMIX=   1;  MIXPRE=   1;  MAXMIX= -45

 Intra band minimization:
   WEIMIN = 0.0000     energy-eigenvalue tresh-hold
   EBREAK =  0.52E-07  absolut break condition
   DEPER  =   0.30     relativ break condition  

   TIME   =   0.40     timestep for ELM

  volume/ion in A,a.u.               =    2909.09     19631.51
  Fermi-wavevector in a.u.,A,eV,Ry     =   0.151777  0.286816  0.313426  0.023036
  Thomas-Fermi vector in A             =   0.830723
 
 Write flags
   LWAVE        =      T    write WAVECAR
   LDOWNSAMPLE  =      F    k-point downsampling of WAVECAR
   LCHARG       =      F    write CHGCAR
   LVTOT        =      F    write LOCPOT, total local potential
   LVHAR        =      F    write LOCPOT, Hartree potential only
   LELF         =      F    write electronic localiz. function (ELF)
   LORBIT       =      0    0 simple, 1 ext, 2 COOP (PROOUT), +10 PAW based schemes


 Dipole corrections
   LMONO  =      F    monopole corrections only (constant potential shift)
   LDIPOL =      F    correct potential (dipole corrections)
   IDIPOL =      0    1-x, 2-y, 3-z, 4-all directions 
   EPSILON=  1.0000000 bulk dielectric constant

 Exchange correlation treatment:
   GGA     =    --    GGA type
   LEXCH   =     8    internal setting for exchange type
   LIBXC   =     F    Libxc                    
   VOSKOWN =     0    Vosko Wilk Nusair interpolation
   EXXOEP  =     0    0=HF, 1=EXX-LHF (local Hartree Fock) 2=EXX OEP
   LHFCALC =     T    Hartree Fock is set to
   LSYMGRAD=     F    symmetrize gradient (conserves proper symmetry)
   PRECFOCK=normal    Normal, Fast or Accurate (Low or Medium for compatibility)
   LRHFCALC=     F    long range Hartree Fock
   LRSCOR  =     F    long range correlation only (use DFT for short range part)
   LTHOMAS =     F    Thomas Fermi screening in HF
   LMODELHF=     F    short range full HF, long range fraction AEXX
   FOCKCORR=     1    mode to apply convergence corrections
   LFOCKACE=     T    use Adeptively-Compressed-Exchange operator
   ENCUT4O =  -1.0   cutoff for four orbital integrals eV
   LMAXFOCK=     4    L truncation for augmentation on plane wave grid
   LMAXFOCKAE=  -1    L truncation for all-electron charge restoration on plane wave grid
   NMAXFOCKAE=   1    number of basis functions for all-electron charge restoration
   LFOCKAEDFT=     F  apply the AE augmentation even for DFT
   NKREDX  =     1    reduce k-point grid by
   NKREDY  =     1    reduce k-point grid by
   NKREDZ  =     1    reduce k-point grid by
   SHIFTRED=     F    shift reduced grid of Gamma
   HFKIDENT=     F    idential grid for each k-point
   ODDONLY =     F    use only odd q-grid points
   EVENONLY=     F    use only even q-grid points
   HFALPHA =   -1.0000 decay constant for conv. correction
   MCALPHA =    0.0000 extent of test-charge in conv. correction in multipole expansion
   AEXX    =    0.2500 exact exchange contribution
   HFSCREEN=    0.2000 screening length (either q_TF or 0.3 A-1)
   HFSCREENC=   0.2000 screening length for correlation (either q_TF or 0.3 A-1)
   HFRCUT  =    0.0000 spherical cutoff for potential kernel
   ALDAX   =    0.7500 LDA exchange part
   AGGAX   =    0.7500 GGA exchange part
   ALDAC   =    1.0000 LDA correlation
   AGGAC   =    1.0000 GGA correlation
   ENCUTFOCK=  -1.0 apply spherical cutoff to Coloumb kernel
   NBANDSGWLOW=     1    first orbital included in HF term
   NBLOCK_FOCK=    64    blocking factor in FOCK_ACC

 Linear response parameters
   LEPSILON=     F    determine dielectric tensor
   LRPA    =     F    only Hartree local field effects (RPA)
   LNABLA  =     F    use nabla operator in PAW spheres
   LVEL    =     F    velocity operator in full k-point grid
   CSHIFT  =0.1000    complex shift for real part using Kramers Kronig
   OMEGAMAX=  -1.0    maximum frequency
   DEG_THRESHOLD= 0.2000000E-02 threshold for treating states as degnerate
   RTIME   =   -0.100 relaxation time in fs
  (WPLASMAI=    0.000 imaginary part of plasma frequency in eV, 0.658/RTIME)
   DFIELD  = 0.0000000 0.0000000 0.0000000 field for delta impulse in time
 
  Optional k-point grid parameters
   LKPOINTS_OPT  =     F    use optional k-point grid
   KPOINTS_OPT_MODE=     1    mode for optional k-point grid
 
 Orbital magnetization related:
   ORBITALMAG=     F  switch on orbital magnetization
   LCHIMAG   =     F  perturbation theory with respect to B field
   DQ        =  0.001000  dq finite difference perturbation B field
   LLRAUG    =     F  two centre corrections for induced B field

 Solvation model:
   LSOL             =     T         switch on solvation model
   LSOL_SCF         =     T         include solvation in SCF
   ISOL             =     2         solvation model type
   EFERMI_ref       =  0.000000         reference Fermi level
   capacitance_init =  1.000000         initial capacitance
 Nonlinear solvation model:
   LNLDIEL     =     T         switch on non-linear dielectric mode
   LNLION      =     T         switch on non-linear ionic mode
   LNLTEST     =     F         test non-linear model in linear regime
   I_NLOC_SOL  =     1         type of nonlocal dielectric response
   NC_K        =  0.015000     cutoff charge density for cavities (1/Angstrom**3)
   TAU         =  0.000879     cavity formation energy (eV/Angstrom**2)
   SIGMA_K     =  0.600000     cavity width
   A_K         =  0.125000     smoothing length (Angstrom)
   R_SOLV      =  2.190000     solvent radius (Angstrom)
   R_CAV       =  0.000000     cavity radius (Angstrom)
   R_DIEL      =  1.000000     dielectric radius (Angstrom)
   R_ION       =  0.000000     ionic radius (Angstrom)
   R_B         =  0.000000     bound charge radius (Angstrom)
   SOLTEMP     =298.000000     solvent temperature (K)
   EB_K        = 35.688000     relative permittivity of the bulk solvent
   EPSILON_INF =  1.806900     optical relative permittivity of bulk solvent
   N_MOL       =  0.011500     molar density of solvent (1/Angstrom**3)
   P_MOL       =  0.820000     solvent dipole moment (e*Angstrom)
   C_MOLAR     =  0.000000     electrolyte concentration (mol/L)
   LAMBDA_D_K  =  0.000000     Debye length (Angstrom)
   ZION        =  1.000000     charge of ions in electrolyte (e)
   D_ION       = -1.000000     minimum ion packing diameter (Angstrom)



--------------------------------------------------------------------------------------------------------


 Static calculation
 charge density and potential will be updated during run
 spin polarized calculation
 Conjugate gradient for all bands (Kresse, et al. variant)
 perform Loewdin sub-space diagonalisation
    ordering is kept fixed
    before iterative eigenvector-optimisation
 modified Broyden-mixing scheme, WC =      100.0
 initial mixing is a Kerker type mixing with AMIX =  0.4000 and BMIX =      1.0000
 Hartree-type preconditioning will be used
 using additional bands           22
 real space projection scheme for non local part
 use partial core corrections
 no Harris-corrections to forces 
 use gradient corrections 
 use of overlap-Matrix (Vanderbilt PP)
 Gauss-broadening in eV      SIGMA  =   0.05


--------------------------------------------------------------------------------------------------------


  energy-cutoff  :      500.00
  volume of cell :    64000.00
      direct lattice vectors                 reciprocal lattice vectors
    40.000000000  0.000000000  0.000000000     0.025000000  0.000000000  0.000000000
     0.000000000 40.000000000  0.000000000     0.000000000  0.025000000  0.000000000
     0.000000000  0.000000000 40.000000000     0.000000000  0.000000000  0.025000000

  length of vectors
    40.000000000 40.000000000 40.000000000     0.025000000  0.025000000  0.025000000


 
 old parameters found on file WAVECAR:
  energy-cutoff  :      500.00
  volume of cell :    64000.00
      direct lattice vectors                 reciprocal lattice vectors
    40.000000000  0.000000000  0.000000000     0.025000000  0.000000000  0.000000000
     0.000000000 40.000000000  0.000000000     0.000000000  0.025000000  0.000000000
     0.000000000  0.000000000 40.000000000     0.000000000  0.000000000  0.025000000

  length of vectors

 
 k-points in units of 2pi/SCALE and weight: K-Point Grid                            
   0.00000000  0.00000000  0.00000000       1.000
 
 k-points in reciprocal lattice and weights: K-Point Grid                            
   0.00000000  0.00000000  0.00000000       1.000
 
 position of ions in fractional coordinates (direct lattice) 
   0.49497669  0.47438448  0.50010892
   0.46086809  0.47039199  0.50018024
   0.43905994  0.49851557  0.50026432
   0.45316099  0.53105553  0.50021272
   0.48728487  0.53536013  0.50010144
   0.50933390  0.50720210  0.50006967
   0.54433477  0.51349283  0.50002232
   0.56954171  0.48983043  0.50001863
   0.60530993  0.49823861  0.49995866
   0.40225501  0.49366230  0.50001930
   0.61771589  0.48667999  0.52175427
   0.61765417  0.48660135  0.47817076
   0.61010153  0.52519093  0.49990262
   0.56310797  0.46326318  0.50007674
   0.55186815  0.53978080  0.49997213
   0.49803760  0.56041108  0.50008750
   0.43662850  0.55271586  0.50030618
   0.38862616  0.51686076  0.50501285
   0.39433129  0.48425401  0.47530294
   0.39466744  0.47438746  0.51809734
   0.45011253  0.44533873  0.50025649
   0.51102287  0.45238289  0.50010496
 
 position of ions in cartesian coordinates  (Angst):
  19.79906755 18.97537932 20.00435682
  18.43472362 18.81567946 20.00720957
  17.56239741 19.94062287 20.01057283
  18.12643969 21.24222105 20.00850890
  19.49139483 21.41440514 20.00405753
  20.37335620 20.28808395 20.00278677
  21.77339077 20.53971306 20.00089273
  22.78166858 19.59321714 20.00074517
  24.21239709 19.92954454 19.99834634
  16.09020036 19.74649198 20.00077218
  24.70863566 19.46719958 20.87017098
  24.70616699 19.46405405 19.12683034
  24.40406117 21.00763737 19.99610482
  22.52431878 18.53052708 20.00306958
  22.07472582 21.59123201 19.99888520
  19.92150399 22.41644302 20.00350008
  17.46514019 22.10863421 20.01224721
  15.54504639 20.67443038 20.20051412
  15.77325155 19.37016051 19.01211749
  15.78669741 18.97549823 20.72389359
  18.00450119 17.81354924 20.01025948
  20.44091476 18.09531579 20.00419827
 


--------------------------------------------------------------------------------------------------------


 k-point   1 :   0.0000 0.0000 0.0000  plane waves: 1624525

 maximum and minimum number of plane-waves per node :    108307   108296

 maximum number of plane-waves:   1624525
 maximum index in each direction: 
   IXMAX=   72   IYMAX=   72   IZMAX=   72
   IXMIN=  -72   IYMIN=  -72   IZMIN=  -72


 real space projection operators:
  total allocation   :       2419.10 KBytes
  max/ min on nodes  :        196.38        128.02


 parallel 3D FFT for wavefunctions:
    minimum data exchange during FFTs selected (reduces bandwidth)
 parallel 3D FFT for charge:
    minimum data exchange during FFTs selected (reduces bandwidth)


 FFT grid for exact exchange (Hartree Fock) 
  NGX =224; NGY =224; NGZ =224

 
 Radii for the augmentation spheres in the non-local exchange
 for species   1 augmentation radius   0.874 (default was   0.699)
       energy cutoff for augmentation   2000.0
 for species   2 augmentation radius   0.650 (default was   0.520)
       energy cutoff for augmentation   2000.0

 real space projection operators:
  total allocation   :        514.83 KBytes
  max/ min on nodes  :         36.98         32.55

 Maximum index for augmentation-charges in exchange           76
  SETUP_FOCK is finished

 total amount of memory used by VASP MPI-rank0   622921. kBytes
=======================================================================

   base      :      30000. kBytes
   nonlr-proj:       1535. kBytes
   fftplans  :     175546. kBytes
   grid      :     332629. kBytes
   one-center:         12. kBytes
   HF        :          9. kBytes
   wavefun   :      83190. kBytes
 
     INWAV:  cpu time     13.4146: real time     13.4433
 Broyden mixing: mesh for mixing (old mesh)
   NGX =145   NGY =145   NGZ =145
  (NGX  =588   NGY  =588   NGZ  =588)
  gives a total of ****** points

 initial charge density was supplied:
 charge density of overlapping atoms calculated
 number of electron      52.0000000 magnetization      22.0000000
 charge density for first step will be calculated from the start-wavefunctions


--------------------------------------------------------------------------------------------------------


 Maximum index for non-local projection operator          241
 Maximum index for augmentation-charges          328 (set IRDMAX)


--------------------------------------------------------------------------------------------------------


 initial charge from wavefunction
 First call to EWALD:  gamma=   0.044
 Maximum number of real-space cells 3x 3x 3
 Maximum number of reciprocal cells 3x 3x 3

    FEWALD:  cpu time      0.0035: real time      0.0035


--------------------------------------- Iteration      1(   1)  ---------------------------------------


    POTLOK:  cpu time     18.2253: real time     18.2259
    SETDIJ:  cpu time      0.0704: real time      0.0704
    TRIAL :  cpu time    193.1011: real time    193.1067
    CORREC:  cpu time      0.1593: real time      0.1593
    CHARGE:  cpu time      2.9735: real time      2.9736
    --------------------------------------------
      LOOP:  cpu time    214.5809: real time    214.5874

 eigenvalue-minimisations  :     0
 total energy-change (2. order) :-0.1474554E+03  (-0.6204519E-01)
 number of electron      51.0000001 magnetization       1.0000001
 augmentation part        1.1639685 magnetization       0.0514736

 Free energy of the ion-electron system (eV)
  ---------------------------------------------------
  alpha Z        PSCENC =         0.19061315
  Ewald energy   TEWEN  =      5171.48538541
  -Hartree energ DENC   =     -6276.62912752
  -exchange      EXHF   =       111.23121178
  -V(xc)+E(xc)   XCENC  =       128.77486485
  PAW double counting   =      4576.20641112    -4580.91586257
  entropy T*S    EENTRO =        -0.00000000
  eigenvalues    EBANDS =      -875.60100831
  atomic energy  EATOM  =      1597.80208563
  ---------------------------------------------------
  free energy    TOTEN  =      -147.45542645 eV

  energy without entropy =     -147.45542645  energy(sigma->0) =     -147.45542645
  exchange ACFDT corr.  =         0.00000000  see jH, gK, PRB 81, 115126


--------------------------------------------------------------------------------------------------------




--------------------------------------- Iteration      1(   2)  ---------------------------------------


    --------------------------------------------
      INIT:  cpu time      0.3970: real time      0.3970
  FINALIZE:  cpu time    199.3015: real time    199.3158
    --------------------------------------------
    POTLOK:  cpu time    219.0123: real time    219.0271
    SETDIJ:  cpu time      0.0677: real time      0.0677
    TRIAL :  cpu time    195.4983: real time    195.5028
    CORREC:  cpu time      0.0042: real time      0.0042
    CHARGE:  cpu time      2.9725: real time      2.9726
    --------------------------------------------
      LOOP:  cpu time    417.6265: real time    417.6529

 eigenvalue-minimisations  :     0
 total energy-change (2. order) :-0.7959877E+00  (-0.1035498E-01)
 number of electron      51.0000001 magnetization       1.0000001
 augmentation part        1.1646239 magnetization       0.0515058

 Free energy of the ion-electron system (eV)
  ---------------------------------------------------
  alpha Z        PSCENC =         0.19061315
  Ewald energy   TEWEN  =      5171.48538541
  -Hartree energ DENC   =     -6275.97938177
  -exchange      EXHF   =       111.19051713
  -V(xc)+E(xc)   XCENC  =       128.74235940
  PAW double counting   =      4569.67700105    -4574.38422091
  entropy T*S    EENTRO =        -0.00000000
  eigenvalues    EBANDS =      -770.69051771
  atomic energy  EATOM  =      1597.80208563
  ---------------------------------------------------
  free energy    TOTEN  =      -148.25141410 eV

  energy without entropy =     -148.25141410  energy(sigma->0) =     -148.25141410
  exchange ACFDT corr.  =        -0.00000000  see jH, gK, PRB 81, 115126


--------------------------------------------------------------------------------------------------------




--------------------------------------- Iteration      1(   3)  ---------------------------------------


    --------------------------------------------
      INIT:  cpu time      0.7744: real time      0.7745
  FINALIZE:  cpu time     72.4224: real time     72.4250
    --------------------------------------------
    POTLOK:  cpu time     94.0689: real time     94.0723
    SETDIJ:  cpu time      0.0688: real time      0.0688
    TRIAL :  cpu time    194.4491: real time    194.4714
    CORREC:  cpu time      0.0837: real time      0.0837
    CHARGE:  cpu time      2.5905: real time      2.5906
    --------------------------------------------
      LOOP:  cpu time    291.2925: real time    291.3227

 eigenvalue-minimisations  :     0
 total energy-change (2. order) :-0.5663521E-02  (-0.5986521E-02)
 number of electron      51.0000001 magnetization       1.0000001
 augmentation part        1.1652884 magnetization       0.0515078

 Free energy of the ion-electron system (eV)
  ---------------------------------------------------
  alpha Z        PSCENC =         0.19061315
  Ewald energy   TEWEN  =      5171.48538541
  -Hartree energ DENC   =     -6276.93426120
  -exchange      EXHF   =       111.21973570
  -V(xc)+E(xc)   XCENC  =       128.77243493
  PAW double counting   =      4569.19903220    -4573.90875491
  entropy T*S    EENTRO =        -0.00000000
  eigenvalues    EBANDS =      -769.75066993
  atomic energy  EATOM  =      1597.80208563
  ---------------------------------------------------
  free energy    TOTEN  =      -148.25707763 eV

  energy without entropy =     -148.25707763  energy(sigma->0) =     -148.25707763
  exchange ACFDT corr.  =        -0.00000000  see jH, gK, PRB 81, 115126


--------------------------------------------------------------------------------------------------------




--------------------------------------- Iteration      1(   4)  ---------------------------------------


    --------------------------------------------
      INIT:  cpu time      0.3952: real time      0.3952
  FINALIZE:  cpu time     81.3571: real time     81.3591
    --------------------------------------------
    POTLOK:  cpu time    101.8536: real time    101.8560
    SETDIJ:  cpu time      0.0681: real time      0.0681
    TRIAL :  cpu time    193.7231: real time    193.7394
    CORREC:  cpu time      0.3789: real time      0.3789
    CHARGE:  cpu time      3.9188: real time      3.9189
    --------------------------------------------
      LOOP:  cpu time    299.9778: real time    300.0023

 eigenvalue-minimisations  :     0
 total energy-change (2. order) :-0.3355734E-02  (-0.2041525E-02)
 number of electron      51.0000001 magnetization       1.0000001
 augmentation part        1.1654129 magnetization       0.0514936

 Free energy of the ion-electron system (eV)
  ---------------------------------------------------
  alpha Z        PSCENC =         0.19061315
  Ewald energy   TEWEN  =      5171.48538541
  -Hartree energ DENC   =     -6277.39886499
  -exchange      EXHF   =       111.24135653
  -V(xc)+E(xc)   XCENC  =       128.79275840
  PAW double counting   =      4571.03434899    -4575.74565986
  entropy T*S    EENTRO =        -0.00000000
  eigenvalues    EBANDS =      -769.19604045
  atomic energy  EATOM  =      1597.80208563
  ---------------------------------------------------
  free energy    TOTEN  =      -148.26043336 eV

  energy without entropy =     -148.26043336  energy(sigma->0) =     -148.26043336
  exchange ACFDT corr.  =         0.00000000  see jH, gK, PRB 81, 115126


--------------------------------------------------------------------------------------------------------




--------------------------------------- Iteration      1(   5)  ---------------------------------------


    --------------------------------------------
      INIT:  cpu time      0.3926: real time      0.3926
  FINALIZE:  cpu time     64.2753: real time     64.2777
    --------------------------------------------
    POTLOK:  cpu time     83.7064: real time     83.7151
    SETDIJ:  cpu time      0.0725: real time      0.0725
    TRIAL :  cpu time    197.2778: real time    197.2855
    CORREC:  cpu time      0.3248: real time      0.3248
    CHARGE:  cpu time      3.3483: real time      3.3484
    --------------------------------------------
      LOOP:  cpu time    284.7668: real time    284.7882

 eigenvalue-minimisations  :     0
 total energy-change (2. order) :-0.9760077E-03  (-0.5942500E-03)
 number of electron      51.0000001 magnetization       1.0000001
 augmentation part        1.1652744 magnetization       0.0514824

 Free energy of the ion-electron system (eV)
  ---------------------------------------------------
  alpha Z        PSCENC =         0.19061315
  Ewald energy   TEWEN  =      5171.48538541
  -Hartree energ DENC   =     -6277.04563844
  -exchange      EXHF   =       111.23799765
  -V(xc)+E(xc)   XCENC  =       128.78832345
  PAW double counting   =      4572.28401653    -4576.99468130
  entropy T*S    EENTRO =        -0.00000000
  eigenvalues    EBANDS =      -769.46848880
  atomic energy  EATOM  =      1597.80208563
  ---------------------------------------------------
  free energy    TOTEN  =      -148.26140937 eV

  energy without entropy =     -148.26140937  energy(sigma->0) =     -148.26140937
  exchange ACFDT corr.  =         0.00000000  see jH, gK, PRB 81, 115126


--------------------------------------------------------------------------------------------------------




--------------------------------------- Iteration      1(   6)  ---------------------------------------


    --------------------------------------------
      INIT:  cpu time      0.5863: real time      0.5863
  FINALIZE:  cpu time     75.5648: real time     75.5703
    --------------------------------------------
    POTLOK:  cpu time    100.9631: real time    100.9693
    SETDIJ:  cpu time      0.0699: real time      0.0699
    TRIAL :  cpu time    194.5939: real time    194.5989
    CORREC:  cpu time      0.0071: real time      0.0071
    CHARGE:  cpu time      2.5884: real time      2.5885
    --------------------------------------------
      LOOP:  cpu time    298.2534: real time    298.2704

 eigenvalue-minimisations  :     0
 total energy-change (2. order) :-0.2676061E-03  (-0.2511321E-03)
 number of electron      51.0000001 magnetization       1.0000001
 augmentation part        1.1652239 magnetization       0.0514824

 Free energy of the ion-electron system (eV)
  ---------------------------------------------------
  alpha Z        PSCENC =         0.19061315
  Ewald energy   TEWEN  =      5171.48538541
  -Hartree energ DENC   =     -6276.75304955
  -exchange      EXHF   =       111.23315048
  -V(xc)+E(xc)   XCENC  =       128.78232720
  PAW double counting   =      4572.79275761    -4577.50258197
  entropy T*S    EENTRO =        -0.00000000
  eigenvalues    EBANDS =      -769.74010427
  atomic energy  EATOM  =      1597.80208563
  ---------------------------------------------------
  free energy    TOTEN  =      -148.26167697 eV

  energy without entropy =     -148.26167697  energy(sigma->0) =     -148.26167697
  exchange ACFDT corr.  =        -0.00000000  see jH, gK, PRB 81, 115126


--------------------------------------------------------------------------------------------------------




--------------------------------------- Iteration      1(   7)  ---------------------------------------


    --------------------------------------------
      INIT:  cpu time      1.3610: real time      1.3610
  FINALIZE:  cpu time     73.9581: real time     73.9665
    --------------------------------------------
    POTLOK:  cpu time    102.2343: real time    102.2433
    SETDIJ:  cpu time      0.0729: real time      0.0729
    TRIAL :  cpu time    193.7059: real time    193.7143
    CORREC:  cpu time      0.0028: real time      0.0028
    CHARGE:  cpu time      3.3827: real time      3.3828
    --------------------------------------------
      LOOP:  cpu time    299.4307: real time    299.4531

 eigenvalue-minimisations  :     0
 total energy-change (2. order) :-0.1377817E-03  (-0.1168780E-03)
 number of electron      51.0000001 magnetization       1.0000001
 augmentation part        1.1652292 magnetization       0.0514849

 Free energy of the ion-electron system (eV)
  ---------------------------------------------------
  alpha Z        PSCENC =         0.19061315
  Ewald energy   TEWEN  =      5171.48538541
  -Hartree energ DENC   =     -6276.80619221
  -exchange      EXHF   =       111.23519201
  -V(xc)+E(xc)   XCENC  =       128.78352735
  PAW double counting   =      4573.02255115    -4577.73228482
  entropy T*S    EENTRO =        -0.00000000
  eigenvalues    EBANDS =      -769.69937219
  atomic energy  EATOM  =      1597.80208563
  ---------------------------------------------------
  free energy    TOTEN  =      -148.26181476 eV

  energy without entropy =     -148.26181476  energy(sigma->0) =     -148.26181476
  exchange ACFDT corr.  =        -0.00000000  see jH, gK, PRB 81, 115126


--------------------------------------------------------------------------------------------------------




--------------------------------------- Iteration      1(   8)  ---------------------------------------


    --------------------------------------------
      INIT:  cpu time      0.3924: real time      0.3924
  FINALIZE:  cpu time     75.0314: real time     75.0333
    --------------------------------------------
    POTLOK:  cpu time     94.5591: real time     94.5614
    SETDIJ:  cpu time      0.0778: real time      0.0778
    TRIAL :  cpu time    196.0307: real time    196.0360
    CORREC:  cpu time      0.3646: real time      0.3647
    CHARGE:  cpu time      3.2686: real time      3.2687
    --------------------------------------------
      LOOP:  cpu time    294.3374: real time    294.3510

 eigenvalue-minimisations  :     0
 total energy-change (2. order) :-0.6777699E-04  (-0.5330766E-04)
 number of electron      51.0000001 magnetization       1.0000001
 augmentation part        1.1652242 magnetization       0.0514849

 Free energy of the ion-electron system (eV)
  ---------------------------------------------------
  alpha Z        PSCENC =         0.19061315
  Ewald energy   TEWEN  =      5171.48538541
  -Hartree energ DENC   =     -6276.90415481
  -exchange      EXHF   =       111.23741292
  -V(xc)+E(xc)   XCENC  =       128.78548035
  PAW double counting   =      4572.98835740    -4577.69823561
  entropy T*S    EENTRO =        -0.00000000
  eigenvalues    EBANDS =      -769.61363194
  atomic energy  EATOM  =      1597.80208563
  ---------------------------------------------------
  free energy    TOTEN  =      -148.26188253 eV

  energy without entropy =     -148.26188253  energy(sigma->0) =     -148.26188253
  exchange ACFDT corr.  =         0.00000000  see jH, gK, PRB 81, 115126


--------------------------------------------------------------------------------------------------------




--------------------------------------- Iteration      1(   9)  ---------------------------------------


    --------------------------------------------
      INIT:  cpu time      0.3907: real time      0.3907
  FINALIZE:  cpu time     71.6777: real time     71.6804
    --------------------------------------------
    POTLOK:  cpu time     93.7460: real time     93.7494
    SETDIJ:  cpu time      0.0683: real time      0.0683
    TRIAL :  cpu time    194.8213: real time    194.8494
    CORREC:  cpu time      0.0747: real time      0.0747
    CHARGE:  cpu time      2.7855: real time      2.7856
    --------------------------------------------
      LOOP:  cpu time    291.5293: real time    291.5659

 eigenvalue-minimisations  :     0
 total energy-change (2. order) :-0.3183769E-04  (-0.2229292E-04)
 number of electron      51.0000001 magnetization       1.0000001
 augmentation part        1.1652119 magnetization       0.0514835

 Free energy of the ion-electron system (eV)
  ---------------------------------------------------
  alpha Z        PSCENC =         0.19061315
  Ewald energy   TEWEN  =      5171.48538541
  -Hartree energ DENC   =     -6276.90765817
  -exchange      EXHF   =       111.23724180
  -V(xc)+E(xc)   XCENC  =       128.78536188
  PAW double counting   =      4572.79453585    -4577.50445365
  entropy T*S    EENTRO =        -0.00000000
  eigenvalues    EBANDS =      -769.61139197
  atomic energy  EATOM  =      1597.80208563
  ---------------------------------------------------
  free energy    TOTEN  =      -148.26191437 eV

  energy without entropy =     -148.26191437  energy(sigma->0) =     -148.26191437
  exchange ACFDT corr.  =        -0.00000000  see jH, gK, PRB 81, 115126


--------------------------------------------------------------------------------------------------------




--------------------------------------- Iteration      1(  10)  ---------------------------------------


    --------------------------------------------
      INIT:  cpu time      0.7767: real time      0.7767
  FINALIZE:  cpu time     76.2922: real time     76.2949
    --------------------------------------------
    POTLOK:  cpu time     98.0245: real time     98.0279
    SETDIJ:  cpu time      0.0679: real time      0.0679
    TRIAL :  cpu time    196.2885: real time    196.2944
    CORREC:  cpu time      0.1799: real time      0.1799
    CHARGE:  cpu time      3.3726: real time      3.3727
    --------------------------------------------
      LOOP:  cpu time    297.9717: real time    297.9868

 eigenvalue-minimisations  :     0
 total energy-change (2. order) :-0.1327744E-04  (-0.8669189E-05)
 number of electron      51.0000001 magnetization       1.0000001
 augmentation part        1.1652118 magnetization       0.0514820

 Free energy of the ion-electron system (eV)
  ---------------------------------------------------
  alpha Z        PSCENC =         0.19061315
  Ewald energy   TEWEN  =      5171.48538541
  -Hartree energ DENC   =     -6276.87733721
  -exchange      EXHF   =       111.23653678
  -V(xc)+E(xc)   XCENC  =       128.78470392
  PAW double counting   =      4572.62111366    -4577.33102264
  entropy T*S    EENTRO =        -0.00000000
  eigenvalues    EBANDS =      -769.63863361
  atomic energy  EATOM  =      1597.80208563
  ---------------------------------------------------
  free energy    TOTEN  =      -148.26192765 eV

  energy without entropy =     -148.26192765  energy(sigma->0) =     -148.26192765
  exchange ACFDT corr.  =        -0.00000000  see jH, gK, PRB 81, 115126


--------------------------------------------------------------------------------------------------------




--------------------------------------- Iteration      1(  11)  ---------------------------------------


    --------------------------------------------
      INIT:  cpu time      0.3916: real time      0.3917
  FINALIZE:  cpu time     74.4965: real time     74.4992
    --------------------------------------------
    POTLOK:  cpu time     96.1483: real time     96.1517
    SETDIJ:  cpu time      0.0697: real time      0.0697
    TRIAL :  cpu time    195.9102: real time    195.9185
    CORREC:  cpu time      0.0066: real time      0.0066
    CHARGE:  cpu time      2.7962: real time      2.7962
    --------------------------------------------
      LOOP:  cpu time    294.9645: real time    294.9824

 eigenvalue-minimisations  :     0
 total energy-change (2. order) :-0.5663546E-05  (-0.4081857E-05)
 number of electron      51.0000001 magnetization       1.0000001
 augmentation part        1.1652180 magnetization       0.0514805

 Free energy of the ion-electron system (eV)
  ---------------------------------------------------
  alpha Z        PSCENC =         0.19061315
  Ewald energy   TEWEN  =      5171.48538541
  -Hartree energ DENC   =     -6276.87283459
  -exchange      EXHF   =       111.23656430
  -V(xc)+E(xc)   XCENC  =       128.78470015
  PAW double counting   =      4572.53895953    -4577.24889137
  entropy T*S    EENTRO =        -0.00000000
  eigenvalues    EBANDS =      -769.64197343
  atomic energy  EATOM  =      1597.80208563
  ---------------------------------------------------
  free energy    TOTEN  =      -148.26193331 eV

  energy without entropy =     -148.26193331  energy(sigma->0) =     -148.26193331
  exchange ACFDT corr.  =        -0.00000000  see jH, gK, PRB 81, 115126


--------------------------------------------------------------------------------------------------------


  average scaling for gradient   0.9444


 average (electrostatic) potential at core
  the test charge radii are     0.6991  0.5201
  (the norm of the test charge is              1.0000)
       1 -56.8002       2 -56.5084       3 -57.2826       4 -56.4971       5 -56.7824
       6 -57.3479       7 -57.0891       8 -57.3873       9 -55.8474      10 -55.6691
      11 -38.9096      12 -38.9097      13 -38.6694      14 -39.6513      15 -39.4907
      16 -39.3488      17 -39.1419      18 -38.5502      19 -38.7712      20 -38.6738
      21 -39.1465      22 -39.4412
 
 
 
 E-fermi :  -7.4815     XC(G=0):  -0.0270     alpha+bet : -0.0208

 Fermi energy:        -7.4815144058

 spin component 1

 k-point     1 :       0.0000    0.0000    0.0000
  band No.  band energies     occupation 
      1     -25.6236      1.00000
      2     -24.2137      1.00000
      3     -22.9001      1.00000
      4     -22.2771      1.00000
      5     -21.0795      1.00000
      6     -19.5630      1.00000
      7     -18.4418      1.00000
      8     -17.7277      1.00000
      9     -16.7555      1.00000
     10     -15.4686      1.00000
     11     -14.5110      1.00000
     12     -13.9878      1.00000
     13     -13.2540      1.00000
     14     -12.8298      1.00000
     15     -12.9721      1.00000
     16     -12.8401      1.00000
     17     -12.5913      1.00000
     18     -11.7838      1.00000
     19     -11.6177      1.00000
     20     -11.5274      1.00000
     21     -11.1910      1.00000
     22     -10.9487      1.00000
     23     -10.4861      1.00000
     24      -9.6715      1.00000
     25      -8.6305      1.00000
     26      -7.7536      1.00000
     27      -3.5698      0.00000
     28      -2.1706      0.00000
     29      -0.5391      0.00000
     30       0.0903      0.00000
     31      -0.2647      0.00000
     32      -0.1941      0.00000
     33       0.0347      0.00000
     34       0.0934      0.00000
     35       0.1362      0.00000
     36       0.1632      0.00000
     37       0.1327      0.00000
     38       0.1287      0.00000
     39       0.1675      0.00000
     40      -0.9586      0.00000
     41       0.1202      0.00000
     42       0.1961      0.00000
     43       0.2066      0.00000
     44       0.2135      0.00000
     45       0.2122      0.00000
     46       0.2160      0.00000
     47       0.2160      0.00000
     48       0.2161      0.00000
 Fermi energy:        -7.4815144058

 spin component 2

 k-point     1 :       0.0000    0.0000    0.0000
  band No.  band energies     occupation 
      1     -25.4394      1.00000
      2     -23.9305      1.00000
      3     -22.6179      1.00000
      4     -22.2320      1.00000
      5     -21.0399      1.00000
      6     -19.3907      1.00000
      7     -18.3491      1.00000
      8     -17.5689      1.00000
      9     -16.6232      1.00000
     10     -15.4074      1.00000
     11     -14.4515      1.00000
     12     -13.9166      1.00000
     13     -13.1839      1.00000
     14     -12.9536      1.00000
     15     -12.7817      1.00000
     16     -12.4426      1.00000
     17     -12.2017      1.00000
     18     -11.7108      1.00000
     19     -11.5025      1.00000
     20     -11.2215      1.00000
     21     -11.1578      1.00000
     22     -10.9112      1.00000
     23     -10.4334      1.00000
     24      -9.0171      1.00000
     25      -8.5099      1.00000
     26      -6.1145      0.00000
     27      -2.7136      0.00000
     28      -1.8913      0.00000
     29       0.1684      0.00000
     30      -0.5212      0.00000
     31      -0.2453      0.00000
     32      -0.1894      0.00000
     33       0.0343      0.00000
     34       0.0996      0.00000
     35       0.1005      0.00000
     36       0.1207      0.00000
     37       0.1324      0.00000
     38       0.1293      0.00000
     39       0.1428      0.00000
     40       0.1716      0.00000
     41      -0.3865      0.00000
     42       0.1967      0.00000
     43       0.2077      0.00000
     44       0.2136      0.00000
     45       0.2160      0.00000
     46       0.2160      0.00000
     47       0.2161      0.00000
     48       0.2123      0.00000


--------------------------------------------------------------------------------------------------------


 soft charge-density along one line, spin component           1
         0         1         2         3         4         5         6         7         8         9
 total charge-density along one line
 
 soft charge-density along one line, spin component           2
         0         1         2         3         4         5         6         7         8         9
 total charge-density along one line
 
 pseudopotential strength for first ion, spin component:           1
 10.099  13.431   0.002   0.000   0.000  -0.007  -0.000  -0.000
 13.431  17.861   0.003   0.000   0.000  -0.009  -0.000  -0.000
  0.002   0.003  -4.299   0.000  -0.001   8.382  -0.000   0.002
  0.000   0.000   0.000  -4.310   0.000  -0.000   8.404  -0.000
  0.000   0.000  -0.001   0.000  -4.299   0.002  -0.000   8.381
 -0.007  -0.009   8.382  -0.000   0.002 -18.462   0.000  -0.004
 -0.000  -0.000  -0.000   8.404  -0.000   0.000 -18.510   0.000
 -0.000  -0.000   0.002  -0.000   8.381  -0.004   0.000 -18.460
 pseudopotential strength for first ion, spin component:           2
 10.087  13.415   0.002   0.000   0.000  -0.007  -0.000  -0.000
 13.415  17.840   0.003   0.000   0.000  -0.009  -0.000  -0.000
  0.002   0.003  -4.299   0.000  -0.001   8.384  -0.000   0.002
  0.000   0.000   0.000  -4.297   0.000  -0.000   8.383  -0.000
  0.000   0.000  -0.001   0.000  -4.299   0.002  -0.000   8.382
 -0.007  -0.009   8.384  -0.000   0.002 -18.471   0.000  -0.005
 -0.000  -0.000  -0.000   8.383  -0.000   0.000 -18.476   0.000
 -0.000  -0.000   0.002  -0.000   8.382  -0.005   0.000 -18.467
 total augmentation occupancy for first ion, spin component:           1
  8.671  -3.887   0.129   0.001  -0.226   0.032   0.000  -0.041
 -3.887   1.780  -0.105  -0.001   0.133  -0.021  -0.000   0.024
  0.129  -0.105   1.778  -0.000   0.019   0.164  -0.000   0.008
  0.001  -0.001  -0.000   1.086  -0.001  -0.000   0.069  -0.000
 -0.226   0.133   0.019  -0.001   1.891   0.008  -0.000   0.177
  0.032  -0.021   0.164  -0.000   0.008   0.016  -0.000   0.002
  0.000  -0.000  -0.000   0.069  -0.000  -0.000   0.005  -0.000
 -0.041   0.024   0.008  -0.000   0.177   0.002  -0.000   0.018
 total augmentation occupancy for first ion, spin component:           2
 -0.004   0.006   0.005  -0.000   0.005   0.001  -0.000   0.001
  0.006  -0.004  -0.006   0.000  -0.005  -0.001   0.000  -0.001
  0.005  -0.006  -0.001  -0.000  -0.002   0.000  -0.000   0.000
 -0.000   0.000  -0.000   0.106  -0.000  -0.000   0.003  -0.000
  0.005  -0.005  -0.002  -0.000   0.002   0.000  -0.000  -0.000
  0.001  -0.001   0.000  -0.000   0.000   0.000  -0.000   0.000
 -0.000   0.000  -0.000   0.003  -0.000  -0.000   0.000   0.000
  0.001  -0.001   0.000  -0.000  -0.000   0.000   0.000  -0.000


------------------------ aborting loop because EDIFF is reached ----------------------------------------


    FORLOC:  cpu time      0.3113: real time      0.3113
    FORHF :  cpu time    110.1272: real time    110.1342
    FORNL :  cpu time      3.9660: real time      3.9661
    STRESS:  cpu time     12.0680: real time     12.0684
    FORCOR:  cpu time     16.4152: real time     16.4157
    OFIELD:  cpu time      0.0205: real time      0.0205
 WARNING: Using user supplied parameters
     VDW_A1 = 0.383
     VDW_A2 = 5.685
     VDW_S8 = 2.31
     because the xc functional is not supported. Required parameters not
     defined in the INCAR file will be replaced with PBE defaults ones.


 ---------------------------------------------------------------------------------------------

         DFTD3 V3.0 Rev 1        
 IVDW         = 12
 DF unknown   
 parameters
 VDW_S6       =    1.0000
 VDW_S8       =    2.3100
 VDW_A1       =    0.3830
 VDW_A2       =    5.6850
 k1-k3        =   16.0000    1.3333   -4.0000
 VDW_RADIUS   =   50.2022 A
 VDW_CNRADIUS =   21.1671 A
 Edisp (eV)   -0.39847

 E6    (eV) :    -0.2065
 E8    (eV) :    -0.1919
 % E8        : 48.17
    FORVDW:  cpu time      0.0099: real time      0.0099

  FORCE on cell =-STRESS in cart. coord.  units (eV):
  Direction    XX          YY          ZZ          XY          YZ          ZX
  --------------------------------------------------------------------------------------
  Alpha Z     0.19061     0.19061     0.19061
  Ewald    3751.73052  1690.55184  -270.79753     4.57179    -0.20052    -3.21989
  Hartree  3685.90613  1937.86384   759.73833     8.01714     0.02267    -1.65006
  E(xc)    -138.51535  -138.78920  -140.72396     0.00047    -0.00084    -0.00484
  Local   -7906.32370 -4090.36087 -1013.30153   -13.72668     0.15337     4.67785
  n-local   -61.30003   -64.69330   -56.11304     0.10548     0.00455     0.02589
  augment    -2.06784    -2.16164    -2.17744     0.00498     0.00003     0.00081
  Kinetic   715.37475   712.50532   767.37205     0.96830     0.01439     0.16227
  Fock      -49.60932   -49.44671   -45.18602     0.08318     0.00221     0.01150
  vdW        -0.25783    -0.06767    -0.00300    -0.00267    -0.00007    -0.00022
  -------------------------------------------------------------------------------------
  Total      -4.87207    -4.40780    -1.00152     0.02200    -0.00420     0.00331
  in kB      -0.12197    -0.11034    -0.02507     0.00055    -0.00011     0.00008
  external pressure =       -0.09 kB  Pullay stress =        0.00 kB


 VOLUME and BASIS-vectors are now :
 -----------------------------------------------------------------------------
  energy-cutoff  :      500.00
  volume of cell :    64000.00
      direct lattice vectors                 reciprocal lattice vectors
    40.000000000  0.000000000  0.000000000     0.025000000  0.000000000  0.000000000
     0.000000000 40.000000000  0.000000000     0.000000000  0.025000000  0.000000000
     0.000000000  0.000000000 40.000000000     0.000000000  0.000000000  0.025000000

  length of vectors
    40.000000000 40.000000000 40.000000000     0.025000000  0.025000000  0.025000000


 FORCES acting on ions:
    Electron-Ion                     Ewald-Force                    Non-Local-Force
 -----------------------------------------------------------------------------------------------
   -.617E+02 0.163E+03 0.928E-01   0.619E+02 -.165E+03 -.110E+00   -.413E+00 0.199E+01 0.144E-01
   0.717E+02 0.181E+03 -.190E+00   -.723E+02 -.183E+03 0.208E+00   0.758E+00 0.204E+01 -.139E-01
   0.116E+03 0.112E+02 -.213E+01   -.117E+03 -.113E+02 0.220E+01   0.138E+01 0.123E+00 -.645E-01
   0.110E+03 -.166E+03 -.507E+00   -.111E+03 0.168E+03 0.532E+00   0.132E+01 -.185E+01 -.228E-01
   -.285E+02 -.188E+03 0.271E+00   0.286E+02 0.190E+03 -.292E+00   -.207E+00 -.205E+01 0.196E-01
   -.513E+02 -.188E+02 0.204E+00   0.512E+02 0.186E+02 -.213E+00   0.203E+00 0.221E+00 0.115E-01
   -.860E+02 -.950E+02 0.206E+00   0.864E+02 0.967E+02 -.203E+00   -.462E+00 -.162E+01 -.334E-02
   -.888E+02 0.908E+02 0.179E-02   0.899E+02 -.919E+02 -.221E-02   -.131E+01 0.105E+01 0.296E-02
   -.167E+03 -.800E+01 0.224E+00   0.169E+03 0.938E+01 -.229E+00   -.211E+01 -.135E+01 0.391E-02
   0.190E+03 0.213E+02 -.813E+00   -.192E+03 -.211E+02 0.121E+01   0.211E+01 -.254E+00 -.424E+00
   -.519E+02 0.251E+02 -.498E+02   0.543E+02 -.272E+02 0.540E+02   -.249E+01 0.220E+01 -.419E+01
   -.518E+02 0.252E+02 0.499E+02   0.542E+02 -.274E+02 -.541E+02   -.248E+01 0.221E+01 0.419E+01
   -.410E+02 -.620E+02 0.169E+00   0.421E+02 0.675E+02 -.181E+00   -.109E+01 -.545E+01 0.115E-01
   -.100E+02 0.754E+02 -.131E+00   0.873E+01 -.810E+02 0.143E+00   0.129E+01 0.563E+01 -.125E-01
   -.327E+02 -.767E+02 0.161E+00   0.344E+02 0.822E+02 -.171E+00   -.162E+01 -.551E+01 0.106E-01
   -.212E+02 -.854E+02 0.427E-01   0.234E+02 0.908E+02 -.452E-01   -.221E+01 -.535E+01 0.313E-02
   0.487E+02 -.740E+02 -.255E+00   -.521E+02 0.786E+02 0.276E+00   0.348E+01 -.461E+01 -.189E-01
   0.623E+02 -.489E+02 -.122E+02   -.651E+02 0.535E+02 0.133E+02   0.287E+01 -.465E+01 -.101E+01
   0.481E+02 0.244E+02 0.591E+02   -.497E+02 -.262E+02 -.638E+02   0.162E+01 0.181E+01 0.474E+01
   0.480E+02 0.467E+02 -.437E+02   -.496E+02 -.505E+02 0.473E+02   0.160E+01 0.378E+01 -.356E+01
   0.305E+02 0.830E+02 -.178E+00   -.327E+02 -.883E+02 0.194E+00   0.224E+01 0.532E+01 -.153E-01
   -.341E+02 0.776E+02 -.152E-02   0.374E+02 -.824E+02 0.856E-03   -.331E+01 0.473E+01 0.103E-02
 -----------------------------------------------------------------------------------------------
   -.120E+01 0.173E+01 0.349E+00   0.000E+00 0.284E-13 -.277E-14   0.116E+01 -.160E+01 -.324E+00
 
 
 POSITION                                       TOTAL-FORCE (eV/Angst)
 -----------------------------------------------------------------------------------
     19.79907     18.97538     20.00436        -0.219353      0.050384     -0.002743
     18.43472     18.81568     20.00721         0.185023      0.132529      0.002811
     17.56240     19.94062     20.01057         0.266792      0.058950      0.003665
     18.12644     21.24222     20.00851         0.178249     -0.105262      0.000788
     19.49139     21.41441     20.00406        -0.170251     -0.114772     -0.000935
     20.37336     20.28808     20.00279         0.086248      0.008031      0.003313
     21.77339     20.53971     20.00089        -0.087575     -0.046633     -0.001144
     22.78167     19.59322     20.00075        -0.226877      0.033850      0.002546
     24.21240     19.92954     19.99835         0.160934     -0.041641     -0.000608
     16.09020     19.74649     20.00077        -0.100406     -0.081448     -0.049542
     24.70864     19.46720     20.87017        -0.153601      0.112949     -0.179654
     24.70617     19.46405     19.12683        -0.151892      0.113180      0.178524
     24.40406     21.00764     19.99610        -0.062931     -0.238036      0.000460
     22.52432     18.53053     20.00307         0.049145      0.256733     -0.001709
     22.07473     21.59123     19.99889        -0.073366     -0.248220      0.000708
     19.92150     22.41644     20.00350        -0.106005     -0.236595      0.000585
     17.46514     22.10863     20.01225         0.153338     -0.207834      0.000487
     15.54505     20.67443     20.20051         0.132666     -0.188371     -0.029701
     15.77325     19.37016     19.01212         0.098578      0.096745      0.208307
     15.78670     18.97550     20.72389         0.092856      0.181957     -0.136031
     18.00450     17.81355     20.01026         0.103456      0.242538     -0.000354
     20.44091     18.09532     20.00420        -0.155027      0.220968      0.000227
 -----------------------------------------------------------------------------------
    total drift:                                0.023119      0.035034      0.003990


--------------------------------------------------------------------------------------------------------



  FREE ENERGIE OF THE ION-ELECTRON SYSTEM (eV)
  ---------------------------------------------------
  free  energy   TOTEN  =      -148.66040737 eV

  energy  without entropy=     -148.66040737  energy(sigma->0) =     -148.66040737
 


--------------------------------------------------------------------------------------------------------


    --------------------------------------------
      INIT:  cpu time      0.5844: real time      0.5844
  FINALIZE:  cpu time     76.7723: real time     76.7743
    --------------------------------------------
    POTLOK:  cpu time    103.0635: real time    103.0661


--------------------------------------------------------------------------------------------------------


 writing wavefunctions
     LOOP+:  cpu time   3592.9039: real time   3594.3534
    4ORBIT:  cpu time      0.0000: real time      0.0000

 total amount of memory used by VASP MPI-rank0  1947099. kBytes
=======================================================================

   base      :      30000. kBytes
   nonlr-proj:       3272. kBytes
   fftplans  :     175546. kBytes
   grid      :     332629. kBytes
   one-center:         12. kBytes
   HF        :          9. kBytes
   wavefun   :      83190. kBytes
   fock_wrk  :    1322441. kBytes
 
  
  
 General timing and accounting informations for this job:
 ========================================================
  
                  Total CPU time used (sec):     3649.271
                            User time (sec):     2490.260
                          System time (sec):     1159.010
                         Elapsed time (sec):     3651.747
  
                   Maximum memory used (kb):     3274032.
                   Average memory used (kb):          N/A
  
                          Minor page faults:     26273969
                          Major page faults:            0
                 Voluntary context switches:         4622
