
                                 *****************
                                 * O   R   C   A *
                                 *****************

                                            #,                                       
                                            ###                                      
                                            ####                                     
                                            #####                                    
                                            ######                                   
                                           ########,                                 
                                     ,,################,,,,,                         
                               ,,#################################,,                 
                          ,,##########################################,,             
                       ,#########################################, ''#####,          
                    ,#############################################,,   '####,        
                  ,##################################################,,,,####,       
                ,###########''''           ''''###############################       
              ,#####''   ,,,,##########,,,,          '''####'''          '####       
            ,##' ,,,,###########################,,,                        '##       
           ' ,,###''''                  '''############,,,                           
         ,,##''                                '''############,,,,        ,,,,,,###''
      ,#''                                            '''#######################'''  
     '                                                          ''''####''''         
             ,#######,   #######,   ,#######,      ##                                
            ,#'     '#,  ##    ##  ,#'     '#,    #''#        ,####,   ,####,        
            ##       ##  ##   ,#'  ##            #'  '#       #'       #'  '#        
            ##       ##  #######   ##           ,######,      #####,   #    #        
            '#,     ,#'  ##    ##  '#,     ,#' ,#      #,     #,   #   #,  ,#        
             '#######'   ##     ##  '#######'  #'      '#     '####' # '####'        



                #########################################################
                #                        -***-                          #
                #          Department of theory and spectroscopy        #
                #                                                       #
                #                      Frank Neese                      #
                #                                                       #
                #     Directorship, Architecture, Infrastructure        #
                #                    SHARK, DRIVERS                     #
                #        Core code/Algorithms in most modules           #
                #                                                       #
                #        Max Planck Institute fuer Kohlenforschung      #
                #                Kaiser Wilhelm Platz 1                 #
                #                 D-45470 Muelheim/Ruhr                 #
                #                      Germany                          #
                #                                                       #
                #                  All rights reserved                  #
                #                        -***-                          #
                #########################################################


                         Program Version 6.0.0  -   RELEASE  -


 With contributions from (in alphabetic order):
   Daniel Aravena         : Magnetic Suceptibility
   Michael Atanasov       : Ab Initio Ligand Field Theory (pilot matlab implementation)
   Alexander A. Auer      : GIAO ZORA, VPT2 properties, NMR spectrum
   Ute Becker             : All parallelization in ORCA, NUMFREQ, NUMCALC
   Giovanni Bistoni       : ED, misc. LED, open-shell LED, HFLD
   Martin Brehm           : Molecular dynamics
   Dmytro Bykov           : pre 5.0 version of the SCF Hessian
   Marcos Casanova-Páez   : Triplet and SCS-CIS(D). UHF-(DLPNO)-IP/EA/STEOM-CCSD. UHF-CVS-IP/STEOM-CCSD
   Vijay G. Chilkuri      : MRCI spin determinant printing, contributions to CSF-ICE
   Pauline Colinet        : FMM embedding
   Dipayan Datta          : RHF DLPNO-CCSD density
   Achintya Kumar Dutta   : EOM-CC, STEOM-CC
   Nicolas Foglia         : Exact transition moments, OPA infrastructure, MCD improvements
   Dmitry Ganyushin       : Spin-Orbit,Spin-Spin,Magnetic field MRCI
   Miquel Garcia          : C-PCM and meta-GGA Hessian, CCSD/C-PCM, Gaussian charge scheme
   Tiago L. C. Gouveia    : GS-ROHF, GS-ROCIS
   Yang Guo               : DLPNO-NEVPT2, F12-NEVPT2, CIM, IAO-localization
   Andreas Hansen         : Spin unrestricted coupled pair/coupled cluster methods
   Ingolf Harden          : AUTO-CI MPn and infrastructure 
   Benjamin Helmich-Paris : MC-RPA, TRAH-(SCF,CASSCF), AVAS, COSX integrals, SCF dyn. polar.
   Lee Huntington         : MR-EOM, pCC
   Robert Izsak           : Overlap fitted RIJCOSX, COSX-SCS-MP3, EOM
   Riya Kayal             : Wick's Theorem for AUTO-CI, AUTO-CI UHF-CCSDT
   Emily Kempfer          : AUTO-CI, RHF CISDT and CCSDT
   Christian Kollmar      : KDIIS, OOCD, Brueckner-CCSD(T), CCSD density, CASPT2, CASPT2-K, improved NEVPT2
   Axel Koslowski         : Symmetry handling
   Simone Kossmann        : Meta GGA functionals, TD-DFT gradient, OOMP2, (MP2 Hessian; deprecated post 5.0)
   Lucas Lang             : DCDCAS
   Marvin Lechner         : AUTO-CI (C++ implementation), FIC-MRCC
   Spencer Leger          : CASSCF response
   Dagmar Lenk            : GEPOL surface, SMD, ORCA-2-JSON
   Dimitrios Liakos       : Extrapolation schemes; Compound Job, initial MDCI parallelization
   Dimitrios Manganas     : Further ROCIS development; embedding schemes. LFT, Crystal Embedding
   Dimitrios Pantazis     : SARC Basis sets
   Anastasios Papadopoulos: AUTO-CI, single reference methods and gradients
   Taras Petrenko         : pre 6.0 DFT Hessian and TD-DFT gradient, (ASA, deprecated), ECA, 1-Electron XAS/XES, NRVS
   Peter Pinski           : DLPNO-MP2, DLPNO-MP2 Gradient
   Christoph Reimann      : Effective Core Potentials
   Marius Retegan         : Local ZFS, SOC
   Christoph Riplinger    : Optimizer, TS searches, QM/MM, DLPNO-CCSD(T), (RO)-DLPNO pert. Triples
   Michael Roemelt        : Original ROCIS implementation
   Masaaki Saitow         : Open-shell DLPNO-CCSD energy and density
   Barbara Sandhoefer     : DKH picture change effects
   Kantharuban Sivalingam : CASSCF convergence/infrastructure, NEVPT2 and variants, FIC-MRCI
   Bernardo de Souza      : ESD, SOC TD-DFT
   Georgi Stoychev        : AutoAux, RI-MP2 NMR, DLPNO-MP2 response, X2C
   Van Anh Tran           : RI-MP2 g-tensors
   Willem Van den Heuvel  : Paramagnetic NMR
   Zikuan Wang            : NOTCH, Electric field optimization 
   Frank Wennmohs         : Technical directorship and infrastructure
   Hang Xu                : AUTO-CI-Response properties 


 We gratefully acknowledge several colleagues who have allowed us to
 interface, adapt or use parts of their codes:
   Stefan Grimme, W. Hujo, H. Kruse, P. Pracht,  : VdW corrections, initial TS optimization,
                  C. Bannwarth, S. Ehlert,         DFT functionals, gCP, sTDA/sTD-DF
                  L. Wittmann, M. Mueller
   Ed Valeev, F. Pavosevic, A. Kumar             : LibInt (2-el integral package), F12 methods
   Garnet Chan, S. Sharma, J. Yang, R. Olivares  : DMRG
   Ulf Ekstrom                                   : XCFun DFT Library
   Mihaly Kallay                                 : mrcc  (arbitrary order and MRCC methods)
   Frank Weinhold                                : gennbo (NPA and NBO analysis)
   Simon Mueller                                 : openCOSMO-RS
   Christopher J. Cramer and Donald G. Truhlar   : smd solvation model
   Lars Goerigk                                  : TD-DFT with DH, B97 family of functionals
   V. Asgeirsson, H. Jonsson                     : NEB implementation
   FAccTs GmbH                                   : IRC, NEB, NEB-TS, DLPNO-Multilevel, CI-OPT
                                                   MM, QMMM, 2- and 3-layer-ONIOM, Crystal-QMMM,
                                                   LR-CPCM, SF, NACMEs, symmetry and pop. for TD-DFT,
                                                   nearIR, NL-DFT gradient (VV10), updates on ESD,
                                                   ML-optimized integration grids, MBIS, APM,
                                                   GOAT, DOCKER, SOLVATOR, interface openCOSMO-RS
   S Lehtola, MJT Oliveira, MAL Marques          : LibXC Library
   Liviu Ungur et al                             : ANISO software


 Your calculation uses the libint2 library for the computation of 2-el integrals
 For citations please refer to: http://libint.valeyev.net

 Your ORCA version has been built with support for libXC version: 6.2.2
 For citations please refer to: https://libxc.gitlab.io

 This ORCA versions uses:
   CBLAS   interface :  Fast vector & matrix operations
   LAPACKE interface :  Fast linear algebra routines
   SCALAPACK package :  Parallel linear algebra routines
   Shared memory     :  Shared parallel matrices
   BLAS/LAPACK       :  OpenBLAS 0.3.27  USE64BITINT DYNAMIC_ARCH NO_AFFINITY SkylakeX SINGLE_THREADED
        Core in use  :  SkylakeX
   Copyright (c) 2011-2014, The OpenBLAS Project


NOTE: MaxCore=3000 MB was set to SCF,MP2,MDCI,CIPSI,MRCI and CIS
      => If you want to overwrite this, your respective input block should be placed after the MaxCore statement
Your calculation utilizes the atom-pairwise dispersion correction
with the Becke-Johnson damping scheme (D3BJ)


Warning: RI is on but no J-basis has been assigned. Assigning Def2/J (nothing to worry about!)
================================================================================

----- Orbital basis set information -----
Your calculation utilizes the basis: def2-SV(P)
   F. Weigend and R. Ahlrichs, Phys. Chem. Chem. Phys. 7, 3297 (2005).

----- AuxJ basis set information -----
Your calculation utilizes the auxiliary basis: def2/J
   F. Weigend, Phys. Chem. Chem. Phys. 8, 1057 (2006).

================================================================================
                                        WARNINGS
                       Please study these warnings very carefully!
================================================================================


WARNING: Geometry Optimization
  ===> : Switching off AutoStart
         For restart on a previous wavefunction, please use MOREAD

================================================================================
                                       INPUT FILE
================================================================================
NAME = cs_rporg_061_red_opt_01.inp
|  1> !PBE0 def2-SV(p) Opt Freq d3 TightSCF SlowConv RIJCOSX defgrid2
|  2>  
|  3> %pal
|  4> nprocs 4
|  5> end
|  6>  
|  7> %scf
|  8> MaxIter 1500
|  9> end
| 10>  
| 11> %maxcore 3000
| 12>  
| 13> 
| 14>  
| 15> * xyz 0 1
| 16> C     1.3616506   -0.7157314    0.7044963 
| 17> C     2.6109979   -1.3083878    0.7439184 
| 18> C     3.6943517   -0.7090270    0.1238809 
| 19> C     3.5263860    0.4987781   -0.5336473 
| 20> C     2.2821652    1.0985253   -0.5842157 
| 21> C     1.1918110    0.4885438    0.0293621 
| 22> O    -0.0000161    1.1693127    0.0001228 
| 23> C    -1.1918189    0.4885184   -0.0292533 
| 24> C    -2.2822865    1.0985594    0.5840692 
| 25> C    -3.5264920    0.4987956    0.5333575 
| 26> C    -3.6943361   -0.7090879   -0.1240594 
| 27> C    -2.6108699   -1.3085084   -0.7438413 
| 28> C    -1.3615351   -0.7158355   -0.7042762 
| 29> H    -0.5199789   -1.1778470   -1.1998364 
| 30> H    -2.7357160   -2.2439536   -1.2686136 
| 31> H    -4.6655461   -1.1784812   -0.1578856 
| 32> H    -4.3673847    0.9765298    1.0132958 
| 33> H    -2.1346392    2.0402821    1.0897358 
| 34> H     2.1344207    2.0401867   -1.0899678 
| 35> H     4.3671906    0.9764603   -1.0137911 
| 36> H     4.6655703   -1.1784115    0.1575889 
| 37> H     2.7359455   -2.2437733    1.2687724 
| 38> H     0.5201783   -1.1776918    1.2002473
| 39> *
| 40> 
| 41>                          ****END OF INPUT****
================================================================================

                       *****************************
                       * Geometry Optimization Run *
                       *****************************

Geometry optimization settings:
Update method            Update   .... BFGS
Choice of coordinates    CoordSys .... (2022) Redundant Internals
Initial Hessian          InHess   .... Almloef's Model
Max. no of cycles        MaxIter  .... 69

Convergence Tolerances:
Energy Change            TolE     ....  5.0000e-06 Eh
Max. Gradient            TolMAXG  ....  3.0000e-04 Eh/bohr
RMS Gradient             TolRMSG  ....  1.0000e-04 Eh/bohr
Max. Displacement        TolMAXD  ....  4.0000e-03 bohr
RMS Displacement         TolRMSD  ....  2.0000e-03 bohr
Strict Convergence                .... False

------------------------------------------------------------------------------
                        ORCA OPTIMIZATION COORDINATE SETUP
------------------------------------------------------------------------------

The optimization will be done in redundant internal coordinates (2022)
Making redundant internal coordinates   ...  (2022 redundants) done
Evaluating the initial hessian          ...  (Almloef) done
Evaluating the coordinates              ...  done
Calculating the B-matrix                .... done
Calculating the G-matrix                .... done
Diagonalizing the G-matrix              .... done
Small eigenvalue found = 5.787e-03
Small eigenvalue found = 2.295e-02
Small eigenvalue found = 2.551e-02
The first mode is                       ....   50
The number of degrees of freedom        ....   63

    -----------------------------------------------------------------
                    Redundant Internal Coordinates


    -----------------------------------------------------------------
         Definition                    Initial Value    Approx d2E/dq
    -----------------------------------------------------------------
      1. B(C   1,C   0)                  1.3834         0.640242   
      2. B(C   2,C   1)                  1.3847         0.637130   
      3. B(C   3,C   2)                  1.3854         0.635431   
      4. B(C   4,C   3)                  1.3822         0.643076   
      5. B(C   5,C   4)                  1.3919         0.620416   
      6. B(C   5,C   0)                  1.3910         0.622465   
      7. B(O   6,C   5)                  1.3729         0.595959   
      8. B(C   7,O   6)                  1.3729         0.595971   
      9. B(C   8,C   7)                  1.3919         0.620411   
     10. B(C   9,C   8)                  1.3821         0.643079   
     11. B(C  10,C   9)                  1.3854         0.635429   
     12. B(C  11,C  10)                  1.3847         0.637132   
     13. B(C  12,C  11)                  1.3834         0.640242   
     14. B(C  12,C   7)                  1.3910         0.622467   
     15. B(H  13,C  12)                  1.0804         0.373034   
     16. B(H  14,C  11)                  1.0798         0.373810   
     17. B(H  15,C  10)                  1.0792         0.374642   
     18. B(H  16,C   9)                  1.0797         0.374038   
     19. B(H  17,C   8)                  1.0790         0.374886   
     20. B(H  18,C   4)                  1.0790         0.374887   
     21. B(H  19,C   3)                  1.0797         0.374038   
     22. B(H  20,C   2)                  1.0792         0.374642   
     23. B(H  21,C   1)                  1.0798         0.373810   
     24. B(H  22,C   0)                  1.0804         0.373034   
     25. A(C   5,C   0,H  22)          119.8542         0.355264   
     26. A(C   1,C   0,C   5)          119.6702         0.436897   
     27. A(C   1,C   0,H  22)          120.4739         0.356967   
     28. A(C   0,C   1,H  21)          119.3055         0.357093   
     29. A(C   0,C   1,C   2)          120.5569         0.438735   
     30. A(C   2,C   1,H  21)          120.1369         0.356797   
     31. A(C   3,C   2,H  20)          120.2055         0.356770   
     32. A(C   1,C   2,C   3)          119.6717         0.438139   
     33. A(C   1,C   2,H  20)          120.1220         0.356932   
     34. A(C   2,C   3,C   4)          120.3182         0.438873   
     35. A(C   2,C   3,H  19)          120.1569         0.356672   
     36. A(C   4,C   3,H  19)          119.5245         0.357398   
     37. A(C   5,C   4,H  18)          118.8024         0.355364   
     38. A(C   3,C   4,C   5)          119.9265         0.436985   
     39. A(C   3,C   4,H  18)          121.2707         0.357536   
     40. A(C   0,C   5,O   6)          123.0683         0.428482   
     41. A(C   0,C   5,C   4)          119.8483         0.434429   
     42. A(C   4,C   5,O   6)          116.9590         0.428229   
     43. A(C   5,O   6,C   7)          120.5437         0.422390   
     44. A(C   8,C   7,C  12)          119.8481         0.434428   
     45. A(O   6,C   7,C  12)          123.0693         0.428484   
     46. A(O   6,C   7,C   8)          116.9583         0.428229   
     47. A(C   9,C   8,H  17)          121.2706         0.357536   
     48. A(C   7,C   8,H  17)          118.8024         0.355364   
     49. A(C   7,C   8,C   9)          119.9266         0.436985   
     50. A(C  10,C   9,H  16)          120.1568         0.356672   
     51. A(C   8,C   9,H  16)          119.5245         0.357398   
     52. A(C   8,C   9,C  10)          120.3183         0.438874   
     53. A(C   9,C  10,C  11)          119.6716         0.438138   
     54. A(C  11,C  10,H  15)          120.1221         0.356932   
     55. A(C   9,C  10,H  15)          120.2056         0.356770   
     56. A(C  12,C  11,H  14)          119.3052         0.357093   
     57. A(C  10,C  11,H  14)          120.1370         0.356797   
     58. A(C  10,C  11,C  12)          120.5570         0.438735   
     59. A(C  11,C  12,H  13)          120.4736         0.356967   
     60. A(C   7,C  12,H  13)          119.8544         0.355264   
     61. A(C   7,C  12,C  11)          119.6703         0.436897   
     62. D(H  21,C   1,C   0,H  22)      0.5325         0.028481   
     63. D(H  21,C   1,C   0,C   5)   -179.9342         0.028481   
     64. D(C   2,C   1,C   0,C   5)      0.3766         0.028481   
     65. D(C   2,C   1,C   0,H  22)   -179.1566         0.028481   
     66. D(C   3,C   2,C   1,H  21)   -179.2563         0.028187   
     67. D(H  20,C   2,C   1,C   0)   -179.8949         0.028187   
     68. D(H  20,C   2,C   1,H  21)      0.4185         0.028187   
     69. D(C   3,C   2,C   1,C   0)      0.4303         0.028187   
     70. D(H  19,C   3,C   2,H  20)     -0.1064         0.028027   
     71. D(H  19,C   3,C   2,C   1)    179.5681         0.028027   
     72. D(C   4,C   3,C   2,C   1)     -0.6630         0.028027   
     73. D(C   4,C   3,C   2,H  20)    179.6626         0.028027   
     74. D(H  18,C   4,C   3,C   2)    179.8474         0.028751   
     75. D(C   5,C   4,C   3,H  19)    179.8572         0.028751   
     76. D(C   5,C   4,C   3,C   2)      0.0868         0.028751   
     77. D(H  18,C   4,C   3,H  19)     -0.3822         0.028751   
     78. D(O   6,C   5,C   4,H  18)     -2.9729         0.026637   
     79. D(C   0,C   5,C   4,H  18)   -179.0437         0.026637   
     80. D(C   0,C   5,C   4,C   3)      0.7227         0.026637   
     81. D(O   6,C   5,C   0,H  22)      2.7640         0.026824   
     82. D(O   6,C   5,C   0,C   1)   -176.7722         0.026824   
     83. D(O   6,C   5,C   4,C   3)    176.7935         0.026637   
     84. D(C   4,C   5,C   0,H  22)    178.5844         0.026824   
     85. D(C   4,C   5,C   0,C   1)     -0.9518         0.026824   
     86. D(C   7,O   6,C   5,C   4)    148.9314         0.025917   
     87. D(C   7,O   6,C   5,C   0)    -35.1356         0.025917   
     88. D(C  12,C   7,O   6,C   5)    -35.1149         0.025918   
     89. D(C   8,C   7,O   6,C   5)    148.9519         0.025918   
     90. D(H  17,C   8,C   7,O   6)     -2.9726         0.026637   
     91. D(C   9,C   8,C   7,C  12)      0.7227         0.026637   
     92. D(C   9,C   8,C   7,O   6)    176.7936         0.026637   
     93. D(H  17,C   8,C   7,C  12)   -179.0435         0.026637   
     94. D(H  16,C   9,C   8,H  17)     -0.3819         0.028752   
     95. D(H  16,C   9,C   8,C   7)    179.8578         0.028752   
     96. D(C  10,C   9,C   8,H  17)    179.8472         0.028752   
     97. D(C  10,C   9,C   8,C   7)      0.0869         0.028752   
     98. D(H  15,C  10,C   9,H  16)     -0.1064         0.028027   
     99. D(H  15,C  10,C   9,C   8)    179.6630         0.028027   
    100. D(C  11,C  10,C   9,H  16)    179.5676         0.028027   
    101. D(C  11,C  10,C   9,C   8)     -0.6630         0.028027   
    102. D(H  14,C  11,C  10,H  15)      0.4183         0.028187   
    103. D(H  14,C  11,C  10,C   9)   -179.2560         0.028187   
    104. D(C  12,C  11,C  10,H  15)   -179.8955         0.028187   
    105. D(C  12,C  11,C  10,C   9)      0.4302         0.028187   
    106. D(H  13,C  12,C  11,H  14)      0.5325         0.028481   
    107. D(H  13,C  12,C  11,C  10)   -179.1563         0.028481   
    108. D(C   7,C  12,C  11,H  14)   -179.9345         0.028481   
    109. D(C   7,C  12,C  11,C  10)      0.3767         0.028481   
    110. D(H  13,C  12,C   7,C   8)    178.5841         0.026824   
    111. D(H  13,C  12,C   7,O   6)      2.7637         0.026824   
    112. D(C  11,C  12,C   7,C   8)     -0.9518         0.026824   
    113. D(C  11,C  12,C   7,O   6)   -176.7723         0.026824   
    -----------------------------------------------------------------

Number of atoms                         .... 23
Number of degrees of freedom            .... 113


         *************************************************************
         *                GEOMETRY OPTIMIZATION CYCLE   1            *
         *************************************************************
---------------------------------
CARTESIAN COORDINATES (ANGSTROEM)
---------------------------------
  C      1.361651   -0.715731    0.704496
  C      2.610998   -1.308388    0.743918
  C      3.694352   -0.709027    0.123881
  C      3.526386    0.498778   -0.533647
  C      2.282165    1.098525   -0.584216
  C      1.191811    0.488544    0.029362
  O     -0.000016    1.169313    0.000123
  C     -1.191819    0.488518   -0.029253
  C     -2.282286    1.098559    0.584069
  C     -3.526492    0.498796    0.533357
  C     -3.694336   -0.709088   -0.124059
  C     -2.610870   -1.308508   -0.743841
  C     -1.361535   -0.715835   -0.704276
  H     -0.519979   -1.177847   -1.199836
  H     -2.735716   -2.243954   -1.268614
  H     -4.665546   -1.178481   -0.157886
  H     -4.367385    0.976530    1.013296
  H     -2.134639    2.040282    1.089736
  H      2.134421    2.040187   -1.089968
  H      4.367191    0.976460   -1.013791
  H      4.665570   -1.178411    0.157589
  H      2.735946   -2.243773    1.268772
  H      0.520178   -1.177692    1.200247

----------------------------
CARTESIAN COORDINATES (A.U.)
----------------------------
  NO LB      ZA    FRAG     MASS         X           Y           Z
   0 C     6.0000    0    12.011    2.573147   -1.352536    1.331305
   1 C     6.0000    0    12.011    4.934071   -2.472495    1.405802
   2 C     6.0000    0    12.011    6.981313   -1.339867    0.234101
   3 C     6.0000    0    12.011    6.663904    0.942554   -1.008447
   4 C     6.0000    0    12.011    4.312667    2.075912   -1.104008
   5 C     6.0000    0    12.011    2.252196    0.923214    0.055486
   6 O     8.0000    0    15.999   -0.000030    2.209681    0.000232
   7 C     6.0000    0    12.011   -2.252211    0.923166   -0.055281
   8 C     6.0000    0    12.011   -4.312896    2.075976    1.103731
   9 C     6.0000    0    12.011   -6.664104    0.942587    1.007900
  10 C     6.0000    0    12.011   -6.981283   -1.339982   -0.234438
  11 C     6.0000    0    12.011   -4.933829   -2.472723   -1.405656
  12 C     6.0000    0    12.011   -2.572928   -1.352733   -1.330889
  13 H     1.0000    0     1.008   -0.982618   -2.225808   -2.267362
  14 H     1.0000    0     1.008   -5.169754   -4.240458   -2.397332
  15 H     1.0000    0     1.008   -8.816604   -2.227007   -0.298361
  16 H     1.0000    0     1.008   -8.253161    1.845374    1.914852
  17 H     1.0000    0     1.008   -4.033883    3.855574    2.059302
  18 H     1.0000    0     1.008    4.033471    3.855394   -2.059741
  19 H     1.0000    0     1.008    8.252794    1.845243   -1.915788
  20 H     1.0000    0     1.008    8.816650   -2.226875    0.297800
  21 H     1.0000    0     1.008    5.170188   -4.240117    2.397632
  22 H     1.0000    0     1.008    0.982995   -2.225515    2.268139

--------------------------------
INTERNAL COORDINATES (ANGSTROEM)
--------------------------------
 C      0   0   0     0.000000000000     0.00000000     0.00000000
 C      1   0   0     1.383352589345     0.00000000     0.00000000
 C      2   1   0     1.384678780785   120.55687104     0.00000000
 C      3   2   1     1.385405705834   119.67173238     0.43032108
 C      4   3   2     1.382150232840   120.31820361   359.33702249
 C      1   2   3     1.391017769503   119.67018149     0.37662202
 O      6   1   2     1.372863091559   123.06829738   183.22784499
 C      7   6   1     1.372857511999   120.54367535   324.86444026
 C      8   7   6     1.391917417571   116.95829651   148.95192040
 C      9   8   7     1.382148913300   119.92657420   176.79359760
 C     10   9   8     1.385406500592   120.31827826     0.08693668
 C     11  10   9     1.384678138027   119.67155435   359.33701041
 C     12  11  10     1.383352451844   120.55699635     0.43023294
 H     13  12  11     1.080394083524   120.47363643   180.84372530
 H     12  11  10     1.079828800197   120.13704978   180.74404577
 H     11  10   9     1.079223399483   120.20555741   179.66303355
 H     10   9   8     1.079662572552   119.52452660   179.85780287
 H      9   8   7     1.079045911557   118.80239877   357.02741280
 H      5   4   3     1.079045789661   121.27069347   179.84737698
 H      4   3   2     1.079662321403   120.15686048   179.56807978
 H      3   2   1     1.079223613108   120.12197642   180.10505760
 H      2   1   3     1.079828531607   119.30547683   179.68916354
 H      1   2   3     1.080394417255   120.47393183   180.84336770

---------------------------
INTERNAL COORDINATES (A.U.)
---------------------------
 C      0   0   0     0.000000000000     0.00000000     0.00000000
 C      1   0   0     2.614157540512     0.00000000     0.00000000
 C      2   1   0     2.616663679136   120.55687104     0.00000000
 C      3   2   1     2.618037368398   119.67173238     0.43032108
 C      4   3   2     2.611885416003   120.31820361   359.33702249
 C      1   2   3     2.628642631778   119.67018149     0.37662202
 O      6   1   2     2.594335262416   123.06829738   183.22784499
 C      7   6   1     2.594324718574   120.54367535   324.86444026
 C      8   7   6     2.630342720244   116.95829651   148.95192040
 C      9   8   7     2.611882922435   119.92657420   176.79359760
 C     10   9   8     2.618038870273   120.31827826     0.08693668
 C     11  10   9     2.616662464499   119.67155435   359.33701041
 C     12  11  10     2.614157280674   120.55699635     0.43023294
 H     13  12  11     2.041648934570   120.47363643   180.84372530
 H     12  11  10     2.040580703894   120.13704978   180.74404577
 H     11  10   9     2.039436662342   120.20555741   179.66303355
 H     10   9   8     2.040266579168   119.52452660   179.85780287
 H      9   8   7     2.039101258770   118.80239877   357.02741280
 H      5   4   3     2.039101028420   121.27069347   179.84737698
 H      4   3   2     2.040266104565   120.15686048   179.56807978
 H      3   2   1     2.039437066035   120.12197642   180.10505760
 H      2   1   3     2.040580196331   119.30547683   179.68916354
 H      1   2   3     2.041649565230   120.47393183   180.84336770

---------------------
BASIS SET INFORMATION
---------------------
There are 3 groups of distinct atoms

 Group   1 Type C   : 7s4p1d contracted to 3s2p1d pattern {511/31/1}
 Group   2 Type O   : 7s4p1d contracted to 3s2p1d pattern {511/31/1}
 Group   3 Type H   : 4s contracted to 2s pattern {31}

Atom   0C    basis set group =>   1
Atom   1C    basis set group =>   1
Atom   2C    basis set group =>   1
Atom   3C    basis set group =>   1
Atom   4C    basis set group =>   1
Atom   5C    basis set group =>   1
Atom   6O    basis set group =>   2
Atom   7C    basis set group =>   1
Atom   8C    basis set group =>   1
Atom   9C    basis set group =>   1
Atom  10C    basis set group =>   1
Atom  11C    basis set group =>   1
Atom  12C    basis set group =>   1
Atom  13H    basis set group =>   3
Atom  14H    basis set group =>   3
Atom  15H    basis set group =>   3
Atom  16H    basis set group =>   3
Atom  17H    basis set group =>   3
Atom  18H    basis set group =>   3
Atom  19H    basis set group =>   3
Atom  20H    basis set group =>   3
Atom  21H    basis set group =>   3
Atom  22H    basis set group =>   3
---------------------------------
AUXILIARY/J BASIS SET INFORMATION
---------------------------------
There are 3 groups of distinct atoms

 Group   1 Type C   : 12s5p4d2f1g contracted to 6s4p3d1f1g pattern {711111/2111/211/2/1}
 Group   2 Type O   : 12s5p4d2f1g contracted to 6s4p3d1f1g pattern {711111/2111/211/2/1}
 Group   3 Type H   : 5s2p1d contracted to 3s1p1d pattern {311/2/1}

Atom   0C    basis set group =>   1
Atom   1C    basis set group =>   1
Atom   2C    basis set group =>   1
Atom   3C    basis set group =>   1
Atom   4C    basis set group =>   1
Atom   5C    basis set group =>   1
Atom   6O    basis set group =>   2
Atom   7C    basis set group =>   1
Atom   8C    basis set group =>   1
Atom   9C    basis set group =>   1
Atom  10C    basis set group =>   1
Atom  11C    basis set group =>   1
Atom  12C    basis set group =>   1
Atom  13H    basis set group =>   3
Atom  14H    basis set group =>   3
Atom  15H    basis set group =>   3
Atom  16H    basis set group =>   3
Atom  17H    basis set group =>   3
Atom  18H    basis set group =>   3
Atom  19H    basis set group =>   3
Atom  20H    basis set group =>   3
Atom  21H    basis set group =>   3
Atom  22H    basis set group =>   3


           ************************************************************
           *        Program running with 4 parallel MPI-processes     *
           *              working on a common directory               *
           ************************************************************
------------------------------------------------------------------------------
                             ORCA STARTUP CALCULATIONS
                           -- RI-GTO INTEGRALS CHOSEN --
------------------------------------------------------------------------------
------------------------------------------------------------------------------
                   ___                                                        
                  /   \      - P O W E R E D   B Y -                         
                 /     \                                                     
                 |  |  |   _    _      __       _____    __    __             
                 |  |  |  | |  | |    /  \     |  _  \  |  |  /  |          
                  \  \/   | |  | |   /    \    | | | |  |  | /  /          
                 / \  \   | |__| |  /  /\  \   | |_| |  |  |/  /          
                |  |  |   |  __  | /  /__\  \  |    /   |      \           
                |  |  |   | |  | | |   __   |  |    \   |  |\   \          
                \     /   | |  | | |  |  |  |  | |\  \  |  | \   \       
                 \___/    |_|  |_| |__|  |__|  |_| \__\ |__|  \__/        
                                                                              
                      - O R C A' S   B I G   F R I E N D -                    
                                      &                                       
                       - I N T E G R A L  F E E D E R -                       
                                                                              
 v1 FN, 2020, v2 2021, v3 2022-2024                                           
------------------------------------------------------------------------------


----------------------
SHARK INTEGRAL PACKAGE
----------------------

Number of atoms                             ...     23
Number of basis functions                   ...    202
Number of shells                            ...     98
Maximum angular momentum                    ...      2
Integral batch strategy                     ... SHARK/LIBINT Hybrid
RI-J (if used) integral strategy            ... SPLIT-RIJ (Revised 2003 algorithm where possible)
Printlevel                                  ...      1
Contraction scheme used                     ... SEGMENTED contraction
Prescreening option                         ... SCHWARTZ
   Thresh                                   ... 2.500e-11
   Tcut                                     ... 2.500e-12
   Tpresel                                  ... 2.500e-12 
Coulomb Range Separation                    ... NOT USED
Exchange Range Separation                   ... NOT USED
Multipole approximations                    ... NOT USED
Finite Nucleus Model                        ... NOT USED
CABS basis                                  ... NOT available
Auxiliary Coulomb fitting basis             ... AVAILABLE
   # of basis functions in Aux-J            ...    747
   # of shells in Aux-J                     ...    245
   Maximum angular momentum in Aux-J        ...      4
Auxiliary J/K fitting basis                 ... NOT available
Auxiliary Correlation fitting basis         ... NOT available
Auxiliary 'external' fitting basis          ... NOT available

Checking pre-screening integrals            ... done (  0.0 sec) Dimension = 98
Check shell pair data                       ... done (  0.0 sec)
Shell pair information
Shell pair cut-off parameter TPreSel        ...   2.5e-12
Total number of shell pairs                 ...      4851
Shell pairs after pre-screening             ...      4257
Total number of primitive shell pairs       ...     19505
Primitive shell pairs kept                  ...     11565
          la=0 lb=0:   1521 shell pairs
          la=1 lb=0:   1392 shell pairs
          la=1 lb=1:    339 shell pairs
          la=2 lb=0:    627 shell pairs
          la=2 lb=1:    308 shell pairs
          la=2 lb=2:     70 shell pairs

Calculating one electron integrals          ... done (  0.0 sec)
Calculating RI/J V-Matrix + Cholesky decomp.... done (  0.1 sec)
Calculating Nuclear repulsion               ... done (  0.0 sec) ENN=    705.305421262335 Eh

Diagonalization of the overlap matrix:
Smallest eigenvalue                        ... 2.616e-04
Time for diagonalization                   ...    0.004 sec
Threshold for overlap eigenvalues          ... 1.000e-07
Number of eigenvalues below threshold      ... 0
Time for construction of square roots      ...    0.026 sec
Total time needed                          ...    0.091 sec

-------------------
DFT GRID GENERATION
-------------------

General Integration Accuracy     IntAcc      ... 4.388
Radial Grid Type                 RadialGrid  ... OptM3 with GC (2021)
Angular Grid (max. ang.)         AngularGrid ... 4 (Lebedev-302)
Angular grid pruning method      GridPruning ... 4 (adaptive)
Weight generation scheme         WeightScheme... mBecke (2022)
Basis function cutoff            BFCut       ... 1.0000e-11
Integration weight cutoff        WCut        ... 1.0000e-14
Partially contracted basis set               ... off
Rotationally invariant grid construction     ... off
Angular grids for H and He will be reduced by one unit

Total number of grid points                  ...   110110
Total number of batches                      ...     1730
Average number of points per batch           ...       63
Average number of grid points per atom       ...     4787

--------------------
COSX GRID GENERATION
--------------------

GRIDX 1
-------
General Integration Accuracy     IntAcc      ... 3.816
Radial Grid Type                 RadialGrid  ... OptM3 with GC (2021)
Angular Grid (max. ang.)         AngularGrid ... 1 (Lebedev-50)
Angular grid pruning method      GridPruning ... 4 (adaptive)
Weight generation scheme         WeightScheme... mBecke (2022)
Basis function cutoff            BFCut       ... 1.0000e-11
Integration weight cutoff        WCut        ... 1.0000e-14
Partially contracted basis set               ... on
Rotationally invariant grid construction     ... off
Angular grids for H and He will be reduced by one unit

Total number of grid points                  ...    14072
Total number of batches                      ...      119
Average number of points per batch           ...      118
Average number of grid points per atom       ...      612
UseSFitting                                  ... on

GRIDX 2
-------
General Integration Accuracy     IntAcc      ... 4.020
Radial Grid Type                 RadialGrid  ... OptM3 with GC (2021)
Angular Grid (max. ang.)         AngularGrid ... 2 (Lebedev-110)
Angular grid pruning method      GridPruning ... 4 (adaptive)
Weight generation scheme         WeightScheme... mBecke (2022)
Basis function cutoff            BFCut       ... 1.0000e-11
Integration weight cutoff        WCut        ... 1.0000e-14
Partially contracted basis set               ... on
Rotationally invariant grid construction     ... off
Angular grids for H and He will be reduced by one unit

Total number of grid points                  ...    30742
Total number of batches                      ...      255
Average number of points per batch           ...      120
Average number of grid points per atom       ...     1337
UseSFitting                                  ... on

GRIDX 3
-------
General Integration Accuracy     IntAcc      ... 4.338
Radial Grid Type                 RadialGrid  ... OptM3 with GC (2021)
Angular Grid (max. ang.)         AngularGrid ... 3 (Lebedev-194)
Angular grid pruning method      GridPruning ... 4 (adaptive)
Weight generation scheme         WeightScheme... mBecke (2022)
Basis function cutoff            BFCut       ... 1.0000e-11
Integration weight cutoff        WCut        ... 1.0000e-14
Partially contracted basis set               ... on
Rotationally invariant grid construction     ... off
Angular grids for H and He will be reduced by one unit

Total number of grid points                  ...    67412
Total number of batches                      ...      534
Average number of points per batch           ...      126
Average number of grid points per atom       ...     2931
UseSFitting                                  ... on
Initializing property integral containers    ... done (  0.1 sec)

SHARK setup successfully completed in   3.0 seconds

Maximum memory used throughout the entire STARTUP-calculation: 30.5 MB


           ************************************************************
           *        Program running with 4 parallel MPI-processes     *
           *              working on a common directory               *
           ************************************************************
-------------------------------------------------------------------------------
                                 ORCA GUESS
                   Start orbitals & Density for SCF / CASSCF
-------------------------------------------------------------------------------

------------
SCF SETTINGS
------------
Hamiltonian:
 Density Functional     Method          .... DFT(GTOs)
 Exchange Functional    Exchange        .... PBE
   PBE kappa parameter   XKappa         ....  0.804000
   PBE mue parameter    XMuePBE         ....  0.219520
 Correlation Functional Correlation     .... PBE
   PBE beta parameter  CBetaPBE         ....  0.066725
 LDA part of GGA corr.  LDAOpt          .... PW91-LDA
 Gradients option       PostSCFGGA      .... off
 Hybrid DFT is turned on
   Fraction HF Exchange ScalHFX         ....  0.250000
   Scaling of DF-GGA-X  ScalDFX         ....  0.750000
   Scaling of DF-GGA-C  ScalDFC         ....  1.000000
   Scaling of DF-LDA-C  ScalLDAC        ....  1.000000
   Perturbative correction              ....  0.000000
   NL short-range parameter             ....  6.900000
 RI-approximation to the Coulomb term is turned on
   Number of AuxJ basis functions       .... 747
   RIJ-COSX (HFX calculated with COS-X)).... on


General Settings:
 Integral files         IntName         .... cs_rporg_061_red_opt_01
 Hartree-Fock type      HFTyp           .... RHF
 Total Charge           Charge          ....    0
 Multiplicity           Mult            ....    1
 Number of Electrons    NEL             ....   90
 Basis Dimension        Dim             ....  202
 Nuclear Repulsion      ENuc            ....    705.3054212623 Eh

Convergence Acceleration:
 AO-DIIS                CNVDIIS         .... on
   Start iteration      DIISMaxIt       ....     0
   Startup error        DIISStart       ....  0.200000
   # of expansion vecs  DIISMaxEq       ....     5
   Bias factor          DIISBfac        ....   1.050
   Max. coefficient     DIISMaxC        ....  10.000
 MO-DIIS                CNVKDIIS        .... off
 Trust-Rad. Augm. Hess. CNVTRAH         .... auto
   Auto Start mean grad. ratio tolernc. ....  1.125000
   Auto Start start iteration           ....    50
   Auto Start num. interpolation iter.  ....    10
   Max. Number of Micro iterations      ....    24
   Max. Number of Macro iterations      .... Maxiter - #DIIS iter
   Number of Davidson start vectors     ....     2
   Converg. threshold    (grad. norm)   ....   1.000e-05
   Grad. Scal. Fac. for Micro threshold ....   0.100
   Minimum threshold for Micro iter.    ....   1.000e-02
   NR start threshold (gradient norm)   ....   1.000e-04
   Initial trust radius                 ....   0.400
   Minimum AH scaling param. (alpha)    ....   1.000
   Maximum AH scaling param. (alpha)    .... 1000.000
   Quad. conv. algorithm                .... NR
   White noise on init. David. guess    .... on
   Maximum white noise                  ....   0.010
   Pseudo random numbers                .... off
   Inactive MOs                         .... canonical
   Orbital update algorithm             .... Taylor
   Preconditioner                       .... Diag
   Full preconditioner red. dimension   ....   250
 SOSCF                  CNVSOSCF        .... on
   Start iteration      SOSCFMaxIt      ....   150
   Startup grad/error   SOSCFStart      ....  0.001000
   Hessian update       SOSCFHessUp     .... L-BFGS
 Level Shifting         CNVShift        .... on
   Level shift para.    LevelShift      ....    0.2500
   Turn off err/grad.   ShiftErr        ....    0.0000
 Zerner damping         CNVZerner       .... off
 Static damping         CNVDamp         .... on
   Fraction old density DampFac         ....    0.8500
   Max. Damping (<1)    DampMax         ....    0.9800
   Min. Damping (>=0)   DampMin         ....    0.0000
   Turn off err/grad.   DampErr         ....    0.0300

SCF Procedure:
 Maximum # iterations   MaxIter         ....  1500
 SCF integral mode      SCFMode         .... Direct
   Integral package                     .... SHARK and LIBINT hybrid scheme
 Reset frequency        DirectResetFreq ....    20
 Integral Threshold     Thresh          ....  2.500e-11 Eh
 Primitive CutOff       TCut            ....  2.500e-12 Eh

Convergence Tolerance:
 Convergence Check Mode ConvCheckMode   .... Total+1el-Energy
 Convergence forced     ConvForced      .... 0
 Energy Change          TolE            ....  1.000e-08 Eh
 1-El. energy change                    ....  1.000e-05 Eh
 Orbital Gradient       TolG            ....  1.000e-05
 Orbital Rotation angle TolX            ....  1.000e-05
 DIIS Error             TolErr          ....  5.000e-07

------------------------------
INITIAL GUESS: MODEL POTENTIAL
------------------------------
Loading Hartree-Fock densities                     ... done
Calculating cut-offs                               ... done
Initializing the effective Hamiltonian             ... done
Setting up the integral package (SHARK)            ... done
Starting the Coulomb interaction                   ... done (   0.2 sec)
Making the grid                                    ... done (   0.2 sec)
Mapping shells                                     ... done
Starting the XC term evaluation                    ... done (   0.1 sec)
  promolecular density results
     # of electrons  =     89.994677196
     EX              =    -72.517876392
     EC              =     -2.997779792
     EX+EC           =    -75.515656184
Transforming the Hamiltonian                       ... done (   0.0 sec)
Diagonalizing the Hamiltonian                      ... done (   0.0 sec)
Back transforming the eigenvectors                 ... done (   0.0 sec)
Now organizing SCF variables                       ... done
                      ------------------
                      INITIAL GUESS DONE (   0.8 sec)
                      ------------------
             **** ENERGY FILE WAS UPDATED (cs_rporg_061_red_opt_01.en.tmp) ****
Finished Guess after   1.9 sec
Maximum memory used throughout the entire GUESS-calculation: 16.4 MB


           ************************************************************
           *        Program running with 4 parallel MPI-processes     *
           *              working on a common directory               *
           ************************************************************

-------------------------------------------------------------------------------------------
                                      ORCA LEAN-SCF
                              memory conserving SCF solver
-------------------------------------------------------------------------------------------

----------------------------------------D-I-I-S--------------------------------------------
Iteration    Energy (Eh)           Delta-E    RMSDP     MaxDP     DIISErr   Damp  Time(sec)
-------------------------------------------------------------------------------------------
               ***  Starting incremental Fock matrix formation  ***
    1    -537.2286199737762900     0.00e+00  1.74e-03  2.57e-02  1.15e-01  0.850   4.1
    2    -537.2884799807044374    -5.99e-02  1.67e-03  2.33e-02  8.72e-02  0.850   4.7
                               ***Turning on AO-DIIS***
    3    -537.3302181087695999    -4.17e-02  1.10e-03  1.39e-02  6.52e-02  0.850   4.3
    4    -537.3583658824214808    -2.81e-02  8.12e-04  1.03e-02  5.20e-02  0.850   3.0
    5    -537.3790400903186537    -2.07e-02  6.49e-04  8.26e-03  4.20e-02  0.850   3.0
    6    -537.3952606643111949    -1.62e-02  5.41e-04  6.73e-03  3.46e-02  0.850   2.9
    7    -537.4084490491403585    -1.32e-02  4.61e-04  5.69e-03  2.92e-02  0.850   3.0
    8    -537.4193049683289019    -1.09e-02  2.63e-03  3.29e-02  2.51e-02  0.000   2.9
    9    -537.4740630507204742    -5.48e-02  1.30e-04  2.50e-03  2.23e-03  0.000   2.8
   10    -537.4741275976228962    -6.45e-05  4.60e-05  1.13e-03  1.74e-03  0.000   2.7
                              *** Initializing SOSCF ***
---------------------------------------S-O-S-C-F--------------------------------------
Iteration    Energy (Eh)           Delta-E    RMSDP     MaxDP     MaxGrad    Time(sec)
--------------------------------------------------------------------------------------
   11    -537.4741417200795013    -1.41e-05  1.28e-05  2.27e-04  1.87e-04     3.1
               *** Restarting incremental Fock matrix formation ***
   12    -537.4739367843009177     2.05e-04  2.50e-05  4.68e-04  6.70e-05     3.5
   13    -537.4739366680836383     1.16e-07  6.97e-06  2.03e-04  1.14e-04     2.2
   14    -537.4739369137511176    -2.46e-07  2.91e-06  6.52e-05  8.75e-06     2.2
   15    -537.4739369166505867    -2.90e-09  8.81e-07  2.06e-05  1.13e-05     1.9
                 **** Energy Check signals convergence ****

               *****************************************************
               *                     SUCCESS                       *
               *           SCF CONVERGED AFTER  15 CYCLES          *
               *****************************************************

Recomputing exchange energy using gridx3       ... done (    3.022 sec)
Old exchange energy                            :    -18.484109298 Eh
New exchange energy                            :    -18.484179180 Eh
Exchange energy change after final integration :     -0.000069882 Eh
Total energy after final integration           :   -537.474006798 Eh
             **** ENERGY FILE WAS UPDATED (cs_rporg_061_red_opt_01.en.tmp) ****

----------------
TOTAL SCF ENERGY
----------------

Total Energy       :       -537.47400679826092 Eh          -14625.41127 eV

Components:
Nuclear Repulsion  :        705.30542126233479 Eh           19192.33623 eV
Electronic Energy  :      -1242.77935817898538 Eh          -33817.74560 eV
One Electron Energy:      -2125.42183261659011 Eh          -57835.66837 eV
Two Electron Energy:        882.64247443760473 Eh           24017.92278 eV

Virial components:
Potential Energy   :      -1070.27370197164964 Eh          -29123.62805 eV
Kinetic Energy     :        532.79969517338884 Eh           14498.21678 eV
Virial Ratio       :          2.00877311242333

DFT components:
N(Alpha)           :       44.999998104255 electrons
N(Beta)            :       44.999998104255 electrons
N(Total)           :       89.999996208511 electrons
E(X)               :      -55.289293506522 Eh       
E(C)               :       -3.014669461846 Eh       
E(XC)              :      -58.303962968368 Eh       

---------------
SCF CONVERGENCE
---------------

  Last Energy change         ...    2.8995e-09  Tolerance :   1.0000e-08
  Last MAX-Density change    ...    2.0584e-05  Tolerance :   1.0000e-07
  Last RMS-Density change    ...    8.8110e-07  Tolerance :   5.0000e-09
  Last DIIS Error            ...    1.8662e-04  Tolerance :   5.0000e-07
  Last Orbital Gradient      ...    1.1274e-05  Tolerance :   1.0000e-05
  Last Orbital Rotation      ...    1.5043e-05  Tolerance :   1.0000e-05


----------------
ORBITAL ENERGIES
----------------

  NO   OCC          E(Eh)            E(eV) 
   0   2.0000     -19.257273      -524.0170 
   1   2.0000     -10.300978      -280.3039 
   2   2.0000     -10.300960      -280.3034 
   3   2.0000     -10.238863      -278.6136 
   4   2.0000     -10.238859      -278.6135 
   5   2.0000     -10.238068      -278.5920 
   6   2.0000     -10.238065      -278.5919 
   7   2.0000     -10.236115      -278.5388 
   8   2.0000     -10.236082      -278.5379 
   9   2.0000     -10.233777      -278.4752 
  10   2.0000     -10.233770      -278.4750 
  11   2.0000     -10.231910      -278.4244 
  12   2.0000     -10.231905      -278.4243 
  13   2.0000      -1.106428       -30.1074 
  14   2.0000      -0.890083       -24.2204 
  15   2.0000      -0.876170       -23.8418 
  16   2.0000      -0.789245       -21.4764 
  17   2.0000      -0.775000       -21.0888 
  18   2.0000      -0.769585       -20.9415 
  19   2.0000      -0.745879       -20.2964 
  20   2.0000      -0.660103       -17.9623 
  21   2.0000      -0.641219       -17.4485 
  22   2.0000      -0.625336       -17.0163 
  23   2.0000      -0.601488       -16.3673 
  24   2.0000      -0.571497       -15.5512 
  25   2.0000      -0.532603       -14.4929 
  26   2.0000      -0.506753       -13.7895 
  27   2.0000      -0.501263       -13.6400 
  28   2.0000      -0.489960       -13.3325 
  29   2.0000      -0.464619       -12.6429 
  30   2.0000      -0.460633       -12.5345 
  31   2.0000      -0.445491       -12.1224 
  32   2.0000      -0.444646       -12.0994 
  33   2.0000      -0.423291       -11.5183 
  34   2.0000      -0.420834       -11.4515 
  35   2.0000      -0.389779       -10.6064 
  36   2.0000      -0.384953       -10.4751 
  37   2.0000      -0.378944       -10.3116 
  38   2.0000      -0.372814       -10.1448 
  39   2.0000      -0.353532        -9.6201 
  40   2.0000      -0.349818        -9.5190 
  41   2.0000      -0.277461        -7.5501 
  42   2.0000      -0.271665        -7.3924 
  43   2.0000      -0.269795        -7.3415 
  44   2.0000      -0.233946        -6.3660 
  45   0.0000      -0.013304        -0.3620 
  46   0.0000      -0.007597        -0.2067 
  47   0.0000       0.000262         0.0071 
  48   0.0000       0.014016         0.3814 
  49   0.0000       0.072202         1.9647 
  50   0.0000       0.076025         2.0687 
  51   0.0000       0.110799         3.0150 
  52   0.0000       0.114880         3.1260 
  53   0.0000       0.125500         3.4150 
  54   0.0000       0.131747         3.5850 
  55   0.0000       0.155454         4.2301 
*Only the first 10 virtual orbitals were printed.

                    ********************************
                    * MULLIKEN POPULATION ANALYSIS *
                    ********************************

-----------------------
MULLIKEN ATOMIC CHARGES
-----------------------
   0 C :   -0.181359
   1 C :   -0.083271
   2 C :   -0.082793
   3 C :   -0.086438
   4 C :   -0.142279
   5 C :    0.258150
   6 O :   -0.314664
   7 C :    0.258169
   8 C :   -0.142287
   9 C :   -0.086438
  10 C :   -0.082795
  11 C :   -0.083270
  12 C :   -0.181380
  13 H :    0.111195
  14 H :    0.092898
  15 H :    0.089021
  16 H :    0.093869
  17 H :    0.088346
  18 H :    0.088347
  19 H :    0.093870
  20 H :    0.089023
  21 H :    0.092899
  22 H :    0.111188
Sum of atomic charges:    0.0000000

--------------------------------
MULLIKEN REDUCED ORBITAL CHARGES
--------------------------------
  0 C s       :     3.256876  s :     3.256876
      pz      :     0.993386  p :     2.888525
      px      :     0.888672
      py      :     1.006467
      dz2     :     0.003960  d :     0.035958
      dxz     :     0.007334
      dyz     :     0.005738
      dx2y2   :     0.009947
      dxy     :     0.008978

  1 C s       :     3.176819  s :     3.176819
      pz      :     0.965741  p :     2.867743
      px      :     0.977584
      py      :     0.924418
      dz2     :     0.003779  d :     0.038709
      dxz     :     0.007926
      dyz     :     0.006024
      dx2y2   :     0.011662
      dxy     :     0.009318

  2 C s       :     3.171829  s :     3.171829
      pz      :     1.004460  p :     2.873272
      px      :     0.900832
      py      :     0.967980
      dz2     :     0.006304  d :     0.037693
      dxz     :     0.004916
      dyz     :     0.005585
      dx2y2   :     0.009870
      dxy     :     0.011017

  3 C s       :     3.179734  s :     3.179734
      pz      :     0.967044  p :     2.868042
      px      :     0.935324
      py      :     0.965674
      dz2     :     0.004069  d :     0.038661
      dxz     :     0.007773
      dyz     :     0.005822
      dx2y2   :     0.009821
      dxy     :     0.011176

  4 C s       :     3.265739  s :     3.265739
      pz      :     0.983168  p :     2.841000
      px      :     0.963061
      py      :     0.894770
      dz2     :     0.003587  d :     0.035540
      dxz     :     0.007711
      dyz     :     0.005223
      dx2y2   :     0.009941
      dxy     :     0.009078

  5 C s       :     2.922074  s :     2.922074
      pz      :     0.973926  p :     2.745022
      px      :     0.822858
      py      :     0.948238
      dz2     :     0.009358  d :     0.074754
      dxz     :     0.016040
      dyz     :     0.008949
      dx2y2   :     0.018598
      dxy     :     0.021808

  6 O s       :     3.728212  s :     3.728212
      pz      :     1.788671  p :     4.569308
      px      :     1.174399
      py      :     1.606238
      dz2     :     0.002286  d :     0.017144
      dxz     :     0.002703
      dyz     :     0.001928
      dx2y2   :     0.002913
      dxy     :     0.007314

  7 C s       :     2.922066  s :     2.922066
      pz      :     0.973921  p :     2.745010
      px      :     0.822850
      py      :     0.948239
      dz2     :     0.009356  d :     0.074755
      dxz     :     0.016040
      dyz     :     0.008949
      dx2y2   :     0.018599
      dxy     :     0.021810

  8 C s       :     3.265738  s :     3.265738
      pz      :     0.983187  p :     2.841009
      px      :     0.963070
      py      :     0.894752
      dz2     :     0.003586  d :     0.035540
      dxz     :     0.007710
      dyz     :     0.005222
      dx2y2   :     0.009943
      dxy     :     0.009078

  9 C s       :     3.179735  s :     3.179735
      pz      :     0.967056  p :     2.868042
      px      :     0.935314
      py      :     0.965671
      dz2     :     0.004069  d :     0.038662
      dxz     :     0.007771
      dyz     :     0.005822
      dx2y2   :     0.009821
      dxy     :     0.011178

 10 C s       :     3.171827  s :     3.171827
      pz      :     1.004470  p :     2.873276
      px      :     0.900829
      py      :     0.967976
      dz2     :     0.006302  d :     0.037692
      dxz     :     0.004916
      dyz     :     0.005585
      dx2y2   :     0.009871
      dxy     :     0.011018

 11 C s       :     3.176820  s :     3.176820
      pz      :     0.965747  p :     2.867742
      px      :     0.977586
      py      :     0.924409
      dz2     :     0.003778  d :     0.038709
      dxz     :     0.007927
      dyz     :     0.006023
      dx2y2   :     0.011663
      dxy     :     0.009318

 12 C s       :     3.256870  s :     3.256870
      pz      :     0.993419  p :     2.888553
      px      :     0.888670
      py      :     1.006464
      dz2     :     0.003960  d :     0.035957
      dxz     :     0.007332
      dyz     :     0.005738
      dx2y2   :     0.009948
      dxy     :     0.008979

 13 H s       :     0.888805  s :     0.888805

 14 H s       :     0.907102  s :     0.907102

 15 H s       :     0.910979  s :     0.910979

 16 H s       :     0.906131  s :     0.906131

 17 H s       :     0.911654  s :     0.911654

 18 H s       :     0.911653  s :     0.911653

 19 H s       :     0.906130  s :     0.906130

 20 H s       :     0.910977  s :     0.910977

 21 H s       :     0.907101  s :     0.907101

 22 H s       :     0.888812  s :     0.888812



                     *******************************
                     * LOEWDIN POPULATION ANALYSIS *
                     *******************************

----------------------
LOEWDIN ATOMIC CHARGES
----------------------
   0 C :   -0.157405
   1 C :   -0.119016
   2 C :   -0.143877
   3 C :   -0.118619
   4 C :   -0.143958
   5 C :    0.046344
   6 O :   -0.067086
   7 C :    0.046348
   8 C :   -0.143963
   9 C :   -0.118618
  10 C :   -0.143882
  11 C :   -0.119014
  12 C :   -0.157418
  13 H :    0.140248
  14 H :    0.131249
  15 H :    0.129276
  16 H :    0.131413
  17 H :    0.137895
  18 H :    0.137896
  19 H :    0.131413
  20 H :    0.129277
  21 H :    0.131250
  22 H :    0.140248

-------------------------------
LOEWDIN REDUCED ORBITAL CHARGES
-------------------------------
  0 C s       :     2.892316  s :     2.892316
      pz      :     1.031901  p :     3.174530
      px      :     1.080900
      py      :     1.061729
      dz2     :     0.008448  d :     0.090560
      dxz     :     0.016285
      dyz     :     0.014276
      dx2y2   :     0.026428
      dxy     :     0.025123

  1 C s       :     2.887983  s :     2.887983
      pz      :     1.005422  p :     3.134979
      px      :     1.082605
      py      :     1.046952
      dz2     :     0.008362  d :     0.096053
      dxz     :     0.019426
      dyz     :     0.012146
      dx2y2   :     0.030706
      dxy     :     0.025414

  2 C s       :     2.888006  s :     2.888006
      pz      :     1.029976  p :     3.161979
      px      :     1.068351
      py      :     1.063651
      dz2     :     0.012878  d :     0.093892
      dxz     :     0.012242
      dyz     :     0.015015
      dx2y2   :     0.025810
      dxy     :     0.027947

  3 C s       :     2.888763  s :     2.888763
      pz      :     1.003087  p :     3.134293
      px      :     1.071572
      py      :     1.059633
      dz2     :     0.008789  d :     0.095563
      dxz     :     0.017049
      dyz     :     0.014021
      dx2y2   :     0.026145
      dxy     :     0.029560

  4 C s       :     2.894063  s :     2.894063
      pz      :     1.025728  p :     3.160194
      px      :     1.074475
      py      :     1.059991
      dz2     :     0.007799  d :     0.089702
      dxz     :     0.019006
      dyz     :     0.010627
      dx2y2   :     0.027106
      dxy     :     0.025163

  5 C s       :     2.835828  s :     2.835828
      pz      :     1.010876  p :     2.944562
      px      :     0.900799
      py      :     1.032888
      dz2     :     0.019671  d :     0.173267
      dxz     :     0.035304
      dyz     :     0.021286
      dx2y2   :     0.043899
      dxy     :     0.053107

  6 O s       :     3.417701  s :     3.417701
      pz      :     1.761380  p :     4.616875
      px      :     1.230711
      py      :     1.624784
      dz2     :     0.003803  d :     0.032510
      dxz     :     0.005241
      dyz     :     0.002175
      dx2y2   :     0.006740
      dxy     :     0.014551

  7 C s       :     2.835826  s :     2.835826
      pz      :     1.010850  p :     2.944558
      px      :     0.900810
      py      :     1.032898
      dz2     :     0.019667  d :     0.173268
      dxz     :     0.035301
      dyz     :     0.021285
      dx2y2   :     0.043903
      dxy     :     0.053112

  8 C s       :     2.894061  s :     2.894061
      pz      :     1.025729  p :     3.160201
      px      :     1.074475
      py      :     1.059996
      dz2     :     0.007797  d :     0.089701
      dxz     :     0.019004
      dyz     :     0.010624
      dx2y2   :     0.027110
      dxy     :     0.025166

  9 C s       :     2.888763  s :     2.888763
      pz      :     1.003071  p :     3.134292
      px      :     1.071576
      py      :     1.059644
      dz2     :     0.008789  d :     0.095564
      dxz     :     0.017044
      dyz     :     0.014020
      dx2y2   :     0.026148
      dxy     :     0.029564

 10 C s       :     2.888005  s :     2.888005
      pz      :     1.029968  p :     3.161985
      px      :     1.068356
      py      :     1.063660
      dz2     :     0.012874  d :     0.093892
      dxz     :     0.012240
      dyz     :     0.015013
      dx2y2   :     0.025814
      dxy     :     0.027952

 11 C s       :     2.887982  s :     2.887982
      pz      :     1.005404  p :     3.134978
      px      :     1.082613
      py      :     1.046960
      dz2     :     0.008360  d :     0.096054
      dxz     :     0.019424
      dyz     :     0.012143
      dx2y2   :     0.030711
      dxy     :     0.025417

 12 C s       :     2.892313  s :     2.892313
      pz      :     1.031905  p :     3.174545
      px      :     1.080905
      py      :     1.061735
      dz2     :     0.008447  d :     0.090560
      dxz     :     0.016280
      dyz     :     0.014275
      dx2y2   :     0.026432
      dxy     :     0.025126

 13 H s       :     0.859752  s :     0.859752

 14 H s       :     0.868751  s :     0.868751

 15 H s       :     0.870724  s :     0.870724

 16 H s       :     0.868587  s :     0.868587

 17 H s       :     0.862105  s :     0.862105

 18 H s       :     0.862104  s :     0.862104

 19 H s       :     0.868587  s :     0.868587

 20 H s       :     0.870723  s :     0.870723

 21 H s       :     0.868750  s :     0.868750

 22 H s       :     0.859752  s :     0.859752



                      *****************************
                      * MAYER POPULATION ANALYSIS *
                      *****************************

  NA   - Mulliken gross atomic population
  ZA   - Total nuclear charge
  QA   - Mulliken gross atomic charge
  VA   - Mayer's total valence
  BVA  - Mayer's bonded valence
  FA   - Mayer's free valence

  ATOM       NA         ZA         QA         VA         BVA        FA
  0 C      6.1814     6.0000    -0.1814     3.8283     3.8283     0.0000
  1 C      6.0833     6.0000    -0.0833     3.8441     3.8441    -0.0000
  2 C      6.0828     6.0000    -0.0828     3.8190     3.8190     0.0000
  3 C      6.0864     6.0000    -0.0864     3.8292     3.8292     0.0000
  4 C      6.1423     6.0000    -0.1423     3.8464     3.8464     0.0000
  5 C      5.7419     6.0000     0.2581     3.9153     3.9153    -0.0000
  6 O      8.3147     8.0000    -0.3147     2.1693     2.1693     0.0000
  7 C      5.7418     6.0000     0.2582     3.9153     3.9153    -0.0000
  8 C      6.1423     6.0000    -0.1423     3.8464     3.8464    -0.0000
  9 C      6.0864     6.0000    -0.0864     3.8292     3.8292     0.0000
 10 C      6.0828     6.0000    -0.0828     3.8190     3.8190     0.0000
 11 C      6.0833     6.0000    -0.0833     3.8441     3.8441     0.0000
 12 C      6.1814     6.0000    -0.1814     3.8282     3.8282    -0.0000
 13 H      0.8888     1.0000     0.1112     0.9574     0.9574     0.0000
 14 H      0.9071     1.0000     0.0929     0.9509     0.9509     0.0000
 15 H      0.9110     1.0000     0.0890     0.9510     0.9510     0.0000
 16 H      0.9061     1.0000     0.0939     0.9505     0.9505     0.0000
 17 H      0.9117     1.0000     0.0883     0.9655     0.9655     0.0000
 18 H      0.9117     1.0000     0.0883     0.9655     0.9655     0.0000
 19 H      0.9061     1.0000     0.0939     0.9505     0.9505     0.0000
 20 H      0.9110     1.0000     0.0890     0.9510     0.9510     0.0000
 21 H      0.9071     1.0000     0.0929     0.9509     0.9509    -0.0000
 22 H      0.8888     1.0000     0.1112     0.9574     0.9574     0.0000

  Mayer bond orders larger than 0.100000
B(  0-C ,  1-C ) :   1.3789 B(  0-C ,  5-C ) :   1.3575 B(  0-C , 22-H ) :   0.9563 
B(  1-C ,  2-C ) :   1.3899 B(  1-C , 21-H ) :   0.9655 B(  2-C ,  3-C ) :   1.3855 
B(  2-C , 20-H ) :   0.9702 B(  3-C ,  4-C ) :   1.3778 B(  3-C , 19-H ) :   0.9668 
B(  4-C ,  5-C ) :   1.3970 B(  4-C , 18-H ) :   0.9691 B(  5-C ,  6-O ) :   1.0113 
B(  6-O ,  7-C ) :   1.0114 B(  7-C ,  8-C ) :   1.3970 B(  7-C , 12-C ) :   1.3575 
B(  8-C ,  9-C ) :   1.3778 B(  8-C , 17-H ) :   0.9691 B(  9-C , 10-C ) :   1.3855 
B(  9-C , 16-H ) :   0.9668 B( 10-C , 11-C ) :   1.3899 B( 10-C , 15-H ) :   0.9702 
B( 11-C , 12-C ) :   1.3789 B( 11-C , 14-H ) :   0.9655 B( 12-C , 13-H ) :   0.9563 


-------
TIMINGS
-------

Total SCF time: 0 days 0 hours 0 min 51 sec 

Total time                  ....      51.412 sec
Sum of individual times     ....      49.807 sec  ( 96.9%)

SCF preparation             ....       1.194 sec  (  2.3%)
Fock matrix formation       ....      36.056 sec  ( 70.1%)
  Startup                   ....       2.161 sec  (  6.0% of F)
  Split-RI-J                ....       5.710 sec  ( 15.8% of F)
  Chain of spheres X        ....      17.921 sec  ( 49.7% of F)
  XC integration            ....       6.751 sec  ( 18.7% of F)
    XC Preparation          ....       0.000 sec  (  0.0% of XC)
    Basis function eval.    ....       1.427 sec  ( 21.1% of XC)
    Density eval.           ....       0.734 sec  ( 10.9% of XC)
    XC-Functional eval.     ....       0.336 sec  (  5.0% of XC)
    XC-Potential eval.      ....       0.941 sec  ( 13.9% of XC)
Diagonalization             ....       0.000 sec  (  0.0%)
Density matrix formation    ....       4.078 sec  (  7.9%)
Total Energy calculation    ....       1.319 sec  (  2.6%)
Population analysis         ....       0.268 sec  (  0.5%)
Orbital Transformation      ....       0.398 sec  (  0.8%)
Orbital Orthonormalization  ....       0.000 sec  (  0.0%)
DIIS solution               ....       5.789 sec  ( 11.3%)
SOSCF solution              ....       0.705 sec  (  1.4%)
Finished LeanSCF after  51.6 sec

Maximum memory used throughout the entire LEANSCF-calculation: 23.5 MB


           ************************************************************
           *        Program running with 4 parallel MPI-processes     *
           *              working on a common directory               *
           ************************************************************

------------------------------------------------------------------------------
                         ORCA PROPERTY INTEGRAL CALCULATIONS
------------------------------------------------------------------------------

GBWName                                   ... cs_rporg_061_red_opt_01.gbw
Number of atoms                           ...     23
Number of basis functions                 ...    202
Max core memory                           ...   3000 MB

Dipole integrals                          ... YES
Quadrupole integrals                      ...  NO
Linear momentum integrals                 ...  NO
Angular momentum integrals                ...  NO
Higher moments length integrals           ...  NO
Higher moments velocity integrals         ...  NO
Kinetic energy integrals                  ...  NO
GIAO right hand sides                     ...  NO
GIAO dipole derivative integrals          ...  NO
SOC integrals                             ...  NO
EPR diamagnetic integrals (GIAO)          ...  NO
EPR gauge integrals                       ...  NO
Field gradient integrals                  ...  NO (   0 nuclei)
Spin-dipole/Fermi contact integrals       ...  NO (   0 nuclei)
Contact density integrals                 ...  NO (   0 nuclei)
Nucleus-orbit integrals                   ...  NO (   0 nuclei)
Geometric perturbations                   ...  NO (  23 nuclei)

Choice of electric origin   ... Center of mass
Position of electric origin ... (  0.0000, -0.0004, -0.0000) 
Choice of magnetic origin   ... GIAO
Position of magnetic origin ... (  0.0000,  0.0000,  0.0000) 

Calculating integrals                     ... Electric Dipole (Length)     done (  0.0 sec)

Property integrals calculated in   0.0 sec

Maximum memory used throughout the entire PROPINT-calculation: 12.0 MB


-------------------------------------------------------------------------------
                          DFT DISPERSION CORRECTION                            
                                                                               
                              DFTD3 V3.1  Rev 1                                
                          USING Becke-Johnson damping                          
-------------------------------------------------------------------------------
The PBE0 functional is recognized
Active option DFTDOPT                   ...         4   

molecular C6(AA) [au] = 6544.559858 


            DFT-D V3
 parameters
 s6 scaling factor         :     1.0000 
 a1 scaling factor         :     0.4145 
 s8 scaling factor         :     1.2177 
 a2 scaling factor         :     4.8593 
 ad hoc parameters k1-k3   :    16.0000     1.3333    -4.0000 

 Edisp/kcal,au: -14.845842904566  -0.023658354072 
 E6   /kcal   :  -9.250218915 
 E8   /kcal   :  -5.595623990 
 % E8         :  37.691520957 

-------------------------   ----------------
Dispersion correction           -0.023658354
-------------------------   ----------------


-------------------------   --------------------
FINAL SINGLE POINT ENERGY      -537.497665152333
-------------------------   --------------------



           ************************************************************
           *        Program running with 4 parallel MPI-processes     *
           *              working on a common directory               *
           ************************************************************
------------------------------------------------------------------------------
                         ORCA SCF GRADIENT CALCULATION
------------------------------------------------------------------------------

Nuc. rep. gradient        (SHARK) ... done (  0.0 sec)
HCore & Overlap gradient  (SHARK) ... done (  0.2 sec)
Split-RIJ-J gradient      (SHARK) ... done (  0.7 sec)
COSX-gradient                     ... done (  9.4 sec)
XC gradient                       ... done (  2.1 sec)
Dispersion correction             ... done (  0.0 sec)

-------------------
DISPERSION GRADIENT
-------------------

   1   C   :    0.000176874   -0.000140145    0.000172233
   2   C   :    0.000215559   -0.000210107    0.000143637
   3   C   :    0.000248708   -0.000088279    0.000015265
   4   C   :    0.000252409    0.000085632   -0.000084260
   5   C   :    0.000232943    0.000229492   -0.000106508
   6   C   :    0.000156168    0.000120558    0.000005657
   7   O   :   -0.000000003    0.000209514    0.000000023
   8   C   :   -0.000156180    0.000120554   -0.000005630
   9   C   :   -0.000232946    0.000229486    0.000106476
  10   C   :   -0.000252408    0.000085632    0.000084218
  11   C   :   -0.000248695   -0.000088285   -0.000015286
  12   C   :   -0.000215539   -0.000210130   -0.000143623
  13   C   :   -0.000176884   -0.000140177   -0.000172189
  14   H   :   -0.000031541   -0.000125541   -0.000148261
  15   H   :   -0.000049311   -0.000142011   -0.000084771
  16   H   :   -0.000140884   -0.000065159   -0.000005410
  17   H   :   -0.000127437    0.000066209    0.000066882
  18   H   :   -0.000053440    0.000164613    0.000088906
  19   H   :    0.000053434    0.000164613   -0.000088928
  20   H   :    0.000127427    0.000066203   -0.000066911
  21   H   :    0.000140887   -0.000065157    0.000005394
  22   H   :    0.000049325   -0.000142000    0.000084783
  23   H   :    0.000031534   -0.000125514    0.000148302

Difference to translation invariance:
           :   -0.0000000000   -0.0000000000   -0.0000000000

Difference to rotation invariance:
           :    0.0000000000   -0.0000000000   -0.0000000000

Norm of the Dispersion gradient    ...    0.0011615717
RMS gradient                       ...    0.0001398368
MAX gradient                       ...    0.0002524088

------------------
CARTESIAN GRADIENT
------------------

   1   C   :    0.003311529   -0.002747338    0.000063625
   2   C   :   -0.000114780   -0.001149953    0.001203822
   3   C   :   -0.001408147    0.000541921   -0.000040823
   4   C   :    0.000973551    0.001221911   -0.000870026
   5   C   :    0.005419979    0.000762964   -0.000941399
   6   C   :    0.005956184   -0.006793406   -0.000377217
   7   O   :   -0.000001665    0.008479199    0.000000827
   8   C   :   -0.005954261   -0.006792976    0.000376139
   9   C   :   -0.005420668    0.000762912    0.000940601
  10   C   :   -0.000973860    0.001222094    0.000869375
  11   C   :    0.001408420    0.000542803    0.000042153
  12   C   :    0.000115603   -0.001150867   -0.001204195
  13   C   :   -0.003312247   -0.002746465   -0.000063347
  14   H   :   -0.006834611    0.003889303    0.004251719
  15   H   :    0.001127325    0.008866146    0.005114978
  16   H   :    0.009445346    0.004500938    0.000343283
  17   H   :    0.008057613   -0.004681447   -0.004633805
  18   H   :   -0.001972430   -0.008651209   -0.004702556
  19   H   :    0.001973075   -0.008650620    0.004703231
  20   H   :   -0.008057149   -0.004681193    0.004635521
  21   H   :   -0.009445436    0.004500769   -0.000342458
  22   H   :   -0.001128050    0.008865584   -0.005116036
  23   H   :    0.006834678    0.003888930   -0.004253412

Difference to translation invariance:
           :   -0.0000000000    0.0000000001    0.0000000000

Difference to rotation invariance:
           :   -0.0000002309   -0.0001020384    0.0000003352

Norm of the Cartesian gradient     ...    0.0368795607
RMS gradient                       ...    0.0044397774
MAX gradient                       ...    0.0094454362

-------
TIMINGS
-------

Total SCF gradient time     ....       12.344 sec

Densities                   ....       0.001 sec  (  0.0%)
One electron gradient       ....       0.158 sec  (  1.3%)
RI-J Coulomb gradient       ....       0.665 sec  (  5.4%)
COSX gradient               ....       9.376 sec  ( 76.0%)
XC gradient                 ....       2.076 sec  ( 16.8%)

Maximum memory used throughout the entire SCFGRAD-calculation: 31.6 MB
------------------------------------------------------------------------------
                         ORCA GEOMETRY RELAXATION STEP
------------------------------------------------------------------------------

Reading the OPT-File                    .... done
Getting information on internals        .... done
Copying old internal coords+grads       .... done
Making the new internal coordinates     .... (2022 redundants) done
Validating the new internal coordinates .... (2022 redundants) done
Calculating the B-matrix                .... done
Calculating the G,G- and P matrices     .... done
Transforming gradient to internals      .... done
Projecting the internal gradient        .... done
Number of atoms                         ....  23
Number of internal coordinates          .... 113
Current Energy                          ....  -537.497665152 Eh
Current gradient norm                   ....     0.036879561 Eh/bohr
Maximum allowed component of the step   ....  0.300
Current trust radius                    ....  0.300
Evaluating the initial hessian          ....  (Almloef) done
Projecting the Hessian                  .... done
Forming the augmented Hessian           .... done
Diagonalizing the augmented Hessian     .... done
Last element of RFO vector              ....  0.986528766
Lowest eigenvalues of augmented Hessian:
 -0.005003197  0.025917710  0.026444268  0.026778214  0.026780310
Length of the computed step             ....  0.165821699
The final length of the internal step   ....  0.165821699
Converting the step to Cartesian space:
 Initial RMS(Int)=    0.0155991932
Transforming coordinates:
 Iter   0:  RMS(Cart)=    0.1018320310 RMS(Int)=    1.1819042773
 Iter   5:  RMS(Cart)=    0.0000000400 RMS(Int)=    0.0000000144
done
Storing new coordinates                 .... done

                                .--------------------.
          ----------------------|Geometry convergence|-------------------------
          Item                value                   Tolerance       Converged
          ---------------------------------------------------------------------
          RMS gradient        0.0043517646            0.0001000000      NO
          MAX gradient        0.0106960964            0.0003000000      NO
          RMS step            0.0155991932            0.0020000000      NO
          MAX step            0.0676223905            0.0040000000      NO
          ........................................................
          Max(Bonds)      0.0146      Max(Angles)    0.84
          Max(Dihed)        3.87      Max(Improp)    0.00
          ---------------------------------------------------------------------

The optimization has not yet converged - more geometry cycles are needed


    ---------------------------------------------------------------------------
                         Redundant Internal Coordinates
                            (Angstroem and degrees)

        Definition                    Value    dE/dq     Step     New-Value
[...]
     58       0.007590   0.124302  -0.128280
     59      -0.010256  -0.150963   0.155865
     60      -0.197095   0.229106  -0.237147
     61       0.094100  -0.111869   0.115764
     62      -0.007553   0.010354  -0.010722
     63      -0.038066   0.018573  -0.019557
     64       0.254300  -0.131656   0.138337
     65      -0.163685   0.085115  -0.089439
     66       0.387274  -0.101608   0.109239
     67       0.198309  -0.052373   0.056166
     68      -0.250953   0.065951  -0.070842


-----------
IR SPECTRUM
-----------

 Mode   freq       eps      Int      T**2         TX        TY        TZ
       cm**-1   L/(mol*cm) km/mol    a.u.
----------------------------------------------------------------------------
  6:     22.25   0.000291    1.47  0.004083  ( 0.056546 -0.000003 -0.029749)
  7:     45.24   0.000030    0.15  0.000206  (-0.000007 -0.014369  0.000004)
  8:     91.00   0.000028    0.14  0.000097  (-0.000003 -0.009853 -0.000001)
  9:    222.19   0.000221    1.12  0.000310  ( 0.017386 -0.000001  0.002822)
 10:    242.39   0.000019    0.10  0.000024  (-0.000003 -0.004941  0.000001)
 11:    319.94   0.000057    0.29  0.000055  ( 0.000000  0.007441  0.000001)
 12:    391.62   0.000947    4.78  0.000754  (-0.025704 -0.000002  0.009686)
 13:    424.60   0.000091    0.46  0.000067  (-0.007967  0.000001 -0.001825)
 14:    429.66   0.000013    0.06  0.000009  ( 0.000002  0.003029  0.000001)
 15:    495.76   0.001350    6.82  0.000850  ( 0.000005  0.029152  0.000002)
 16:    521.09   0.003566   18.02  0.002136  ( 0.033662 -0.000000  0.031664)
 17:    577.27   0.000081    0.41  0.000044  (-0.004014 -0.000000 -0.005241)
 18:    615.92   0.000012    0.06  0.000006  (-0.000003 -0.002422 -0.000002)
 19:    628.33   0.000113    0.57  0.000056  ( 0.005467 -0.000001 -0.005110)
 20:    638.90   0.000076    0.38  0.000037  ( 0.000000 -0.006092 -0.000002)
 21:    717.07   0.007935   40.10  0.003453  ( 0.025707  0.000020  0.052843)
 22:    719.67   0.003395   17.16  0.001472  (-0.000008  0.038370 -0.000022)
 23:    773.48   0.001106    5.59  0.000446  (-0.000002 -0.021122  0.000003)
 24:    778.35   0.012131   61.30  0.004864  (-0.003518  0.000002 -0.069650)
 25:    820.00   0.003181   16.08  0.001211  ( 0.000001  0.034793  0.000005)
 26:    847.63   0.000054    0.27  0.000020  ( 0.003080  0.000002  0.003246)
 27:    851.56   0.000096    0.49  0.000035  ( 0.000000  0.005946 -0.000001)
 28:    901.46   0.005940   30.02  0.002056  (-0.045330 -0.000001  0.001119)
 29:    928.65   0.001684    8.51  0.000566  ( 0.011065 -0.000006  0.021059)
 30:    934.44   0.000753    3.80  0.000251  ( 0.000007  0.015853  0.000009)
 31:    990.66   0.000039    0.20  0.000012  (-0.003237  0.000002  0.001357)
 32:    992.15   0.000009    0.05  0.000003  ( 0.000003  0.001722 -0.000002)
 33:   1014.35   0.000036    0.18  0.000011  (-0.000693  0.000001  0.003243)
 34:   1014.87   0.000012    0.06  0.000004  (-0.000003  0.001903 -0.000003)
 35:   1019.10   0.000579    2.93  0.000177  ( 0.013309  0.000026  0.000520)
 36:   1019.12   0.000011    0.05  0.000003  (-0.000183  0.001797 -0.000007)
 37:   1057.49   0.000150    0.76  0.000044  ( 0.000391 -0.006649  0.000013)
 38:   1057.71   0.001894    9.57  0.000559  ( 0.023625  0.000111  0.000805)
 39:   1101.28   0.001566    7.91  0.000444  ( 0.007062  0.000023 -0.019848)
 40:   1104.14   0.002043   10.33  0.000578  (-0.000007  0.024032  0.000018)
 41:   1169.28   0.000042    0.21  0.000011  (-0.002139 -0.000028 -0.002559)
 42:   1169.41   0.000097    0.49  0.000026  (-0.000012  0.005095 -0.000013)
 43:   1179.78   0.000255    1.29  0.000067  ( 0.000026 -0.008210 -0.000004)
 44:   1180.96   0.001410    7.12  0.000373  ( 0.019164  0.000013 -0.002294)
 45:   1258.92   0.001103    5.57  0.000273  ( 0.000008  0.016534  0.000002)
 46:   1325.22   0.000977    4.94  0.000230  ( 0.015023 -0.000001  0.002071)
 47:   1337.09   0.093251  471.25  0.021764  (-0.147417 -0.000004 -0.005660)
 48:   1337.66   0.000144    0.73  0.000034  (-0.000038  0.005803 -0.000001)
 49:   1399.67   0.003334   16.85  0.000743  ( 0.026867 -0.000001 -0.004633)
 50:   1409.11   0.000042    0.21  0.000009  ( 0.000007 -0.003060 -0.000001)
 51:   1501.06   0.000185    0.94  0.000039  (-0.002149  0.000000 -0.005826)
 52:   1509.41   0.000263    1.33  0.000054  ( 0.000000 -0.007369  0.000001)
 53:   1544.64   0.073013  368.98  0.014751  (-0.121302  0.000001 -0.006060)
 54:   1549.74   0.002997   15.15  0.000604  (-0.000015 -0.024567 -0.000002)
 55:   1674.70   0.001269    6.41  0.000236  ( 0.000806  0.000003  0.015354)
 56:   1683.86   0.002197   11.10  0.000407  (-0.000015  0.020176 -0.000001)
 57:   1686.00   0.034720  175.46  0.006426  ( 0.080160  0.000006  0.000897)
 58:   1704.10   0.000564    2.85  0.000103  ( 0.000004  0.010161  0.000001)
 59:   3196.83   0.000626    3.16  0.000061  ( 0.007629 -0.000018  0.001694)
 60:   3197.02   0.000068    0.35  0.000007  ( 0.000059  0.002581  0.000015)
 61:   3205.33   0.001152    5.82  0.000112  (-0.004136 -0.000152  0.009747)
 62:   3205.48   0.001533    7.75  0.000149  (-0.000053  0.012217  0.000120)
 63:   3217.81   0.005058   25.56  0.000491  ( 0.022141 -0.000013 -0.000542)
 64:   3218.29   0.000584    2.95  0.000057  ( 0.000045  0.007523  0.000002)
 65:   3223.91   0.000554    2.80  0.000054  (-0.003007  0.000007 -0.006680)
 66:   3224.38   0.000918    4.64  0.000089  ( 0.000007 -0.009427 -0.000007)
 67:   3228.58   0.000775    3.92  0.000075  (-0.007965  0.000036  0.003390)
 68:   3228.69   0.000066    0.33  0.000006  ( 0.000126  0.002520 -0.000059)

* The epsilon (eps) is given for a Dirac delta lineshape.
** The dipole moment derivative (T) already includes vibrational overlap.

The first frequency considered to be a vibration is 6
The total number of vibrations considered is 63


--------------------------
THERMOCHEMISTRY AT 298.15K
--------------------------

Temperature         ...   298.15 K
Pressure            ...     1.00 atm
Total Mass          ...   170.21 AMU
Quasi RRHO          ...     True
Cut-Off Frequency   ...     1.00 cm^-1

Throughout the following assumptions are being made:
  (1) The electronic state is orbitally nondegenerate
  (2) There are no thermally accessible electronically excited states
  (3) Hindered rotations indicated by low frequency modes are not
      treated as such but are treated as vibrations and this may
      cause some error
  (4) All equations used are the standard statistical mechanics
      equations for an ideal gas
  (5) All vibrations are strictly harmonic

freq.      22.25  E(vib)   ...       0.56 
freq.      45.24  E(vib)   ...       0.53 
freq.      91.00  E(vib)   ...       0.47 
freq.     222.19  E(vib)   ...       0.33 
freq.     242.39  E(vib)   ...       0.31 
freq.     319.94  E(vib)   ...       0.25 
freq.     391.62  E(vib)   ...       0.20 
freq.     424.60  E(vib)   ...       0.18 
freq.     429.66  E(vib)   ...       0.18 
freq.     495.76  E(vib)   ...       0.14 
freq.     521.09  E(vib)   ...       0.13 
freq.     577.27  E(vib)   ...       0.11 
freq.     615.92  E(vib)   ...       0.10 
freq.     628.33  E(vib)   ...       0.09 
freq.     638.90  E(vib)   ...       0.09 
freq.     717.07  E(vib)   ...       0.07 
freq.     719.67  E(vib)   ...       0.07 
freq.     773.48  E(vib)   ...       0.05 
freq.     778.35  E(vib)   ...       0.05 
freq.     820.00  E(vib)   ...       0.05 
freq.     847.63  E(vib)   ...       0.04 
freq.     851.56  E(vib)   ...       0.04 
freq.     901.46  E(vib)   ...       0.03 
freq.     928.65  E(vib)   ...       0.03 
freq.     934.44  E(vib)   ...       0.03 
freq.     990.66  E(vib)   ...       0.02 
freq.     992.15  E(vib)   ...       0.02 
freq.    1014.35  E(vib)   ...       0.02 
freq.    1014.87  E(vib)   ...       0.02 
freq.    1019.10  E(vib)   ...       0.02 
freq.    1019.12  E(vib)   ...       0.02 
freq.    1057.49  E(vib)   ...       0.02 
freq.    1057.71  E(vib)   ...       0.02 
freq.    1101.28  E(vib)   ...       0.02 
freq.    1104.14  E(vib)   ...       0.02 
freq.    1169.28  E(vib)   ...       0.01 
freq.    1169.41  E(vib)   ...       0.01 
freq.    1179.78  E(vib)   ...       0.01 
freq.    1180.96  E(vib)   ...       0.01 
freq.    1258.92  E(vib)   ...       0.01 
freq.    1325.22  E(vib)   ...       0.01 
freq.    1337.09  E(vib)   ...       0.01 
freq.    1337.66  E(vib)   ...       0.01 
freq.    1399.67  E(vib)   ...       0.00 
freq.    1409.11  E(vib)   ...       0.00 
freq.    1501.06  E(vib)   ...       0.00 
freq.    1509.41  E(vib)   ...       0.00 
freq.    1544.64  E(vib)   ...       0.00 
freq.    1549.74  E(vib)   ...       0.00 
freq.    1674.70  E(vib)   ...       0.00 
freq.    1683.86  E(vib)   ...       0.00 
freq.    1686.00  E(vib)   ...       0.00 
freq.    1704.10  E(vib)   ...       0.00 
freq.    3196.83  E(vib)   ...       0.00 
freq.    3197.02  E(vib)   ...       0.00 
freq.    3205.33  E(vib)   ...       0.00 
freq.    3205.48  E(vib)   ...       0.00 
freq.    3217.81  E(vib)   ...       0.00 
freq.    3218.29  E(vib)   ...       0.00 
freq.    3223.91  E(vib)   ...       0.00 
freq.    3224.38  E(vib)   ...       0.00 
freq.    3228.58  E(vib)   ...       0.00 
freq.    3228.69  E(vib)   ...       0.00 

------------
INNER ENERGY
------------

The inner energy is: U= E(el) + E(ZPE) + E(vib) + E(rot) + E(trans)
    E(el)   - is the total energy from the electronic structure calculation
              = E(kin-el) + E(nuc-el) + E(el-el) + E(nuc-nuc)
    E(ZPE)  - the the zero temperature vibrational energy from the frequency calculation
    E(vib)  - the the finite temperature correction to E(ZPE) due to population
              of excited vibrational states
    E(rot)  - is the rotational thermal energy
    E(trans)- is the translational thermal energy

Summary of contributions to the inner energy U:
Electronic energy                ...   -537.50033938 Eh
Zero point energy                ...      0.18698353 Eh     117.33 kcal/mol
Thermal vibrational correction   ...      0.00705777 Eh       4.43 kcal/mol
Thermal rotational correction    ...      0.00141627 Eh       0.89 kcal/mol
Thermal translational correction ...      0.00141627 Eh       0.89 kcal/mol
-----------------------------------------------------------------------
Total thermal energy                   -537.30346554 Eh


Summary of corrections to the electronic energy:
(perhaps to be used in another calculation)
Total thermal correction                  0.00989031 Eh       6.21 kcal/mol
Non-thermal (ZPE) correction              0.18698353 Eh     117.33 kcal/mol
-----------------------------------------------------------------------
Total correction                          0.19687384 Eh     123.54 kcal/mol


--------
ENTHALPY
--------

The enthalpy is H = U + kB*T
                kB is Boltzmann's constant
Total thermal energy              ...   -537.30346554 Eh 
Thermal Enthalpy correction       ...      0.00094421 Eh       0.59 kcal/mol
-----------------------------------------------------------------------
Total Enthalpy                    ...   -537.30252133 Eh


Note: Only C1 symmetry has been detected, increase convergence thresholds 
      if your molecule has a higher symmetry. Symmetry factor of 1.0 is   
      used for the rotational entropy correction. 
 

Note: Rotational entropy computed according to Herzberg 
Infrared and Raman Spectra, Chapter V,1, Van Nostrand Reinhold, 1945 
Point Group:  C1, Symmetry Number:   1  
Rotational constants in cm-1:     0.080234     0.014509     0.013552 

Vibrational entropy computed according to the QRRHO of S. Grimme
Chem.Eur.J. 2012 18 9955 using a reference frequency of 100.0 cm-1


-------
ENTROPY
-------

The entropy contributions are T*S = T*(S(el)+S(vib)+S(rot)+S(trans))
     S(el)   - electronic entropy
     S(vib)  - vibrational entropy
     S(rot)  - rotational entropy
     S(trans)- translational entropy
The entropies will be listed as multiplied by the temperature to get
units of energy

Electronic entropy                ...      0.00000000 Eh      0.00 kcal/mol
Vibrational entropy               ...      0.01197202 Eh      7.51 kcal/mol
Rotational entropy                ...      0.01473072 Eh      9.24 kcal/mol
Translational entropy             ...      0.01962451 Eh     12.31 kcal/mol
-----------------------------------------------------------------------
Final entropy term                ...      0.04632726 Eh     29.07 kcal/mol

In case the symmetry of your molecule has not been determined correctly
or in case you have a reason to use a different symmetry number we print 
out the resulting rotational entropy values for sn=1,12:

 non-linear molecules -----------------------------------
|  sn= 1 | S(rot)=       0.01473072 Eh      9.24 kcal/mol|
|  sn= 2 | S(rot)=       0.01407627 Eh      8.83 kcal/mol|
|  sn= 3 | S(rot)=       0.01369344 Eh      8.59 kcal/mol|
|  sn= 4 | S(rot)=       0.01342181 Eh      8.42 kcal/mol|
|  sn= 5 | S(rot)=       0.01321112 Eh      8.29 kcal/mol|
|  sn= 6 | S(rot)=       0.01303898 Eh      8.18 kcal/mol|
|  sn= 7 | S(rot)=       0.01289343 Eh      8.09 kcal/mol|
|  sn= 8 | S(rot)=       0.01276736 Eh      8.01 kcal/mol|
|  sn= 9 | S(rot)=       0.01265615 Eh      7.94 kcal/mol|
|  sn=10 | S(rot)=       0.01255667 Eh      7.88 kcal/mol|
|  sn=11 | S(rot)=       0.01246668 Eh      7.82 kcal/mol|
|  sn=12 | S(rot)=       0.01238452 Eh      7.77 kcal/mol|
 linear molecules ---------------------------------------
|  Dinfh | S(rot)=       0.00938697 Eh      5.89 kcal/mol|
|  Cinfv | S(rot)=       0.01004142 Eh      6.30 kcal/mol|
 --------------------------------------------------------


-------------------
GIBBS FREE ENERGY
-------------------

The Gibbs free energy is G = H - T*S

Total enthalpy                    ...   -537.30252133 Eh 
Total entropy correction          ...     -0.04632726 Eh    -29.07 kcal/mol
-----------------------------------------------------------------------
Final Gibbs free energy         ...   -537.34884859 Eh

For completeness - the Gibbs free energy minus the electronic energy
G-E(el)                           ...      0.15149079 Eh     95.06 kcal/mol


Maximum memory used throughout the entire PROP-calculation: 81.2 MB

--------------------------------
SUGGESTED CITATIONS FOR THIS RUN
--------------------------------

Below you find a list of papers that are relevant to this ORCA run
We neither can nor want to force you to cite these papers, but we appreciate if you do
You receive ORCA, which is the product of decades of hard work by many enthusiastic individuals, for free
The only thing we kindly ask in return is that you cite our papers,
We deeply appreciate it, if you show your appreciation for ORCA by not just citing the generic ORCA reference.

Please note that relegating all ORCA citations to the supporting information does *not* help us.
SI sections are not indexed - citations you put there will not count into any citation statistics
But we need these citations in order to attract the funding resources that allow us to do what we are doing

Therefore, if you are a happy ORCA user, please consider citing a few of the papers listed below in the main body of your paper

In addition to the list printed below, the program has created the file cs_rporg_061_red_opt_01.bibtex that contains the list in bibtex format
You can import this file easily into all common literature databanks and citation aid programs


List of essential papers. We consider these as the minimum necessary citations

  1. Neese,F.
     Software update: the ORCA program system, version 5.0
     WIRES Comput. Molec. Sci., 2022 12(1)e1606
     doi.org/10.1002/wcms.1606

List of papers to cite with high priority. The work reported in these papers was absolutely
necessary for this run to complete.
Our perspective: the developers of density functionals and basis sets usually get cited in chemistry papers
Good! But without the algorithms to do something with them, the functionals or basis sets would not do anything.
Hence, in our opinion, the algorithm design and method developments papers are equally worthy of getting cited

  1. Neese,F.
     An improvement of the resolution of the identity approximation for the formation of the Coulomb matrix
     J. Comp. Chem., 2003 24(14)1740-1747
     doi.org/10.1002/jcc.10318
  2. Neese,F.; Wennmohs,F.; Hansen,A.; Becker,U.
     Efficient, approximate and parallel Hartree-Fock and hybrid DFT calculations. A 'chain-of-spheres' algorithm for the Hartree-Fock exchange
     Chem. Phys., 2009 356(1-3)98-109
     doi.org/10.1016/j.chemphys.2008.10.036
  3. Bykov,D.; Petrenko,T.; Izsak,R.; Kossmann,S.; Becker,U.; Valeev,E.; Neese,F.
     Efficient implementation of the analytic second derivatives of Hartree-Fock and hybrid DFT energies: a detailed analysis of different approximations
     Molec. Phys., 2015 113 1961-1977
     doi.org/10.1080/00268976.2015.1025114
  4. Helmich-Paris,B.; de Souza,B.; Neese,F.; Izsák,R.
     An improved chain of spheres for exchange algorithm
     J. Chem. Phys., 2021 155 104109
     doi.org/doi: 10.1063/5.0058766.
  5. Neese,F.
     The SHARK Integral Generation and Digestion System
     J. Comp. Chem., 2022  1-16
     doi.org/10.1002/jcc.26942
  6. Grimme,S.; Antony,J.; Ehrlich,S.; Krieg,H.
     A consistent and accurate ab initio parametrization of density functional dispersion correction (DFT-D) for the 94 elements H-Pu
     J. Chem. Phys., 2010 132 154104-XXXX
     doi.org/10.1063/1.3382344
  7. Grimme,S.; Ehrlich,S.; Goerigk,L.
     Effect of the damping function in dispersion corrected density functional theory
     J. Comput. Chem., 2011 32(7)1456-1465
     doi.org/10.1002/jcc.21759

List of suggested additional citations. These are papers that are important in the 'surrounding' of 
of this run, or papers that preceded the highly important papers. If you like your results we are grateful for a citation.

  1. Izsak,R.; Neese,F.
     An overlap fitted chain of spheres exchange method
     J. Chem. Phys., 2011 135 144105
     doi.org/10.1063/1.3646921
  2. Izsak,R.; Hansen,A.; Neese,F.
     The resolution of identity and chain of spheres approximations for the LPNO-CCSD singles Fock term
     Molec. Phys., 2012 110 2413-2417
     doi.org/10.1080/00268976.2012.687466
  3. Neese,F.
     The ORCA program system
     WIRES Comput. Molec. Sci., 2012 2(1)73-78
     doi.org/10.1002/wcms.81
  4. Izsak,R.; Neese,F.; Klopper,W.
     Robust fitting techniques in the chain of spheres approximation to the Fock exchange: The role of the complementary space
     J. Chem. Phys., 2013 139 
     doi.org/10.1063/1.4819264
  5. Neese,F.
     Software update: the ORCA program system, version 4.0
     WIRES Comput. Molec. Sci., 2018 8(1)1-6
     doi.org/10.1002/wcms.1327
  6. Neese,F.; Wennmohs,F.; Becker,U.; Riplinger,C.
     The ORCA quantum chemistry program package
     J. Chem. Phys., 2020 152 Art. No. L224108
     doi.org/10.1063/5.0004608

List of optional additional citations

  1. Neese,F.
     Approximate second-order SCF convergence for spin unrestricted wavefunctions
     Chem. Phys. Lett., 2000 325(1-3)93-98
     doi.org/10.1016/s0009-2614(00)00662-x

Timings for individual modules:

Sum of individual times          ...      677.000 sec (=  11.283 min)
Startup calculation              ...       30.520 sec (=   0.509 min)   4.5 %
SCF iterations                   ...      235.522 sec (=   3.925 min)  34.8 %
Property integrals               ...       61.385 sec (=   1.023 min)   9.1 %
SCF Response                     ...      126.657 sec (=   2.111 min)  18.7 %
Property calculations            ...      139.262 sec (=   2.321 min)  20.6 %
SCF Gradient evaluation          ...       83.128 sec (=   1.385 min)  12.3 %
Geometry relaxation              ...        0.526 sec (=   0.009 min)   0.1 %
                             ****ORCA TERMINATED NORMALLY****
TOTAL RUN TIME: 0 days 0 hours 11 minutes 39 seconds 548 msec
