 vasp.6.4.2 20Jul23 (build Sep 06 2024 14:39:43) complex                        
  
 executed on             LinuxIFC date 2024.10.30  13:03:10
 running   80 mpi-ranks, on    4 nodes
 distrk:  each k-point on   80 cores,    1 groups
 distr:  one band on NCORE=  10 cores,    8 groups


--------------------------------------------------------------------------------------------------------


 INCAR:
   SYSTEM = 150_ox
   ISTART = 1
   ICHARG = 2
   INIWAV = 1
   METAGGA = R2SCAN
   LASPH = .TRUE.
   NELM = 100
   ALGO = fast   	
   ISPIN = 2
   EDIFF = 1E-05
   ISMEAR = 0
   SIGMA = 0.05
   PREC = accurate
   ENCUT = 500
   LREAL = auto  	
   LWAVE = .TRUE.
   LCHARG = .FALSE.
   LAECHG = .FALSE.
   LVHAR = .FALSE.
   LVTOT = .FALSE.
   EDIFFG = -0.02
   IBRION = 2
   NSW = 500
   ISIF = 2
   POTIM = 0.5
   IVDW = 12
   VDW_A1 = 0.49484001
   VDW_S8 = 0.78981345
   VDW_A2 = 5.73083694
   LPLANE = .TRUE.
   NCORE = 10
   LSCALU = .FALSE.
   NSIM = 4
   LSOL = .TRUE.
   EB_K = 35.6880
   LAMBDA_D_K = 3.04
   TAU = 0

 POTCAR:    PAW_PBE C 08Apr2002                   
 POTCAR:    PAW_PBE N 08Apr2002                   
 POTCAR:    PAW_PBE O 08Apr2002                   
 POTCAR:    PAW_PBE H 15Jun2001                   
 -----------------------------------------------------------------------------
|                                                                             |
|           W    W    AA    RRRRR   N    N  II  N    N   GGGG   !!!           |
|           W    W   A  A   R    R  NN   N  II  NN   N  G    G  !!!           |
|           W    W  A    A  R    R  N N  N  II  N N  N  G       !!!           |
|           W WW W  AAAAAA  RRRRR   N  N N  II  N  N N  G  GGG   !            |
|           WW  WW  A    A  R   R   N   NN  II  N   NN  G    G                |
|           W    W  A    A  R    R  N    N  II  N    N   GGGG   !!!           |
|                                                                             |
|     You use a magnetic or noncollinear calculation, but did not specify     |
|     the initial magnetic moment with the MAGMOM tag. Note that a            |
|     default of 1 will be used for all atoms. This ferromagnetic setup       |
|     may break the symmetry of the crystal, in particular it may rule        |
|     out finding an antiferromagnetic solution. Thence, we recommend         |
|     setting the initial magnetic moment manually or verifying carefully     |
|     that this magnetic setup is desired.                                    |
|                                                                             |
 -----------------------------------------------------------------------------

 POTCAR:    PAW_PBE C 08Apr2002                   
   VRHFIN =C: s2p2                                                                                  
   LEXCH  = PE                                                                                      
   EATOM  =   147.1560 eV,   10.8157 Ry                                                             
                                                                                                    
   TITEL  = PAW_PBE C 08Apr2002                                                                     
   LULTRA =        F    use ultrasoft PP ?                                                          
   IUNSCR =        1    unscreen: 0-lin 1-nonlin 2-no                                               
   RPACOR =    1.200    partial core radius                                                         
   POMASS =   12.011; ZVAL   =    4.000    mass and valenz                                          
   RCORE  =    1.500    outmost cutoff radius                                                       
   RWIGS  =    1.630; RWIGS  =    0.863    wigner-seitz radius (au A)                               
   ENMAX  =  400.000; ENMIN  =  300.000 eV                                                          
   ICORE  =        2    local potential                                                             
   LCOR   =        T    correct aug charges                                                         
   LPAW   =        T    paw PP                                                                      
   EAUG   =  644.873                                                                                
   DEXC   =    0.000                                                                                
   RMAX   =    1.529    core radius for proj-oper                                                   
   RAUG   =    1.300    factor for augmentation sphere                                              
   RDEP   =    1.501    radius for radial grids                                                     
   RDEPT  =    1.300    core radius for aug-charge                                                  
                                                                                                    
   Atomic configuration                                                                             
    4 entries                                                                                       
     n  l   j            E        occ.                                                              
     1  0  0.50      -273.3789   2.0000                                                             
     2  0  0.50       -13.7508   2.0000                                                             
     2  1  0.50        -5.2854   2.0000                                                             
     3  2  1.50        -5.4423   0.0000                                                             
   Description                                                                                      
     l       E           TYP  RCUT    TYP  RCUT                                                     
     0    -13.7508458     23  1.200                                                                 
     0     -8.2022199     23  1.200                                                                 
     1     -5.2854383     23  1.500                                                                 
     1     34.0145650     23  1.500                                                                 
     2     -5.4423304      7  1.500                                                                 
  local pseudopotential read in
  partial core-charges read in
  partial kinetic energy density read in
  atomic valenz-charges read in
  non local Contribution for L=           0  read in
    real space projection operators read in
  non local Contribution for L=           0  read in
    real space projection operators read in
  non local Contribution for L=           1  read in
    real space projection operators read in
  non local Contribution for L=           1  read in
    real space projection operators read in
    PAW grid and wavefunctions read in
 
   number of l-projection  operators is LMAX  =           4
   number of lm-projection operators is LMMAX =           8
 
 POTCAR:    PAW_PBE N 08Apr2002                   
   VRHFIN =N: s2p3                                                                                  
   LEXCH  = PE                                                                                      
   EATOM  =   264.5486 eV,   19.4438 Ry                                                             
                                                                                                    
   TITEL  = PAW_PBE N 08Apr2002                                                                     
   LULTRA =        F    use ultrasoft PP ?                                                          
   IUNSCR =        1    unscreen: 0-lin 1-nonlin 2-no                                               
   RPACOR =    1.200    partial core radius                                                         
   POMASS =   14.001; ZVAL   =    5.000    mass and valenz                                          
   RCORE  =    1.500    outmost cutoff radius                                                       
   RWIGS  =    1.400; RWIGS  =    0.741    wigner-seitz radius (au A)                               
   ENMAX  =  400.000; ENMIN  =  300.000 eV                                                          
   ICORE  =        2    local potential                                                             
   LCOR   =        T    correct aug charges                                                         
   LPAW   =        T    paw PP                                                                      
   EAUG   =  627.112                                                                                
   DEXC   =    0.000                                                                                
   RMAX   =    1.529    core radius for proj-oper                                                   
   RAUG   =    1.300    factor for augmentation sphere                                              
   RDEP   =    1.514    radius for radial grids                                                     
   RDEPT  =    1.338    core radius for aug-charge                                                  
                                                                                                    
   Atomic configuration                                                                             
    4 entries                                                                                       
     n  l   j            E        occ.                                                              
     1  0  0.50      -384.7179   2.0000                                                             
     2  0  0.50       -18.5828   2.0000                                                             
     2  1  0.50        -7.0898   3.0000                                                             
     3  2  1.50        -6.8029   0.0000                                                             
   Description                                                                                      
     l       E           TYP  RCUT    TYP  RCUT                                                     
     0    -18.5828119     23  1.200                                                                 
     0    -13.5018863     23  1.200                                                                 
     1     -7.0897853     23  1.500                                                                 
     1      9.5240782     23  1.500                                                                 
     2     -6.8029130      7  1.500                                                                 
  local pseudopotential read in
  partial core-charges read in
  partial kinetic energy density read in
  atomic valenz-charges read in
  non local Contribution for L=           0  read in
    real space projection operators read in
  non local Contribution for L=           0  read in
    real space projection operators read in
  non local Contribution for L=           1  read in
    real space projection operators read in
  non local Contribution for L=           1  read in
    real space projection operators read in
    PAW grid and wavefunctions read in
 
   number of l-projection  operators is LMAX  =           4
   number of lm-projection operators is LMMAX =           8
 
 POTCAR:    PAW_PBE O 08Apr2002                   
   VRHFIN =O: s2p4                                                                                  
   LEXCH  = PE                                                                                      
   EATOM  =   432.3788 eV,   31.7789 Ry                                                             
                                                                                                    
   TITEL  = PAW_PBE O 08Apr2002                                                                     
   LULTRA =        F    use ultrasoft PP ?                                                          
   IUNSCR =        1    unscreen: 0-lin 1-nonlin 2-no                                               
   RPACOR =    1.200    partial core radius                                                         
   POMASS =   16.000; ZVAL   =    6.000    mass and valenz                                          
   RCORE  =    1.520    outmost cutoff radius                                                       
   RWIGS  =    1.550; RWIGS  =    0.820    wigner-seitz radius (au A)                               
   ENMAX  =  400.000; ENMIN  =  300.000 eV                                                          
   ICORE  =        2    local potential                                                             
   LCOR   =        T    correct aug charges                                                         
   LPAW   =        T    paw PP                                                                      
   EAUG   =  605.392                                                                                
   DEXC   =    0.000                                                                                
   RMAX   =    1.553    core radius for proj-oper                                                   
   RAUG   =    1.300    factor for augmentation sphere                                              
   RDEP   =    1.550    radius for radial grids                                                     
   RDEPT  =    1.329    core radius for aug-charge                                                  
                                                                                                    
   Atomic configuration                                                                             
    4 entries                                                                                       
     n  l   j            E        occ.                                                              
     1  0  0.50      -514.6923   2.0000                                                             
     2  0  0.50       -23.9615   2.0000                                                             
     2  1  0.50        -9.0305   4.0000                                                             
     3  2  1.50        -9.5241   0.0000                                                             
   Description                                                                                      
     l       E           TYP  RCUT    TYP  RCUT                                                     
     0    -23.9615318     23  1.200                                                                 
     0     -9.5240782     23  1.200                                                                 
     1     -9.0304911     23  1.520                                                                 
     1      8.1634956     23  1.520                                                                 
     2     -9.5240782      7  1.500                                                                 
  local pseudopotential read in
  partial core-charges read in
  partial kinetic energy density read in
  kinetic energy density of atom read in
  atomic valenz-charges read in
  non local Contribution for L=           0  read in
    real space projection operators read in
  non local Contribution for L=           0  read in
    real space projection operators read in
  non local Contribution for L=           1  read in
    real space projection operators read in
  non local Contribution for L=           1  read in
    real space projection operators read in
    PAW grid and wavefunctions read in
 
   number of l-projection  operators is LMAX  =           4
   number of lm-projection operators is LMMAX =           8
 
 POTCAR:    PAW_PBE H 15Jun2001                   
   VRHFIN =H: ultrasoft test                                                                        
   LEXCH  = PE                                                                                      
   EATOM  =    12.4884 eV,    0.9179 Ry                                                             
                                                                                                    
   TITEL  = PAW_PBE H 15Jun2001                                                                     
   LULTRA =        F    use ultrasoft PP ?                                                          
   IUNSCR =        0    unscreen: 0-lin 1-nonlin 2-no                                               
   RPACOR =    0.000    partial core radius                                                         
   POMASS =    1.000; ZVAL   =    1.000    mass and valenz                                          
   RCORE  =    1.100    outmost cutoff radius                                                       
   RWIGS  =    0.700; RWIGS  =    0.370    wigner-seitz radius (au A)                               
   ENMAX  =  250.000; ENMIN  =  200.000 eV                                                          
   RCLOC  =    0.701    cutoff for local pot                                                        
   LCOR   =        T    correct aug charges                                                         
   LPAW   =        T    paw PP                                                                      
   EAUG   =  400.000                                                                                
   RMAX   =    1.123    core radius for proj-oper                                                   
   RAUG   =    1.200    factor for augmentation sphere                                              
   RDEP   =    1.112    radius for radial grids                                                     
   RDEPT  =    0.926    core radius for aug-charge                                                  
                                                                                                    
   Atomic configuration                                                                             
    2 entries                                                                                       
     n  l   j            E        occ.                                                              
     1  0  0.50        -6.4927   1.0000                                                             
     2  1  0.50        -3.4015   0.0000                                                             
   Description                                                                                      
     l       E           TYP  RCUT    TYP  RCUT                                                     
     0     -6.4927494     23  1.100                                                                 
     0      6.8029130     23  1.100                                                                 
     1     -4.0817478     23  1.100                                                                 
  local pseudopotential read in
  atomic valenz-charges read in
  non local Contribution for L=           0  read in
    real space projection operators read in
  non local Contribution for L=           0  read in
    real space projection operators read in
  non local Contribution for L=           1  read in
    real space projection operators read in
    PAW grid and wavefunctions read in
 
   number of l-projection  operators is LMAX  =           3
   number of lm-projection operators is LMMAX =           5
 
 Optimization of the real space projectors (new method)

 maximal supplied QI-value         = 25.13
 optimisation between [QCUT,QGAM] = [ 11.31, 22.87] = [ 35.82,146.48] Ry 
 Optimized for a Real-space Cutoff    1.03 Angstroem

   l    n(q)    QCUT    max X(q) W(low)/X(q) W(high)/X(q)  e(spline) 
   0      7    11.310   115.676    0.20E-03    0.90E-03    0.20E-06
   0      7    11.310    87.132    0.20E-03    0.89E-03    0.19E-06
   1      6    11.310     4.429    0.16E-03    0.28E-03    0.12E-06
   1      6    11.310     2.733    0.12E-03    0.21E-03    0.99E-07
 Optimization of the real space projectors (new method)

 maximal supplied QI-value         = 25.13
 optimisation between [QCUT,QGAM] = [ 11.31, 22.87] = [ 35.82,146.48] Ry 
 Optimized for a Real-space Cutoff    1.43 Angstroem

   l    n(q)    QCUT    max X(q) W(low)/X(q) W(high)/X(q)  e(spline) 
   0     10    11.310    79.467    0.42E-04    0.81E-04    0.60E-06
   0     10    11.310    66.151    0.40E-04    0.81E-04    0.60E-06
   1      9    11.310    17.416    0.14E-03    0.88E-04    0.14E-05
   1      9    11.310    12.382    0.15E-03    0.93E-04    0.14E-05
 Optimization of the real space projectors (new method)

 maximal supplied QI-value         = 24.76
 optimisation between [QCUT,QGAM] = [ 11.39, 22.77] = [ 36.31,145.25] Ry 
 Optimized for a Real-space Cutoff    1.10 Angstroem

   l    n(q)    QCUT    max X(q) W(low)/X(q) W(high)/X(q)  e(spline) 
   0      7    11.387    20.381    0.22E-03    0.48E-03    0.18E-06
   0      7    11.387    15.268    0.22E-03    0.52E-03    0.19E-06
   1      7    11.387     5.964    0.22E-03    0.73E-03    0.24E-06
   1      7    11.387     5.382    0.19E-03    0.60E-03    0.21E-06
 Optimization of the real space projectors (new method)

 maximal supplied QI-value         = 34.20
 optimisation between [QCUT,QGAM] = [ 11.29, 22.57] = [ 35.68,142.71] Ry 
 Optimized for a Real-space Cutoff    1.20 Angstroem

   l    n(q)    QCUT    max X(q) W(low)/X(q) W(high)/X(q)  e(spline) 
   0      8    11.287    19.460    0.22E-03    0.50E-03    0.19E-06
   0      8    11.287    12.209    0.21E-03    0.48E-03    0.18E-06
   1      8    11.287     4.655    0.21E-03    0.11E-04    0.26E-06
  PAW_PBE C 08Apr2002                   :
 energy of atom  1       EATOM= -147.1560
 kinetic energy error for atom=    0.0076 (will be added to EATOM!!)
  PAW_PBE N 08Apr2002                   :
 energy of atom  2       EATOM= -264.5486
 kinetic energy error for atom=    0.0138 (will be added to EATOM!!)
  PAW_PBE O 08Apr2002                   :
 energy of atom  3       EATOM= -432.3788
 kinetic energy error for atom=    0.0224 (will be added to EATOM!!)
  PAW_PBE H 15Jun2001                   :
 energy of atom  4       EATOM=  -12.4884
 kinetic energy error for atom=    0.0020 (will be added to EATOM!!)
 
 
 POSCAR: C N O H
  positions in direct lattice
  velocities in cartesian coordinates

 METAGGA = R2SCAN                                      LMAXTAU =  6    LMIXTAU =  F

 exchange correlation table for  LEXCH =        8
   RHO(1)=    0.500       N(1)  =     2000
   RHO(2)=  100.500       N(2)  =     4000
 


--------------------------------------------------------------------------------------------------------


 ion  position               nearest neighbor table
   1  0.501  0.463  0.500-  19 1.09   2 1.39   6 1.41
   2  0.467  0.463  0.500-  18 1.09   1 1.39   3 1.40
   3  0.450  0.494  0.500-   4 1.40   2 1.40   9 1.47
   4  0.467  0.525  0.500-  17 1.09   5 1.39   3 1.40
   5  0.502  0.524  0.500-  16 1.09   4 1.39   6 1.41
   6  0.519  0.494  0.500-   1 1.41   5 1.41   7 1.51
   7  0.557  0.492  0.500-  10 1.24   8 1.50   6 1.51
   8  0.577  0.524  0.500-  14 1.09  15 1.10  13 1.10   7 1.50
   9  0.413  0.494  0.500-  11 1.24  12 1.24   3 1.47
  10  0.571  0.465  0.500-   7 1.24
  11  0.399  0.522  0.500-   9 1.24
  12  0.398  0.467  0.500-   9 1.24
  13  0.570  0.539  0.522-   8 1.10
  14  0.603  0.518  0.500-   8 1.09
  15  0.570  0.539  0.478-   8 1.10
  16  0.515  0.548  0.500-   5 1.09
  17  0.453  0.548  0.500-   4 1.09
  18  0.453  0.440  0.500-   2 1.09
  19  0.515  0.440  0.500-   1 1.09
 
  LATTYP: Found a simple cubic cell.
 ALAT       =    40.0000000000
  
  Lattice vectors:
  
 A1 = (  40.0000000000,   0.0000000000,   0.0000000000)
 A2 = (   0.0000000000,  40.0000000000,   0.0000000000)
 A3 = (   0.0000000000,   0.0000000000,  40.0000000000)


Analysis of symmetry for initial positions (statically):
=====================================================================
 Subroutine PRICEL returns:
 Original cell was already a primitive cell.
 

 Routine SETGRP: Setting up the symmetry group for a 
 simple cubic supercell.


 Subroutine GETGRP returns: Found  1 space group operations
 (whereof  1 operations were pure point group operations)
 out of a pool of 48 trial point group operations.


The static configuration has the point symmetry C_1 .


Analysis of symmetry for dynamics (positions and initial velocities):
=====================================================================
 Subroutine PRICEL returns:
 Original cell was already a primitive cell.
 

 Routine SETGRP: Setting up the symmetry group for a 
 simple cubic supercell.


 Subroutine GETGRP returns: Found  1 space group operations
 (whereof  1 operations were pure point group operations)
 out of a pool of 48 trial point group operations.


The dynamic configuration has the point symmetry C_1 .


Analysis of constrained symmetry for selective dynamics:
=====================================================================
 Subroutine PRICEL returns:
 Original cell was already a primitive cell.
 

 Routine SETGRP: Setting up the symmetry group for a 
 simple cubic supercell.


 Subroutine GETGRP returns: Found  1 space group operations
 (whereof  1 operations were pure point group operations)
 out of a pool of 48 trial point group operations.


The constrained configuration has the point symmetry C_1 .


Analysis of structural, dynamic, and magnetic symmetry:
=====================================================================
 Subroutine PRICEL returns:
 Original cell was already a primitive cell.
 

 Routine SETGRP: Setting up the symmetry group for a 
 simple cubic supercell.


 Subroutine GETGRP returns: Found  1 space group operations
 (whereof  1 operations were pure point group operations)
 out of a pool of 48 trial point group operations.


The overall configuration has the point symmetry C_1 .


 Subroutine INISYM returns: Found  1 space group operations
 (whereof  1 operations are pure point group operations),
 and found     1 'primitive' translations


----------------------------------------------------------------------------------------

                                     Primitive cell                                     

  volume of cell :   64000.0000

  direct lattice vectors                    reciprocal lattice vectors
    40.000000000  0.000000000  0.000000000     0.025000000  0.000000000  0.000000000
     0.000000000 40.000000000  0.000000000     0.000000000  0.025000000  0.000000000
     0.000000000  0.000000000 40.000000000     0.000000000  0.000000000  0.025000000

  length of vectors
    40.000000000 40.000000000 40.000000000     0.025000000  0.025000000  0.025000000

  position of ions in fractional coordinates (direct lattice)
     0.501345459  0.463450709  0.499980626
     0.466620594  0.463363787  0.500005773
     0.449918467  0.494066907  0.500039204
     0.466944727  0.524536986  0.500047142
     0.501778598  0.524171750  0.500016206
     0.519277803  0.493683779  0.499982111
     0.556888505  0.492079754  0.499954241
     0.576507360  0.524164903  0.499940444
     0.413082165  0.494253665  0.500065885
     0.571038253  0.464624672  0.499948518
     0.398537371  0.521711840  0.500090513
     0.398311267  0.466914108  0.500062337
     0.570328593  0.539283071  0.522069580
     0.603262327  0.518432441  0.499876744
     0.570229850  0.539337137  0.477878966
     0.515101900  0.547912282  0.500019862
     0.453096946  0.547947527  0.500069867
     0.452561366  0.440079523  0.499997297
     0.515167448  0.439989158  0.499953683

  ion indices of the primitive-cell ions
   primitive index   ion index
                 1           1
                 2           2
                 3           3
                 4           4
                 5           5
                 6           6
                 7           7
                 8           8
                 9           9
                10          10
                11          11
                12          12
                13          13
                14          14
                15          15
                16          16
                17          17
                18          18
                19          19

----------------------------------------------------------------------------------------

 
 
 KPOINTS: K-Point Grid                            

Automatic generation of k-mesh.
 Grid dimensions read from file:
 generate k-points for:    1    1    1

 Generating k-lattice:

  Cartesian coordinates                     Fractional coordinates (reciprocal lattice)
     0.025000000  0.000000000  0.000000000     1.000000000  0.000000000  0.000000000
     0.000000000  0.025000000  0.000000000     0.000000000  1.000000000  0.000000000
     0.000000000  0.000000000  0.025000000     0.000000000  0.000000000  1.000000000

  Length of vectors
     0.025000000  0.025000000  0.025000000

  Shift w.r.t. Gamma in fractional coordinates (k-lattice)
     0.000000000  0.000000000  0.000000000

 
 Subroutine IBZKPT returns following result:
 ===========================================
 
 Found      1 irreducible k-points:
 
 Following reciprocal coordinates:
            Coordinates               Weight
  0.000000  0.000000  0.000000      1.000000
 
 Following cartesian coordinates:
            Coordinates               Weight
  0.000000  0.000000  0.000000      1.000000
 


--------------------------------------------------------------------------------------------------------




 Dimension of arrays:
   k-points           NKPTS =      1   k-points in BZ     NKDIM =      1   number of bands    NBANDS=     56
   number of dos      NEDOS =    301   number of ions     NIONS =     19
   non local maximal  LDIM  =      4   non local SUM 2l+1 LMDIM =      8
   total plane-waves  NPLWV = ******
   max r-space proj   IRMAX =   4928   max aug-charges    IRDMAX=   5350
   dimension x,y,z NGX =   294 NGY =  294 NGZ =  294
   dimension x,y,z NGXF=   588 NGYF=  588 NGZF=  588
   support grid    NGXF=   588 NGYF=  588 NGZF=  588
   ions per type =               8   1   3   7
   NGX,Y,Z   is equivalent  to a cutoff of  12.22, 12.22, 12.22 a.u.
   NGXF,Y,Z  is equivalent  to a cutoff of  24.44, 24.44, 24.44 a.u.

 SYSTEM =  150_ox                                  
 POSCAR =  C N O H                                 

 Startparameter for this run:
   NWRITE =      2    write-flag & timer
   PREC   = accura    normal or accurate (medium, high low for compatibility)
   ISTART =      1    job   : 0-new  1-cont  2-samecut
   ICHARG =      2    charge: 1-file 2-atom 10-const
   ISPIN  =      2    spin polarized calculation?
   LNONCOLLINEAR =      F non collinear calculations
   LSORBIT =      F    spin-orbit coupling
   INIWAV =      1    electr: 0-lowe 1-rand  2-diag
   LASPH  =      T    aspherical Exc in radial PAW
 Electronic Relaxation 1
   ENCUT  =  500.0 eV  36.75 Ry    6.06 a.u.  72.93 72.93 72.93*2*pi/ulx,y,z
   ENINI  =  500.0     initial cutoff
   ENAUG  =  644.9 eV  augmentation charge cutoff
   NELM   =    100;   NELMIN=  2; NELMDL=  0     # of ELM steps 
   EDIFF  = 0.1E-04   stopping-criterion for ELM
   LREAL  =      T    real-space projection
   NLSPLINE    = F    spline interpolate recip. space projectors
   LCOMPAT=      F    compatible to vasp.4.4
   GGA_COMPAT  = T    GGA compatible to vasp.4.4-vasp.4.6
   LMAXPAW     = -100 max onsite density
   LMAXMIX     =    2 max onsite mixed and CHGCAR
   VOSKOWN=      0    Vosko Wilk Nusair interpolation
   ROPT   =   -0.00025  -0.00025  -0.00025  -0.00025
 Ionic relaxation
   EDIFFG = -.2E-01   stopping-criterion for IOM
   NSW    =    500    number of steps for IOM
   NBLOCK =      1;   KBLOCK =    500    inner block; outer block 
   IBRION =      2    ionic relax: 0-MD 1-quasi-New 2-CG
   NFREE  =      1    steps in history (QN), initial steepest desc. (CG)
   ISIF   =      2    stress and relaxation
   IWAVPR =     11    prediction:  0-non 1-charg 2-wave 3-comb
   ISYM   =      2    0-nonsym 1-usesym 2-fastsym
   LCORR  =      T    Harris-Foulkes like correction to forces

   POTIM  = 0.5000    time-step for ionic-motion
   TEIN   =    0.0    initial temperature
   TEBEG  =    0.0;   TEEND  =   0.0 temperature during run
   SMASS  =  -3.00    Nose mass-parameter (am)
   estimated Nose-frequenzy (Omega)   =  0.10E-29 period in steps = 0.13E+47 mass=  -0.366E-25a.u.
   SCALEE = 1.0000    scale energy and forces
   NPACO  =    256;   APACO  = 10.0  distance and # of slots for P.C.
   PSTRESS=    0.0 pullay stress

  Mass of Ions in am
   POMASS =  12.01 14.00 16.00  1.00
  Ionic Valenz
   ZVAL   =   4.00  5.00  6.00  1.00
  Atomic Wigner-Seitz radii
   RWIGS  =  -1.00 -1.00 -1.00 -1.00
  virtual crystal weights 
   VCA    =   1.00  1.00  1.00  1.00
   NELECT =      62.0000    total number of electrons
   NUPDOWN=      -1.0000    fix difference up-down

 DOS related values:
   EMIN   =  10.00;   EMAX   =-10.00  energy-range for DOS
   EFERMI =   0.00;   METHOD = LEGACY      
   ISMEAR =     0;   SIGMA  =   0.05  broadening in eV -4-tet -1-fermi 0-gaus

 Electronic relaxation 2 (details)
   IALGO  =     68    algorithm
   LDIAG  =      T    sub-space diagonalisation (order eigenvalues)
   LSUBROT=      F    optimize rotation matrix (better conditioning)
   TURBO    =      0    0=normal 1=particle mesh
   IRESTART =      0    0=no restart 2=restart with 2 vectors
   NREBOOT  =      0    no. of reboots
   NMIN     =      0    reboot dimension
   EREF     =   0.00    reference energy to select bands
   IMIX   =      4    mixing-type and parameters
     AMIX     =   0.40;   BMIX     =  1.00
     AMIX_MAG =   1.60;   BMIX_MAG =  1.00
     AMIN     =   0.10
     WC   =   100.;   INIMIX=   1;  MIXPRE=   1;  MAXMIX= -45

 Intra band minimization:
   WEIMIN = 0.0010     energy-eigenvalue tresh-hold
   EBREAK =  0.45E-07  absolut break condition
   DEPER  =   0.30     relativ break condition  

   TIME   =   0.40     timestep for ELM

  volume/ion in A,a.u.               =    3368.42     22731.23
  Fermi-wavevector in a.u.,A,eV,Ry     =   0.161986  0.306110  0.357012  0.026240
  Thomas-Fermi vector in A             =   0.858209
 
 Write flags
   LWAVE        =      T    write WAVECAR
   LDOWNSAMPLE  =      F    k-point downsampling of WAVECAR
   LCHARG       =      F    write CHGCAR
   LVTOT        =      F    write LOCPOT, total local potential
   LVHAR        =      F    write LOCPOT, Hartree potential only
   LELF         =      F    write electronic localiz. function (ELF)
   LORBIT       =      0    0 simple, 1 ext, 2 COOP (PROOUT), +10 PAW based schemes


 Dipole corrections
   LMONO  =      F    monopole corrections only (constant potential shift)
   LDIPOL =      F    correct potential (dipole corrections)
   IDIPOL =      0    1-x, 2-y, 3-z, 4-all directions 
   EPSILON=  1.0000000 bulk dielectric constant

 Exchange correlation treatment:
   GGA     =    --    GGA type
   LEXCH   =     8    internal setting for exchange type
   LIBXC   =     F    Libxc                    
   VOSKOWN =     0    Vosko Wilk Nusair interpolation
   LHFCALC =     F    Hartree Fock is set to
   LHFONE  =     F    Hartree Fock one center treatment
   AEXX    =    0.0000 exact exchange contribution

 Linear response parameters
   LEPSILON=     F    determine dielectric tensor
   LRPA    =     F    only Hartree local field effects (RPA)
   LNABLA  =     F    use nabla operator in PAW spheres
   LVEL    =     F    velocity operator in full k-point grid
   CSHIFT  =0.1000    complex shift for real part using Kramers Kronig
   OMEGAMAX=  -1.0    maximum frequency
   DEG_THRESHOLD= 0.2000000E-02 threshold for treating states as degnerate
   RTIME   =   -0.100 relaxation time in fs
  (WPLASMAI=    0.000 imaginary part of plasma frequency in eV, 0.658/RTIME)
   DFIELD  = 0.0000000 0.0000000 0.0000000 field for delta impulse in time
 
  Optional k-point grid parameters
   LKPOINTS_OPT  =     F    use optional k-point grid
   KPOINTS_OPT_MODE=     1    mode for optional k-point grid
 
 Orbital magnetization related:
   ORBITALMAG=     F  switch on orbital magnetization
   LCHIMAG   =     F  perturbation theory with respect to B field
   DQ        =  0.001000  dq finite difference perturbation B field
   LLRAUG    =     F  two centre corrections for induced B field
   LBONE     =     F  B-component reconstruction in AE one-centre
   LVGVCALC  =     T  calculate vGv susceptibility
   LVGVAPPL  =     F  apply vGv susceptibility instead of pGv for G=0

 Random number generation:
   RANDOM_GENERATOR = DEFAULT
   PCG_SEED         = not used
 Solvation model:
   LSOL    =     T         switch on solvation model
   EB_K    = 35.688000     relative permittivity of the bulk solvent
   SIGMA_K =  0.600000     width of the dielectric cavity
   NC_K    =  0.002500     cutoff charge density
   TAU     =  0.000000     cavity surface tension
   LAMBDA_D_K    =  3.040000     Debye length in Angstroms
   LRHOB     =     F     write boundcharge  density
   LRHOION     =     F     write ioniccharge density



--------------------------------------------------------------------------------------------------------


 conjugate gradient relaxation of ions
   using selective dynamics as specified on POSCAR
 charge density and potential will be updated during run
 spin polarized calculation
 RMM-DIIS sequential band-by-band and
  variant of blocked Davidson during initial phase
 perform sub-space diagonalisation
    before iterative eigenvector-optimisation
 modified Broyden-mixing scheme, WC =      100.0
 initial mixing is a Kerker type mixing with AMIX =  0.4000 and BMIX =      1.0000
 Hartree-type preconditioning will be used
 using additional bands           25
 real space projection scheme for non local part
 use partial core corrections
 calculate Harris-corrections to forces 
   (improved forces if not selfconsistent)
 use gradient corrections 
 use of overlap-Matrix (Vanderbilt PP)
 Gauss-broadening in eV      SIGMA  =   0.05


--------------------------------------------------------------------------------------------------------


  energy-cutoff  :      500.00
  volume of cell :    64000.00
      direct lattice vectors                 reciprocal lattice vectors
    40.000000000  0.000000000  0.000000000     0.025000000  0.000000000  0.000000000
     0.000000000 40.000000000  0.000000000     0.000000000  0.025000000  0.000000000
     0.000000000  0.000000000 40.000000000     0.000000000  0.000000000  0.025000000

  length of vectors
    40.000000000 40.000000000 40.000000000     0.025000000  0.025000000  0.025000000


 
 old parameters found on file WAVECAR:
  energy-cutoff  :      500.00
  volume of cell :    64000.00
      direct lattice vectors                 reciprocal lattice vectors
    40.000000000  0.000000000  0.000000000     0.025000000  0.000000000  0.000000000
     0.000000000 40.000000000  0.000000000     0.000000000  0.025000000  0.000000000
     0.000000000  0.000000000 40.000000000     0.000000000  0.000000000  0.025000000

  length of vectors

 
 k-points in units of 2pi/SCALE and weight: K-Point Grid                            
   0.00000000  0.00000000  0.00000000       1.000
 
 k-points in reciprocal lattice and weights: K-Point Grid                            
   0.00000000  0.00000000  0.00000000       1.000
 
 position of ions in fractional coordinates (direct lattice) 
   0.50134546  0.46345071  0.49998063
   0.46662059  0.46336379  0.50000577
   0.44991847  0.49406691  0.50003920
   0.46694473  0.52453699  0.50004714
   0.50177860  0.52417175  0.50001621
   0.51927780  0.49368378  0.49998211
   0.55688850  0.49207975  0.49995424
   0.57650736  0.52416490  0.49994044
   0.41308216  0.49425366  0.50006589
   0.57103825  0.46462467  0.49994852
   0.39853737  0.52171184  0.50009051
   0.39831127  0.46691411  0.50006234
   0.57032859  0.53928307  0.52206958
   0.60326233  0.51843244  0.49987674
   0.57022985  0.53933714  0.47787897
   0.51510190  0.54791228  0.50001986
   0.45309695  0.54794753  0.50006987
   0.45256137  0.44007952  0.49999730
   0.51516745  0.43998916  0.49995368
 
 position of ions in cartesian coordinates  (Angst):
  20.05381835 18.53802836 19.99922505
  18.66482375 18.53455149 20.00023091
  17.99673868 19.76267627 20.00156816
  18.67778908 20.98147945 20.00188566
  20.07114392 20.96687001 20.00064825
  20.77111213 19.74735114 19.99928445
  22.27554018 19.68319014 19.99816964
  23.06029441 20.96659611 19.99761776
  16.52328660 19.77014660 20.00263542
  22.84153013 18.58498690 19.99794072
  15.94149485 20.86847361 20.00362053
  15.93245067 18.67656431 20.00249350
  22.81314373 21.57132286 20.88278320
  24.13049308 20.73729766 19.99506974
  22.80919402 21.57348547 19.11515864
  20.60407600 21.91649130 20.00079449
  18.12387784 21.91790106 20.00279469
  18.10245466 17.60318092 19.99989188
  20.60669793 17.59956633 19.99814731
 


--------------------------------------------------------------------------------------------------------


 k-point   1 :   0.0000 0.0000 0.0000  plane waves: 1624525

 maximum and minimum number of plane-waves per node :    162473   162437

 maximum number of plane-waves:   1624525
 maximum index in each direction: 
   IXMAX=   72   IYMAX=   72   IZMAX=   72
   IXMIN=  -72   IYMIN=  -72   IZMIN=  -72


 real space projection operators:
  total allocation   :       2348.27 KBytes
  max/ min on nodes  :        242.36        224.98


 parallel 3D FFT for wavefunctions:
    minimum data exchange during FFTs selected (reduces bandwidth)
 parallel 3D FFT for charge:
    minimum data exchange during FFTs selected (reduces bandwidth)


 total amount of memory used by VASP MPI-rank0   920330. kBytes
=======================================================================

   base      :      30000. kBytes
   nonlr-proj:       1856. kBytes
   fftplans  :     167689. kBytes
   grid      :     684374. kBytes
   one-center:         12. kBytes
   wavefun   :      36399. kBytes
 
     INWAV:  cpu time     10.4892: real time     10.6058
 Broyden mixing: mesh for mixing (old mesh)
   NGX =145   NGY =145   NGZ =145
  (NGX  =588   NGY  =588   NGZ  =588)
  gives a total of ****** points

 initial charge density was supplied:
 charge density of overlapping atoms calculated
 number of electron      62.0000000 magnetization      19.0000000
 keeping initial charge density in first step


--------------------------------------------------------------------------------------------------------


 Maximum index for non-local projection operator          443
 Maximum index for augmentation-charges          313 (set IRDMAX)


--------------------------------------------------------------------------------------------------------


 First call to EWALD:  gamma=   0.044
 Maximum number of real-space cells 3x 3x 3
 Maximum number of reciprocal cells 3x 3x 3

    FEWALD:  cpu time      0.0022: real time      0.0022


--------------------------------------- Ionic step        1  -------------------------------------------




--------------------------------------- Iteration      1(   1)  ---------------------------------------


    POTLOK:  cpu time    123.4388: real time    123.6735
    SETDIJ:  cpu time      0.3853: real time      0.3859
     EDDAV:  cpu time     64.3141: real time     64.4435
       DOS:  cpu time      0.0195: real time      0.0195
    CHARGE:  cpu time      7.7111: real time      7.7300
    MIXING:  cpu time      0.1286: real time      0.1288
    --------------------------------------------
      LOOP:  cpu time    195.9975: real time    196.3813

 eigenvalue-minimisations  :   280
 total energy-change (2. order) :-0.1390720E+03  (-0.6054963E+01)
 number of electron      61.9999989 magnetization      18.2679721
 augmentation part        3.1052516 magnetization      18.3288566

 Broyden mixing:
  rms(total) = 0.28943E+01    rms(broyden)= 0.28937E+01
  rms(prec ) = 0.29177E+01
  weight for this iteration     100.00

 Free energy of the ion-electron system (eV)
  ---------------------------------------------------
  alpha Z        PSCENC =         0.26386137
  Ewald energy   TEWEN  =      7053.91138914
  -Hartree energ DENC   =     -9140.66152235
  -exchange      EXHF   =         0.00000000
  -V(xc)+E(xc)   XCENC  =       266.74126662
  PAW double counting   =      2081.86583579    -2110.22086040
  entropy T*S    EENTRO =        -0.00000000
  eigenvalues    EBANDS =     -1108.06166939
  atomic energy  EATOM  =      2826.19653576
  Solvation  Ediel_sol  =        -9.10679546
  ---------------------------------------------------
  free energy    TOTEN  =      -139.07195892 eV

  energy without entropy =     -139.07195892  energy(sigma->0) =     -139.07195892


--------------------------------------------------------------------------------------------------------




--------------------------------------- Iteration      1(   2)  ---------------------------------------


    POTLOK:  cpu time    117.4681: real time    117.5931
    SETDIJ:  cpu time      0.3885: real time      0.3893
    EDDIAG:  cpu time     13.5499: real time     13.5794
  RMM-DIIS:  cpu time     76.7177: real time     76.8802
    ORTHCH:  cpu time      0.1652: real time      0.1657
       DOS:  cpu time      0.0022: real time      0.0022
    CHARGE:  cpu time      7.8008: real time      7.8191
    MIXING:  cpu time      0.1044: real time      0.1046
    --------------------------------------------
      LOOP:  cpu time    216.1969: real time    216.5335

 eigenvalue-minimisations  :   229
 total energy-change (2. order) : 0.2781235E+02  (-0.7488950E+01)
 number of electron      61.9999990 magnetization      17.4986878
 augmentation part        3.0354913 magnetization      17.4076140

 Broyden mixing:
  rms(total) = 0.13447E+01    rms(broyden)= 0.13445E+01
  rms(prec ) = 0.13600E+01
  weight for this iteration     100.00

 eigenvalues of (default mixing * dielectric matrix)
  average eigenvalue GAMMA=   0.9414
  0.9414

 Free energy of the ion-electron system (eV)
  ---------------------------------------------------
  alpha Z        PSCENC =         0.26386137
  Ewald energy   TEWEN  =      7053.91138914
  -Hartree energ DENC   =     -9229.04825061
  -exchange      EXHF   =         0.00000000
  -V(xc)+E(xc)   XCENC  =       290.55260842
  PAW double counting   =      3131.68433628    -3161.16875542
  entropy T*S    EENTRO =        -0.00000000
  eigenvalues    EBANDS =     -1006.17693182
  atomic energy  EATOM  =      2826.19653576
  Solvation  Ediel_sol  =       -17.47440631
  ---------------------------------------------------
  free energy    TOTEN  =      -111.25961320 eV

  energy without entropy =     -111.25961320  energy(sigma->0) =     -111.25961320


--------------------------------------------------------------------------------------------------------




--------------------------------------- Iteration      1(   3)  ---------------------------------------


    POTLOK:  cpu time    115.2055: real time    115.3082
    SETDIJ:  cpu time      0.3856: real time      0.3862
    EDDIAG:  cpu time     13.7111: real time     13.7419
  RMM-DIIS:  cpu time     84.8376: real time     85.0131
    ORTHCH:  cpu time      0.1653: real time      0.1657
       DOS:  cpu time      0.0034: real time      0.0034
    CHARGE:  cpu time      7.7549: real time      7.7708
    MIXING:  cpu time      0.1160: real time      0.1161
    --------------------------------------------
      LOOP:  cpu time    222.1793: real time    222.5054

 eigenvalue-minimisations  :   255
 total energy-change (2. order) :-0.2169044E+02  (-0.2680955E+01)
 number of electron      61.9999989 magnetization      16.4828225
 augmentation part        2.9927092 magnetization      16.3741961

 Broyden mixing:
  rms(total) = 0.83294E+00    rms(broyden)= 0.83289E+00
  rms(prec ) = 0.83952E+00
  weight for this iteration     100.00

 eigenvalues of (default mixing * dielectric matrix)
  average eigenvalue GAMMA=   1.1384
  0.7959  1.4808

 Free energy of the ion-electron system (eV)
  ---------------------------------------------------
  alpha Z        PSCENC =         0.26386137
  Ewald energy   TEWEN  =      7053.91138914
  -Hartree energ DENC   =     -9292.24987608
  -exchange      EXHF   =         0.00000000
  -V(xc)+E(xc)   XCENC  =       276.80444985
  PAW double counting   =      4022.25289042    -4052.29063940
  entropy T*S    EENTRO =        -0.00000000
  eigenvalues    EBANDS =      -943.18555020
  atomic energy  EATOM  =      2826.19653576
  Solvation  Ediel_sol  =       -24.65311614
  ---------------------------------------------------
  free energy    TOTEN  =      -132.95005530 eV

  energy without entropy =     -132.95005530  energy(sigma->0) =     -132.95005530


--------------------------------------------------------------------------------------------------------




--------------------------------------- Iteration      1(   4)  ---------------------------------------


    POTLOK:  cpu time    118.0216: real time    118.2464
    SETDIJ:  cpu time      0.3878: real time      0.3886
    EDDIAG:  cpu time     13.6924: real time     13.7200
  RMM-DIIS:  cpu time     98.6509: real time     98.8537
    ORTHCH:  cpu time      0.1629: real time      0.1633
       DOS:  cpu time      0.0003: real time      0.0003
    CHARGE:  cpu time      7.7434: real time      7.7603
    MIXING:  cpu time      0.1199: real time      0.1202
    --------------------------------------------
      LOOP:  cpu time    238.7793: real time    239.2527

 eigenvalue-minimisations  :   315
 total energy-change (2. order) :-0.7116802E+01  (-0.1163441E+01)
 number of electron      61.9999989 magnetization      15.5043941
 augmentation part        2.9548629 magnetization      15.4128675

 Broyden mixing:
  rms(total) = 0.51353E+00    rms(broyden)= 0.51348E+00
  rms(prec ) = 0.51658E+00
  weight for this iteration     100.00

 eigenvalues of (default mixing * dielectric matrix)
  average eigenvalue GAMMA=   1.2538
  1.9526  1.1062  0.7028

 Free energy of the ion-electron system (eV)
  ---------------------------------------------------
  alpha Z        PSCENC =         0.26386137
  Ewald energy   TEWEN  =      7053.91138914
  -Hartree energ DENC   =     -9341.86812878
  -exchange      EXHF   =         0.00000000
  -V(xc)+E(xc)   XCENC  =       273.98236222
  PAW double counting   =      4915.44973737    -4945.65865085
  entropy T*S    EENTRO =        -0.00000000
  eigenvalues    EBANDS =      -891.19887002
  atomic energy  EATOM  =      2826.19653576
  Solvation  Ediel_sol  =       -31.14509345
  ---------------------------------------------------
  free energy    TOTEN  =      -140.06685725 eV

  energy without entropy =     -140.06685725  energy(sigma->0) =     -140.06685725


--------------------------------------------------------------------------------------------------------




--------------------------------------- Iteration      1(   5)  ---------------------------------------


    POTLOK:  cpu time    117.7077: real time    117.9352
    SETDIJ:  cpu time      0.5090: real time      0.5100
    EDDIAG:  cpu time     13.6822: real time     13.7093
  RMM-DIIS:  cpu time    105.2289: real time    105.4436
    ORTHCH:  cpu time      0.1617: real time      0.1622
       DOS:  cpu time      0.0044: real time      0.0044
    CHARGE:  cpu time      7.7790: real time      7.7953
    MIXING:  cpu time      0.1209: real time      0.1210
    --------------------------------------------
      LOOP:  cpu time    245.1937: real time    245.6811

 eigenvalue-minimisations  :   348
 total energy-change (2. order) :-0.2383239E+01  (-0.2400307E+00)
 number of electron      61.9999988 magnetization      14.3758815
 augmentation part        2.9421892 magnetization      14.3032631

 Broyden mixing:
  rms(total) = 0.32154E+00    rms(broyden)= 0.32151E+00
  rms(prec ) = 0.32331E+00
  weight for this iteration     100.00

 eigenvalues of (default mixing * dielectric matrix)
  average eigenvalue GAMMA=   1.3520
  2.4179  1.4662  0.8578  0.6661

 Free energy of the ion-electron system (eV)
  ---------------------------------------------------
  alpha Z        PSCENC =         0.26386137
  Ewald energy   TEWEN  =      7053.91138914
  -Hartree energ DENC   =     -9355.98211731
  -exchange      EXHF   =         0.00000000
  -V(xc)+E(xc)   XCENC  =       272.78200884
  PAW double counting   =      5344.77059936    -5374.89401191
  entropy T*S    EENTRO =        -0.00000000
  eigenvalues    EBANDS =      -877.80622493
  atomic energy  EATOM  =      2826.19653576
  Solvation  Ediel_sol  =       -31.69213667
  ---------------------------------------------------
  free energy    TOTEN  =      -142.45009635 eV

  energy without entropy =     -142.45009635  energy(sigma->0) =     -142.45009635


--------------------------------------------------------------------------------------------------------




--------------------------------------- Iteration      1(   6)  ---------------------------------------


    POTLOK:  cpu time    115.0434: real time    115.1455
    SETDIJ:  cpu time      0.5844: real time      0.5854
    EDDIAG:  cpu time     13.7074: real time     13.7351
  RMM-DIIS:  cpu time    103.0391: real time    103.2540
    ORTHCH:  cpu time      0.1615: real time      0.1619
       DOS:  cpu time      0.0031: real time      0.0031
    CHARGE:  cpu time      7.7743: real time      7.8000
    MIXING:  cpu time      0.1293: real time      0.1294
    --------------------------------------------
      LOOP:  cpu time    240.4426: real time    240.8145

 eigenvalue-minimisations  :   342
 total energy-change (2. order) :-0.1474705E+01  (-0.1257390E+00)
 number of electron      61.9999988 magnetization      13.4344259
 augmentation part        2.9311745 magnetization      13.3776111

 Broyden mixing:
  rms(total) = 0.20829E+00    rms(broyden)= 0.20828E+00
  rms(prec ) = 0.20921E+00
  weight for this iteration     100.00

 eigenvalues of (default mixing * dielectric matrix)
  average eigenvalue GAMMA=   1.4078
  2.8271  1.7207  1.0777  0.7699  0.6439

 Free energy of the ion-electron system (eV)
  ---------------------------------------------------
  alpha Z        PSCENC =         0.26386137
  Ewald energy   TEWEN  =      7053.91138914
  -Hartree energ DENC   =     -9362.25089583
  -exchange      EXHF   =         0.00000000
  -V(xc)+E(xc)   XCENC  =       271.85462912
  PAW double counting   =      5590.51896604    -5620.47214449
  entropy T*S    EENTRO =        -0.00000000
  eigenvalues    EBANDS =      -875.25641325
  atomic energy  EATOM  =      2826.19653576
  Solvation  Ediel_sol  =       -28.69072952
  ---------------------------------------------------
  free energy    TOTEN  =      -143.92480166 eV

  energy without entropy =     -143.92480166  energy(sigma->0) =     -143.92480166


--------------------------------------------------------------------------------------------------------




--------------------------------------- Iteration      1(   7)  ---------------------------------------


    POTLOK:  cpu time    112.5372: real time    112.6491
    SETDIJ:  cpu time      0.4333: real time      0.4341
    EDDIAG:  cpu time     13.6244: real time     13.6534
  RMM-DIIS:  cpu time    105.1690: real time    105.3892
    ORTHCH:  cpu time      0.1604: real time      0.1609
       DOS:  cpu time      0.0011: real time      0.0011
    CHARGE:  cpu time      7.7824: real time      7.7986
    MIXING:  cpu time      0.1337: real time      0.1338
    --------------------------------------------
      LOOP:  cpu time    239.8416: real time    240.2202

 eigenvalue-minimisations  :   347
 total energy-change (2. order) : 0.3762132E+00  (-0.6816673E-01)
 number of electron      61.9999988 magnetization      12.0804792
 augmentation part        2.9242419 magnetization      12.0300482

 Broyden mixing:
  rms(total) = 0.16170E+00    rms(broyden)= 0.16169E+00
  rms(prec ) = 0.16232E+00
  weight for this iteration     100.00

 eigenvalues of (default mixing * dielectric matrix)
  average eigenvalue GAMMA=   1.4068
  3.0469  1.9720  1.0150  1.0150  0.7432  0.6487

 Free energy of the ion-electron system (eV)
  ---------------------------------------------------
  alpha Z        PSCENC =         0.26386137
  Ewald energy   TEWEN  =      7053.91138914
  -Hartree energ DENC   =     -9363.81503671
  -exchange      EXHF   =         0.00000000
  -V(xc)+E(xc)   XCENC  =       272.31826069
  PAW double counting   =      5633.99005966    -5663.86400450
  entropy T*S    EENTRO =        -0.00000000
  eigenvalues    EBANDS =      -877.62254025
  atomic energy  EATOM  =      2826.19653576
  Solvation  Ediel_sol  =       -24.92711364
  ---------------------------------------------------
  free energy    TOTEN  =      -143.54858849 eV

  energy without entropy =     -143.54858849  energy(sigma->0) =     -143.54858849


--------------------------------------------------------------------------------------------------------




--------------------------------------- Iteration      1(   8)  ---------------------------------------


    POTLOK:  cpu time    112.4993: real time    112.6014
    SETDIJ:  cpu time      0.3907: real time      0.3914
    EDDIAG:  cpu time     13.7244: real time     13.7515
  RMM-DIIS:  cpu time    103.6993: real time    103.9168
    ORTHCH:  cpu time      0.1628: real time      0.1633
       DOS:  cpu time      0.0005: real time      0.0005
    CHARGE:  cpu time      7.7655: real time      7.7817
    MIXING:  cpu time      0.1462: real time      0.1464
    --------------------------------------------
      LOOP:  cpu time    238.3888: real time    238.7530

 eigenvalue-minimisations  :   344
 total energy-change (2. order) : 0.1560056E+01  (-0.6524009E-01)
 number of electron      61.9999988 magnetization      10.1313321
 augmentation part        2.9191508 magnetization      10.0902654

 Broyden mixing:
  rms(total) = 0.11563E+00    rms(broyden)= 0.11563E+00
  rms(prec ) = 0.11599E+00
  weight for this iteration     100.00

 eigenvalues of (default mixing * dielectric matrix)
  average eigenvalue GAMMA=   1.6980
  4.4635  2.5332  1.5918  1.1523  0.7828  0.7324  0.6305

 Free energy of the ion-electron system (eV)
  ---------------------------------------------------
  alpha Z        PSCENC =         0.26386137
  Ewald energy   TEWEN  =      7053.91138914
  -Hartree energ DENC   =     -9364.06950328
  -exchange      EXHF   =         0.00000000
  -V(xc)+E(xc)   XCENC  =       273.73620063
  PAW double counting   =      5608.31455465    -5638.11877453
  entropy T*S    EENTRO =        -0.00000000
  eigenvalues    EBANDS =      -882.42131225
  atomic energy  EATOM  =      2826.19653576
  Solvation  Ediel_sol  =       -19.80148409
  ---------------------------------------------------
  free energy    TOTEN  =      -141.98853260 eV

  energy without entropy =     -141.98853260  energy(sigma->0) =     -141.98853260


--------------------------------------------------------------------------------------------------------




--------------------------------------- Iteration      1(   9)  ---------------------------------------


    POTLOK:  cpu time    112.5160: real time    112.6170
    SETDIJ:  cpu time      0.3877: real time      0.3885
    EDDIAG:  cpu time     13.7404: real time     13.7676
  RMM-DIIS:  cpu time    105.3952: real time    105.6204
    ORTHCH:  cpu time      0.1583: real time      0.1587
       DOS:  cpu time      0.0040: real time      0.0040
    CHARGE:  cpu time      7.7623: real time      7.7805
    MIXING:  cpu time      0.1497: real time      0.1499
    --------------------------------------------
      LOOP:  cpu time    240.1135: real time    240.4866

 eigenvalue-minimisations  :   348
 total energy-change (2. order) : 0.1757852E+01  (-0.3387008E-01)
 number of electron      61.9999988 magnetization       9.1939285
 augmentation part        2.9189471 magnetization       9.1607412

 Broyden mixing:
  rms(total) = 0.70829E-01    rms(broyden)= 0.70824E-01
  rms(prec ) = 0.71115E-01
  weight for this iteration     100.00

 eigenvalues of (default mixing * dielectric matrix)
  average eigenvalue GAMMA=   1.7616
  5.5144  2.5742  1.8329  1.0115  1.0115  0.7824  0.7436  0.6220

 Free energy of the ion-electron system (eV)
  ---------------------------------------------------
  alpha Z        PSCENC =         0.26386137
  Ewald energy   TEWEN  =      7053.91138914
  -Hartree energ DENC   =     -9365.42604843
  -exchange      EXHF   =         0.00000000
  -V(xc)+E(xc)   XCENC  =       275.32535787
  PAW double counting   =      5573.64589095    -5603.41051838
  entropy T*S    EENTRO =        -0.00000000
  eigenvalues    EBANDS =      -886.77946147
  atomic energy  EATOM  =      2826.19653576
  Solvation  Ediel_sol  =       -13.95768713
  ---------------------------------------------------
  free energy    TOTEN  =      -140.23068033 eV

  energy without entropy =     -140.23068033  energy(sigma->0) =     -140.23068033


--------------------------------------------------------------------------------------------------------




--------------------------------------- Iteration      1(  10)  ---------------------------------------


    POTLOK:  cpu time    106.7502: real time    106.9883
    SETDIJ:  cpu time      0.3838: real time      0.3844
    EDDIAG:  cpu time     13.7391: real time     13.7666
  RMM-DIIS:  cpu time    105.4461: real time    105.6615
    ORTHCH:  cpu time      0.1619: real time      0.1623
       DOS:  cpu time      0.0014: real time      0.0014
    CHARGE:  cpu time      7.7488: real time      7.7644
    MIXING:  cpu time      0.1552: real time      0.1553
    --------------------------------------------
      LOOP:  cpu time    234.3863: real time    234.8842

 eigenvalue-minimisations  :   348
 total energy-change (2. order) : 0.8225388E+00  (-0.1701807E-01)
 number of electron      61.9999988 magnetization       8.2641133
 augmentation part        2.9168508 magnetization       8.2361474

 Broyden mixing:
  rms(total) = 0.54017E-01    rms(broyden)= 0.54015E-01
  rms(prec ) = 0.54179E-01
  weight for this iteration     100.00

 eigenvalues of (default mixing * dielectric matrix)
  average eigenvalue GAMMA=   1.8398
  6.7189  2.5877  2.0447  1.3335  0.9905  0.7991  0.6211  0.7312  0.7312

 Free energy of the ion-electron system (eV)
  ---------------------------------------------------
  alpha Z        PSCENC =         0.26386137
  Ewald energy   TEWEN  =      7053.91138914
  -Hartree energ DENC   =     -9367.53052018
  -exchange      EXHF   =         0.00000000
  -V(xc)+E(xc)   XCENC  =       276.22471116
  PAW double counting   =      5571.35207036    -5601.14730034
  entropy T*S    EENTRO =        -0.00000000
  eigenvalues    EBANDS =      -885.86030047
  atomic energy  EATOM  =      2826.19653576
  Solvation  Ediel_sol  =       -12.81858830
  ---------------------------------------------------
  free energy    TOTEN  =      -139.40814150 eV

  energy without entropy =     -139.40814150  energy(sigma->0) =     -139.40814150


--------------------------------------------------------------------------------------------------------




--------------------------------------- Iteration      1(  11)  ---------------------------------------


    POTLOK:  cpu time    105.4733: real time    105.5784
    SETDIJ:  cpu time      0.3890: real time      0.3896
    EDDIAG:  cpu time     13.6903: real time     13.7197
  RMM-DIIS:  cpu time    105.2589: real time    105.4752
    ORTHCH:  cpu time      0.1620: real time      0.1624
       DOS:  cpu time      0.0016: real time      0.0016
    CHARGE:  cpu time      7.7792: real time      7.7951
    MIXING:  cpu time      0.1665: real time      0.1667
    --------------------------------------------
      LOOP:  cpu time    232.9209: real time    233.2888

 eigenvalue-minimisations  :   348
 total energy-change (2. order) : 0.9328486E+00  (-0.1223504E-01)
 number of electron      61.9999988 magnetization       7.2415840
 augmentation part        2.9148043 magnetization       7.2180885

 Broyden mixing:
  rms(total) = 0.41658E-01    rms(broyden)= 0.41656E-01
  rms(prec ) = 0.41747E-01
  weight for this iteration     100.00

 eigenvalues of (default mixing * dielectric matrix)
  average eigenvalue GAMMA=   1.9302
  7.7564  2.7061  2.2204  1.7078  1.0294  1.0294  0.6264  0.7530  0.7530  0.7204

 Free energy of the ion-electron system (eV)
  ---------------------------------------------------
  alpha Z        PSCENC =         0.26386137
  Ewald energy   TEWEN  =      7053.91138914
  -Hartree energ DENC   =     -9368.25780657
  -exchange      EXHF   =         0.00000000
  -V(xc)+E(xc)   XCENC  =       277.15439697
  PAW double counting   =      5565.21667834    -5595.02724396
  entropy T*S    EENTRO =        -0.00000000
  eigenvalues    EBANDS =      -885.89689054
  atomic energy  EATOM  =      2826.19653576
  Solvation  Ediel_sol  =       -12.03621340
  ---------------------------------------------------
  free energy    TOTEN  =      -138.47529290 eV

  energy without entropy =     -138.47529290  energy(sigma->0) =     -138.47529290


--------------------------------------------------------------------------------------------------------




--------------------------------------- Iteration      1(  12)  ---------------------------------------


    POTLOK:  cpu time    105.4648: real time    105.5859
    SETDIJ:  cpu time      0.4287: real time      0.4295
    EDDIAG:  cpu time     13.6684: real time     13.6964
  RMM-DIIS:  cpu time    105.4818: real time    105.7029
    ORTHCH:  cpu time      0.1541: real time      0.1545
       DOS:  cpu time      0.0060: real time      0.0060
    CHARGE:  cpu time      7.7697: real time      7.7844
    MIXING:  cpu time      0.1737: real time      0.1739
    --------------------------------------------
      LOOP:  cpu time    233.1472: real time    233.5336

 eigenvalue-minimisations  :   348
 total energy-change (2. order) : 0.9647561E+00  (-0.3519122E-02)
 number of electron      61.9999988 magnetization       6.2721999
 augmentation part        2.9140219 magnetization       6.2520342

 Broyden mixing:
  rms(total) = 0.32960E-01    rms(broyden)= 0.32958E-01
  rms(prec ) = 0.33014E-01
  weight for this iteration     100.00

 eigenvalues of (default mixing * dielectric matrix)
  average eigenvalue GAMMA=   1.9865
  8.4275  3.1699  2.4070  1.9272  1.2166  0.9544  0.9544  0.7582  0.7582  0.6258
  0.6522

 Free energy of the ion-electron system (eV)
  ---------------------------------------------------
  alpha Z        PSCENC =         0.26386137
  Ewald energy   TEWEN  =      7053.91138914
  -Hartree energ DENC   =     -9368.10870846
  -exchange      EXHF   =         0.00000000
  -V(xc)+E(xc)   XCENC  =       278.09923954
  PAW double counting   =      5562.54808512    -5592.36243982
  entropy T*S    EENTRO =        -0.00000000
  eigenvalues    EBANDS =      -886.30559388
  atomic energy  EATOM  =      2826.19653576
  Solvation  Ediel_sol  =       -11.75290558
  ---------------------------------------------------
  free energy    TOTEN  =      -137.51053681 eV

  energy without entropy =     -137.51053681  energy(sigma->0) =     -137.51053681


--------------------------------------------------------------------------------------------------------




--------------------------------------- Iteration      1(  13)  ---------------------------------------


    POTLOK:  cpu time    104.0133: real time    104.1278
    SETDIJ:  cpu time      0.4289: real time      0.4298
    EDDIAG:  cpu time     13.7316: real time     13.7587
  RMM-DIIS:  cpu time    105.2812: real time    105.4990
    ORTHCH:  cpu time      0.1584: real time      0.1588
       DOS:  cpu time      0.0027: real time      0.0027
    CHARGE:  cpu time      7.7528: real time      7.7841
    MIXING:  cpu time      0.1803: real time      0.1805
    --------------------------------------------
      LOOP:  cpu time    231.5492: real time    231.9415

 eigenvalue-minimisations  :   348
 total energy-change (2. order) : 0.8078721E+00  ( 0.6614337E-02)
 number of electron      61.9999988 magnetization       5.2853891
 augmentation part        2.9140733 magnetization       5.2674273

 Broyden mixing:
  rms(total) = 0.27025E-01    rms(broyden)= 0.27024E-01
  rms(prec ) = 0.27060E-01
  weight for this iteration     100.00

 eigenvalues of (default mixing * dielectric matrix)
  average eigenvalue GAMMA=   2.0326
  8.9864  3.8437  2.4845  2.0504  1.4231  1.0123  1.0123  0.8439  0.7380  0.7380
  0.6206  0.6382

 Free energy of the ion-electron system (eV)
  ---------------------------------------------------
  alpha Z        PSCENC =         0.26386137
  Ewald energy   TEWEN  =      7053.91138914
  -Hartree energ DENC   =     -9367.55874021
  -exchange      EXHF   =         0.00000000
  -V(xc)+E(xc)   XCENC  =       278.88529658
  PAW double counting   =      5566.46986922    -5596.28142757
  entropy T*S    EENTRO =        -0.00000000
  eigenvalues    EBANDS =      -886.62485786
  atomic energy  EATOM  =      2826.19653576
  Solvation  Ediel_sol  =       -11.96459112
  ---------------------------------------------------
  free energy    TOTEN  =      -136.70266469 eV

  energy without entropy =     -136.70266469  energy(sigma->0) =     -136.70266469


--------------------------------------------------------------------------------------------------------




--------------------------------------- Iteration      1(  14)  ---------------------------------------


    POTLOK:  cpu time    104.1382: real time    104.3108
    SETDIJ:  cpu time      0.4843: real time      0.4853
    EDDIAG:  cpu time     13.7324: real time     13.7594
  RMM-DIIS:  cpu time    105.4281: real time    105.6491
    ORTHCH:  cpu time      0.1594: real time      0.1598
       DOS:  cpu time      0.0027: real time      0.0027
    CHARGE:  cpu time      7.7737: real time      7.7902
    MIXING:  cpu time      0.1884: real time      0.1887
    --------------------------------------------
      LOOP:  cpu time    231.9073: real time    232.3460

 eigenvalue-minimisations  :   348
 total energy-change (2. order) : 0.6559331E+00  ( 0.2002180E-02)
 number of electron      61.9999988 magnetization       4.4404348
 augmentation part        2.9127846 magnetization       4.4237473

 Broyden mixing:
  rms(total) = 0.22461E-01    rms(broyden)= 0.22460E-01
  rms(prec ) = 0.22496E-01
  weight for this iteration     100.00

 eigenvalues of (default mixing * dielectric matrix)
  average eigenvalue GAMMA=   2.1266
  9.7171  4.7848  2.6837  2.3067  1.6488  1.1645  0.9789  0.8358  0.7868  0.7868
  0.6745  0.6388  0.6388

 Free energy of the ion-electron system (eV)
  ---------------------------------------------------
  alpha Z        PSCENC =         0.26386137
  Ewald energy   TEWEN  =      7053.91138914
  -Hartree energ DENC   =     -9366.85575085
  -exchange      EXHF   =         0.00000000
  -V(xc)+E(xc)   XCENC  =       279.51665412
  PAW double counting   =      5572.76634490    -5602.57185006
  entropy T*S    EENTRO =        -0.00000000
  eigenvalues    EBANDS =      -887.02528952
  atomic energy  EATOM  =      2826.19653576
  Solvation  Ediel_sol  =       -12.24862646
  ---------------------------------------------------
  free energy    TOTEN  =      -136.04673161 eV

  energy without entropy =     -136.04673161  energy(sigma->0) =     -136.04673161


--------------------------------------------------------------------------------------------------------




--------------------------------------- Iteration      1(  15)  ---------------------------------------


    POTLOK:  cpu time    101.1174: real time    101.3569
    SETDIJ:  cpu time      0.5843: real time      0.5859
    EDDIAG:  cpu time     13.6633: real time     13.6913
  RMM-DIIS:  cpu time    105.3518: real time    105.5666
    ORTHCH:  cpu time      0.1615: real time      0.1620
       DOS:  cpu time      0.0033: real time      0.0033
    CHARGE:  cpu time      7.7671: real time      7.7827
    MIXING:  cpu time      0.2001: real time      0.2004
    --------------------------------------------
      LOOP:  cpu time    228.8489: real time    229.3492

 eigenvalue-minimisations  :   348
 total energy-change (2. order) : 0.4873829E+00  (-0.1613361E-03)
 number of electron      61.9999988 magnetization       3.6871345
 augmentation part        2.9126439 magnetization       3.6720724

 Broyden mixing:
  rms(total) = 0.19137E-01    rms(broyden)= 0.19136E-01
  rms(prec ) = 0.19158E-01
  weight for this iteration     100.00

 eigenvalues of (default mixing * dielectric matrix)
  average eigenvalue GAMMA=   2.1504
 10.2975  5.4333  2.8443  2.3592  1.6646  1.3334  0.9171  0.9171  0.9548  0.7339
  0.7339  0.6541  0.6308  0.6308

 Free energy of the ion-electron system (eV)
  ---------------------------------------------------
  alpha Z        PSCENC =         0.26386137
  Ewald energy   TEWEN  =      7053.91138914
  -Hartree energ DENC   =     -9365.95594304
  -exchange      EXHF   =         0.00000000
  -V(xc)+E(xc)   XCENC  =       279.96942478
  PAW double counting   =      5577.78803057    -5607.58267283
  entropy T*S    EENTRO =        -0.00000000
  eigenvalues    EBANDS =      -887.70292950
  atomic energy  EATOM  =      2826.19653576
  Solvation  Ediel_sol  =       -12.44704492
  ---------------------------------------------------
  free energy    TOTEN  =      -135.55934866 eV

  energy without entropy =     -135.55934866  energy(sigma->0) =     -135.55934866


--------------------------------------------------------------------------------------------------------




--------------------------------------- Iteration      1(  16)  ---------------------------------------


    POTLOK:  cpu time     98.4057: real time     98.6436
    SETDIJ:  cpu time      0.4578: real time      0.4587
    EDDIAG:  cpu time     13.6647: real time     13.6966
  RMM-DIIS:  cpu time    105.2893: real time    105.5130
    ORTHCH:  cpu time      0.1654: real time      0.1659
       DOS:  cpu time      0.0002: real time      0.0002
    CHARGE:  cpu time      7.7711: real time      7.7872
    MIXING:  cpu time      0.2119: real time      0.2122
    --------------------------------------------
      LOOP:  cpu time    225.9663: real time    226.4776

 eigenvalue-minimisations  :   348
 total energy-change (2. order) : 0.4311213E+00  (-0.2279747E-02)
 number of electron      61.9999988 magnetization       2.3607387
 augmentation part        2.9125914 magnetization       2.3474201

 Broyden mixing:
  rms(total) = 0.16393E-01    rms(broyden)= 0.16391E-01
  rms(prec ) = 0.16411E-01
  weight for this iteration     100.00

 eigenvalues of (default mixing * dielectric matrix)
  average eigenvalue GAMMA=   2.2271
 10.8736  6.0761  3.0329  2.3306  2.1564  1.6724  1.0393  1.0393  0.9811  0.7900
  0.7402  0.7402  0.6862  0.6245  0.6245

 Free energy of the ion-electron system (eV)
  ---------------------------------------------------
  alpha Z        PSCENC =         0.26386137
  Ewald energy   TEWEN  =      7053.91138914
  -Hartree energ DENC   =     -9365.40089101
  -exchange      EXHF   =         0.00000000
  -V(xc)+E(xc)   XCENC  =       280.38253122
  PAW double counting   =      5580.13496871    -5609.92593756
  entropy T*S    EENTRO =        -0.00000000
  eigenvalues    EBANDS =      -888.11083337
  atomic energy  EATOM  =      2826.19653576
  Solvation  Ediel_sol  =       -12.57985159
  ---------------------------------------------------
  free energy    TOTEN  =      -135.12822733 eV

  energy without entropy =     -135.12822733  energy(sigma->0) =     -135.12822733


--------------------------------------------------------------------------------------------------------




--------------------------------------- Iteration      1(  17)  ---------------------------------------


    POTLOK:  cpu time    102.6375: real time    102.7414
    SETDIJ:  cpu time      0.5539: real time      0.5550
    EDDIAG:  cpu time     13.5971: real time     13.6258
  RMM-DIIS:  cpu time    105.5771: real time    105.7965
    ORTHCH:  cpu time      0.1603: real time      0.1607
       DOS:  cpu time      0.0032: real time      0.0032
    CHARGE:  cpu time      7.7461: real time      7.7671
    MIXING:  cpu time      0.2230: real time      0.2232
    --------------------------------------------
      LOOP:  cpu time    230.4982: real time    230.8730

 eigenvalue-minimisations  :   348
 total energy-change (2. order) : 0.7367344E+00  ( 0.4713069E-03)
 number of electron      61.9999988 magnetization       1.4393969
 augmentation part        2.9119092 magnetization       1.4273711

 Broyden mixing:
  rms(total) = 0.12675E-01    rms(broyden)= 0.12674E-01
  rms(prec ) = 0.12695E-01
  weight for this iteration     100.00

 eigenvalues of (default mixing * dielectric matrix)
  average eigenvalue GAMMA=   2.3253
 11.6509  6.9689  3.6319  2.6817  2.3590  1.5650  1.3418  0.9951  0.9951  0.9236
  0.7120  0.7120  0.7287  0.6958  0.6179  0.6257

 Free energy of the ion-electron system (eV)
  ---------------------------------------------------
  alpha Z        PSCENC =         0.26386137
  Ewald energy   TEWEN  =      7053.91138914
  -Hartree energ DENC   =     -9364.90740115
  -exchange      EXHF   =         0.00000000
  -V(xc)+E(xc)   XCENC  =       281.11069391
  PAW double counting   =      5580.79591872    -5610.58967337
  entropy T*S    EENTRO =        -0.00000000
  eigenvalues    EBANDS =      -888.41158458
  atomic energy  EATOM  =      2826.19653576
  Solvation  Ediel_sol  =       -12.76123271
  ---------------------------------------------------
  free energy    TOTEN  =      -134.39149292 eV

  energy without entropy =     -134.39149292  energy(sigma->0) =     -134.39149292


--------------------------------------------------------------------------------------------------------




--------------------------------------- Iteration      1(  18)  ---------------------------------------


    POTLOK:  cpu time    100.0781: real time    100.1877
    SETDIJ:  cpu time      0.4401: real time      0.4409
    EDDIAG:  cpu time     13.7221: real time     13.7505
  RMM-DIIS:  cpu time    105.5751: real time    105.7928
    ORTHCH:  cpu time      0.1682: real time      0.1687
       DOS:  cpu time      0.0007: real time      0.0007
    CHARGE:  cpu time      7.7444: real time      7.7610
    MIXING:  cpu time      0.2387: real time      0.2391
    --------------------------------------------
      LOOP:  cpu time    227.9675: real time    228.3415

 eigenvalue-minimisations  :   348
 total energy-change (2. order) : 0.4385347E+00  ( 0.1836327E-02)
 number of electron      61.9999988 magnetization       0.7213263
 augmentation part        2.9113854 magnetization       0.7094036

 Broyden mixing:
  rms(total) = 0.80915E-02    rms(broyden)= 0.80912E-02
  rms(prec ) = 0.81221E-02
  weight for this iteration     100.00

 eigenvalues of (default mixing * dielectric matrix)
  average eigenvalue GAMMA=   2.5370
 14.1622  8.3026  4.5252  2.6775  2.3137  1.5796  1.5796  1.0804  0.9964  0.9964
  0.8321  0.7229  0.7229  0.7216  0.6791  0.6118  0.6244

 Free energy of the ion-electron system (eV)
  ---------------------------------------------------
  alpha Z        PSCENC =         0.26386137
  Ewald energy   TEWEN  =      7053.91138914
  -Hartree energ DENC   =     -9364.68954509
  -exchange      EXHF   =         0.00000000
  -V(xc)+E(xc)   XCENC  =       281.54508809
  PAW double counting   =      5579.26202770    -5609.05737262
  entropy T*S    EENTRO =        -0.00000000
  eigenvalues    EBANDS =      -888.50897986
  atomic energy  EATOM  =      2826.19653576
  Solvation  Ediel_sol  =       -12.87596268
  ---------------------------------------------------
  free energy    TOTEN  =      -133.95295819 eV

[...]
  -exchange      EXHF   =         0.00000000
  -V(xc)+E(xc)   XCENC  =       282.81509862
  PAW double counting   =      5684.93568387    -5714.77990078
  entropy T*S    EENTRO =        -0.00000000
  eigenvalues    EBANDS =      -890.93738882
  atomic energy  EATOM  =      2826.19653576
  Solvation  Ediel_sol  =       -13.23491814
  ---------------------------------------------------
  free energy    TOTEN  =      -133.37136008 eV

  energy without entropy =     -133.37136008  energy(sigma->0) =     -133.37136008


--------------------------------------------------------------------------------------------------------




--------------------------------------- Iteration     26(   2)  ---------------------------------------


    POTLOK:  cpu time     88.6694: real time     88.7580
    SETDIJ:  cpu time      0.3889: real time      0.3897
    EDDIAG:  cpu time     13.4660: real time     13.4943
  RMM-DIIS:  cpu time     74.7107: real time     74.8669
    ORTHCH:  cpu time      0.1602: real time      0.1607
       DOS:  cpu time      0.0022: real time      0.0022
    --------------------------------------------
      LOOP:  cpu time    177.3974: real time    177.6718

 eigenvalue-minimisations  :   219
 total energy-change (2. order) :-0.4369525E-05  (-0.8149191E-05)
 number of electron      61.9999995 magnetization      -0.0000001
 augmentation part        2.9312355 magnetization      -0.0000001

 Free energy of the ion-electron system (eV)
  ---------------------------------------------------
  alpha Z        PSCENC =         0.26386137
  Ewald energy   TEWEN  =      7102.66268308
  -Hartree energ DENC   =     -9411.29391782
  -exchange      EXHF   =         0.00000000
  -V(xc)+E(xc)   XCENC  =       282.81504305
  PAW double counting   =      5685.01905304    -5714.86324696
  entropy T*S    EENTRO =        -0.00000000
  eigenvalues    EBANDS =      -890.93481182
  atomic energy  EATOM  =      2826.19653576
  Solvation  Ediel_sol  =       -13.23656416
  ---------------------------------------------------
  free energy    TOTEN  =      -133.37136445 eV

  energy without entropy =     -133.37136445  energy(sigma->0) =     -133.37136445


--------------------------------------------------------------------------------------------------------




 average (electrostatic) potential at core
  the test charge radii are     0.6991  0.7089  0.7215  0.5201
  (the norm of the test charge is              1.0000)
       1 -61.5756       2 -61.7395       3 -62.8127       4 -61.7650       5 -61.6682
       6 -61.8123       7 -63.3286       8 -60.7692       9 -82.4956      10 -84.0861
      11 -85.2027      12 -85.1988      13 -44.5108      14 -44.2717      15 -44.5107
      16 -44.8841      17 -44.9246      18 -44.9053      19 -44.6787
 
 
 
 E-fermi :  -6.1805     XC(G=0):  -0.0355     alpha+bet : -0.0204

 Fermi energy:        -6.1805189830

 spin component 1

 k-point     1 :       0.0000    0.0000    0.0000
  band No.  band energies     occupation 
      1     -32.7331      1.00000
      2     -28.0393      1.00000
      3     -27.7136      1.00000
      4     -23.5692      1.00000
      5     -21.5189      1.00000
      6     -20.3406      1.00000
      7     -19.6929      1.00000
      8     -18.5085      1.00000
      9     -16.4570      1.00000
     10     -15.9742      1.00000
     11     -14.7503      1.00000
     12     -14.4434      1.00000
     13     -13.9706      1.00000
     14     -13.5257      1.00000
     15     -12.6047      1.00000
     16     -12.3126      1.00000
     17     -11.8571      1.00000
     18     -11.4992      1.00000
     19     -11.3562      1.00000
     20     -10.8646      1.00000
     21     -10.6251      1.00000
     22     -10.1451      1.00000
     23      -9.6634      1.00000
     24      -9.2831      1.00000
     25      -9.1457      1.00000
     26      -8.3416      1.00000
     27      -8.0217      1.00000
     28      -7.4588      1.00000
     29      -7.3986      1.00000
     30      -7.2318      1.00000
     31      -6.4211      1.00000
     32      -3.9111      0.00000
     33      -2.3086      0.00000
     34      -1.6417      0.00000
     35      -0.0709      0.00000
     36      -0.0085      0.00000
     37       0.0146      0.00000
     38       0.0807      0.00000
     39       0.0846      0.00000
     40       0.0858      0.00000
     41       0.0884      0.00000
     42       0.0888      0.00000
     43       0.1303      0.00000
     44       0.1603      0.00000
     45       0.1710      0.00000
     46       0.1744      0.00000
     47       0.1802      0.00000
     48       0.1809      0.00000
     49       0.1814      0.00000
     50       0.1820      0.00000
     51       0.1826      0.00000
     52       0.1828      0.00000
     53       0.1828      0.00000
     54       0.1829      0.00000
     55       0.2512      0.00000
     56       0.2600      0.00000
 Fermi energy:        -6.1805189830

 spin component 2

 k-point     1 :       0.0000    0.0000    0.0000
  band No.  band energies     occupation 
      1     -32.7331      1.00000
      2     -28.0393      1.00000
      3     -27.7136      1.00000
      4     -23.5692      1.00000
      5     -21.5189      1.00000
      6     -20.3406      1.00000
      7     -19.6929      1.00000
      8     -18.5085      1.00000
      9     -16.4570      1.00000
     10     -15.9742      1.00000
     11     -14.7503      1.00000
     12     -14.4434      1.00000
     13     -13.9706      1.00000
     14     -13.5257      1.00000
     15     -12.6047      1.00000
     16     -12.3126      1.00000
     17     -11.8571      1.00000
     18     -11.4992      1.00000
     19     -11.3562      1.00000
     20     -10.8646      1.00000
     21     -10.6251      1.00000
     22     -10.1451      1.00000
     23      -9.6634      1.00000
     24      -9.2831      1.00000
     25      -9.1457      1.00000
     26      -8.3416      1.00000
     27      -8.0217      1.00000
     28      -7.4588      1.00000
     29      -7.3986      1.00000
     30      -7.2318      1.00000
     31      -6.4211      1.00000
     32      -3.9111      0.00000
     33      -2.3086      0.00000
     34      -1.6417      0.00000
     35      -0.0709      0.00000
     36      -0.0085      0.00000
     37       0.0146      0.00000
     38       0.0807      0.00000
     39       0.0846      0.00000
     40       0.0858      0.00000
     41       0.0884      0.00000
     42       0.0888      0.00000
     43       0.1303      0.00000
     44       0.1603      0.00000
     45       0.1710      0.00000
     46       0.1744      0.00000
     47       0.1802      0.00000
     48       0.1809      0.00000
     49       0.1814      0.00000
     50       0.1820      0.00000
     51       0.1826      0.00000
     52       0.1828      0.00000
     53       0.1828      0.00000
     54       0.1829      0.00000
     55       0.2512      0.00000
     56       0.2600      0.00000


--------------------------------------------------------------------------------------------------------


 soft charge-density along one line, spin component           1
         0         1         2         3         4         5         6         7         8         9
 total charge-density along one line
 
 soft charge-density along one line, spin component           2
         0         1         2         3         4         5         6         7         8         9
 total charge-density along one line
 
 pseudopotential strength for first ion, spin component:           1
 10.490  13.950   0.002   0.000  -0.001  -0.007  -0.000   0.004
 13.950  18.549   0.002   0.000  -0.001  -0.009  -0.000   0.006
  0.002   0.002  -4.405  -0.000  -0.000   8.544   0.000   0.001
  0.000   0.000  -0.000  -4.340   0.000   0.000   8.445  -0.000
 -0.001  -0.001  -0.000   0.000  -4.409   0.001  -0.000   8.550
 -0.007  -0.009   8.544   0.000   0.001 -18.839  -0.000  -0.001
 -0.000  -0.000   0.000   8.445  -0.000  -0.000 -18.710   0.000
  0.004   0.006   0.001  -0.000   8.550  -0.001   0.000 -18.849
 pseudopotential strength for first ion, spin component:           2
 10.490  13.950   0.002   0.000  -0.001  -0.007  -0.000   0.004
 13.950  18.549   0.002   0.000  -0.001  -0.009  -0.000   0.006
  0.002   0.002  -4.405  -0.000  -0.000   8.544   0.000   0.001
  0.000   0.000  -0.000  -4.340   0.000   0.000   8.445  -0.000
 -0.001  -0.001  -0.000   0.000  -4.409   0.001  -0.000   8.550
 -0.007  -0.009   8.544   0.000   0.001 -18.839  -0.000  -0.001
 -0.000  -0.000   0.000   8.445  -0.000  -0.000 -18.710   0.000
  0.004   0.006   0.001  -0.000   8.550  -0.001   0.000 -18.849
 total augmentation occupancy for first ion, spin component:           1
  8.789  -3.954   0.235   0.000  -0.169   0.048   0.000  -0.033
 -3.954   1.821  -0.170  -0.000   0.118  -0.030  -0.000   0.020
  0.235  -0.170   1.832   0.001   0.020   0.169   0.000   0.008
  0.000  -0.000   0.001   1.122  -0.000   0.000   0.076  -0.000
 -0.169   0.118   0.020  -0.000   1.884   0.008  -0.000   0.183
  0.048  -0.030   0.169   0.000   0.008   0.017   0.000   0.002
  0.000  -0.000   0.000   0.076  -0.000   0.000   0.005  -0.000
 -0.033   0.020   0.008  -0.000   0.183   0.002  -0.000   0.019
 total augmentation occupancy for first ion, spin component:           2
 -0.000   0.000   0.000   0.000  -0.000   0.000   0.000  -0.000
  0.000  -0.000  -0.000  -0.000   0.000  -0.000  -0.000   0.000
  0.000  -0.000  -0.000  -0.000   0.000  -0.000   0.000   0.000
  0.000  -0.000  -0.000   0.000  -0.000   0.000  -0.000  -0.000
 -0.000   0.000   0.000  -0.000  -0.000   0.000  -0.000  -0.000
  0.000  -0.000  -0.000   0.000   0.000  -0.000   0.000   0.000
  0.000  -0.000   0.000  -0.000  -0.000   0.000  -0.000  -0.000
 -0.000   0.000   0.000  -0.000  -0.000   0.000  -0.000  -0.000


------------------------ aborting loop because EDIFF is reached ----------------------------------------


    CHARGE:  cpu time      1.8367: real time      1.8406
    FORLOC:  cpu time      0.3625: real time      0.3630
    FORNL :  cpu time      4.8597: real time      4.8693
    STRESS:  cpu time    134.4686: real time    134.7278
    FORCOR:  cpu time      8.1238: real time      8.1406
    FORHAR:  cpu time      0.9588: real time      0.9603
    MIXING:  cpu time      0.1209: real time      0.1211
    OFIELD:  cpu time      0.0001: real time      0.0001

 ---------------------------------------------------------------------------------------------

         DFTD3 V3.0 Rev 1        
 Edisp (eV)   -0.17235

 E6    (eV) :    -0.1348
 E8    (eV) :    -0.0375
 % E8        : 21.77
    FORVDW:  cpu time      0.0062: real time      0.0062

  FORCE on cell =-STRESS in cart. coord.  units (eV):
  Direction    XX          YY          ZZ          XY          YZ          ZX
  --------------------------------------------------------------------------------------
  Alpha Z     0.26386     0.26386     0.26386
  Ewald    4813.94701  2842.07233  -553.35836   -13.46565     1.39693    -3.33319
  Hartree  5185.94365  3181.56794  1043.78313    13.43747     0.84568    -2.56702
  E(xc)    -255.40622  -256.47984  -260.32135     0.18967     0.00108    -0.00322
  Local  -10699.70707 -6659.76583 -1241.93097   -13.74044    -2.18289     5.87190
  n-local  -128.35032  -130.05982  -111.56229     0.55074    -0.00283     0.00700
  augment    21.01447    16.47356    17.98915     0.88223    -0.00149    -0.00225
  Kinetic  1060.51155  1005.86530  1105.87945    12.87324    -0.05386     0.02331
  Fock        0.00000     0.00000     0.00000     0.00000     0.00000     0.00000
  vdW        -0.08750    -0.02533    -0.00085    -0.00762    -0.00000     0.00006
  -------------------------------------------------------------------------------------
  Total      -1.87057    -0.08782     0.74178     0.71964     0.00264    -0.00342
  in kB      -0.04683    -0.00220     0.01857     0.01802     0.00007    -0.00009
  external pressure =       -0.01 kB  Pullay stress =        0.00 kB


 VOLUME and BASIS-vectors are now :
 -----------------------------------------------------------------------------
  energy-cutoff  :      500.00
  volume of cell :    64000.00
      direct lattice vectors                 reciprocal lattice vectors
    40.000000000  0.000000000  0.000000000     0.025000000  0.000000000  0.000000000
     0.000000000 40.000000000  0.000000000     0.000000000  0.025000000  0.000000000
     0.000000000  0.000000000 40.000000000     0.000000000  0.000000000  0.025000000

  length of vectors
    40.000000000 40.000000000 40.000000000     0.025000000  0.025000000  0.025000000


 FORCES acting on ions
    electron-ion (+dipol)            ewald-force                    non-local-force                 convergence-correction
 -----------------------------------------------------------------------------------------------
   -.523E+02 0.194E+03 0.150E+00   0.540E+02 -.196E+03 -.151E+00   -.135E+01 0.207E+01 0.220E-02   -.337E-02 -.297E-02 -.679E-03
   0.388E+02 0.203E+03 0.130E+00   -.394E+02 -.206E+03 -.131E+00   0.311E+00 0.321E+01 0.360E-02   0.374E-02 -.143E-02 -.277E-03
   0.211E+02 0.139E+00 -.683E-01   -.157E+02 -.499E+00 0.661E-01   -.603E+01 0.839E-01 0.251E-02   0.139E-02 0.118E-02 -.253E-05
   0.350E+02 -.203E+03 -.245E+00   -.360E+02 0.205E+03 0.247E+00   0.327E+00 -.317E+01 -.156E-02   0.231E-02 -.109E-02 -.592E-04
   -.596E+02 -.192E+03 -.142E+00   0.603E+02 0.193E+03 0.141E+00   -.121E+01 -.166E+01 0.409E-03   -.530E-02 0.291E-02 -.230E-03
   -.674E+02 -.734E+01 -.393E-01   0.681E+02 0.608E+01 0.398E-01   -.577E+00 0.195E+00 0.151E-02   -.123E-02 -.148E-02 -.598E-03
   -.734E+02 -.781E+02 0.720E-01   0.726E+02 0.820E+02 -.719E-01   0.161E+01 -.573E+01 0.869E-03   0.133E-02 -.175E-02 -.160E-03
   -.160E+03 -.142E+03 0.169E+00   0.162E+03 0.141E+03 -.176E+00   -.146E+01 -.475E+00 0.506E-02   0.436E-02 0.318E-02 0.348E-03
   0.603E+02 -.388E+00 -.965E-01   -.529E+02 0.176E+00 0.952E-01   -.973E+01 0.418E-01 -.856E-04   0.440E-03 -.742E-02 0.100E-02
   -.283E+03 0.305E+03 0.188E+00   0.310E+03 -.355E+03 -.206E+00   -.247E+02 0.464E+02 0.168E-01   -.105E-01 0.104E-01 -.301E-03
   0.324E+03 -.368E+03 -.150E+00   -.354E+03 0.419E+03 0.159E+00   0.270E+02 -.503E+02 -.121E-01   -.317E-02 0.250E-02 0.362E-02
   0.328E+03 0.365E+03 -.102E+00   -.359E+03 -.416E+03 0.104E+00   0.275E+02 0.500E+02 -.315E-02   -.812E-02 -.106E-01 0.154E-02
   -.182E+02 -.575E+02 -.569E+02   0.172E+02 0.604E+02 0.614E+02   0.121E+01 -.323E+01 -.465E+01   0.156E-02 0.283E-03 -.321E-03
   -.877E+02 -.908E+01 0.176E+00   0.936E+02 0.749E+01 -.189E+00   -.583E+01 0.123E+01 0.133E-01   0.271E-04 0.399E-03 0.365E-04
   -.180E+02 -.576E+02 0.568E+02   0.170E+02 0.606E+02 -.613E+02   0.123E+01 -.324E+01 0.464E+01   0.154E-02 0.348E-03 0.343E-03
   -.290E+02 -.867E+02 -.329E-01   0.319E+02 0.917E+02 0.339E-01   -.300E+01 -.543E+01 0.558E-04   -.124E-02 0.692E-03 -.578E-04
   0.267E+02 -.906E+02 -.966E-01   -.302E+02 0.956E+02 0.102E+00   0.321E+01 -.540E+01 -.578E-02   -.295E-03 0.438E-04 0.284E-05
   0.278E+02 0.904E+02 0.493E-01   -.312E+02 -.955E+02 -.511E-01   0.327E+01 0.536E+01 0.182E-02   0.338E-03 -.309E-03 -.828E-06
   -.282E+02 0.884E+02 0.958E-01   0.317E+02 -.935E+02 -.102E+00   -.319E+01 0.534E+01 0.719E-02   -.914E-03 0.295E-03 -.926E-04
 -----------------------------------------------------------------------------------------------
   -.846E+01 -.353E+02 -.247E-01   0.107E-13 0.142E-13 0.819E-15   0.848E+01 0.353E+02 0.210E-01   -.171E-01 -.487E-02 0.411E-02
 
 
 POSITION                                       TOTAL-FORCE (eV/Angst)
 -----------------------------------------------------------------------------------
     20.05244     18.54007     19.99936         0.002090      0.011875      0.000334
     18.66907     18.53838     20.00014         0.008878      0.002660      0.001317
     18.00946     19.76375     20.00153        -0.000332     -0.001912      0.000035
     18.68412     20.97807     20.00213         0.010955      0.011616      0.000240
     20.07169     20.96201     20.00113         0.000338     -0.015235     -0.000998
     20.76490     19.74587     19.99985         0.003129      0.004853      0.001070
     22.26268     19.68604     19.99841         0.002247     -0.016721      0.001204
     23.04446     20.96474     19.99761        -0.002533      0.014636     -0.000498
     16.54551     19.77266     20.00215        -0.002749     -0.012515     -0.001064
     22.82610     18.59487     19.99802         0.003282     -0.002991     -0.000486
     15.96772     20.86484     20.00240        -0.003909     -0.002065      0.000297
     15.95640     18.68639     20.00217        -0.003321      0.011984     -0.001317
     22.79888     21.56572     20.87696        -0.013420     -0.001945      0.007823
     24.10717     20.73495     19.99518         0.010265      0.009771     -0.000202
     22.79498     21.56758     19.12070        -0.013228     -0.002141     -0.008526
     20.60451     21.90420     20.00114         0.000472     -0.015267      0.000852
     18.13270     21.90755     20.00314         0.007669     -0.000379      0.000018
     18.10654     17.61584     19.99981        -0.006151     -0.002384     -0.000478
     20.60066     17.60663     19.99812        -0.003681      0.006160      0.000381
 -----------------------------------------------------------------------------------
    total drift:                               -0.001176     -0.008710      0.000492


--------------------------------------------------------------------------------------------------------



  FREE ENERGIE OF THE ION-ELECTRON SYSTEM (eV)
  ---------------------------------------------------
  free  energy   TOTEN  =      -133.54371130 eV

  energy  without entropy=     -133.54371130  energy(sigma->0) =     -133.54371130
 
 d Force = 0.5500727E-04[ 0.373E-04, 0.728E-04]  d Energy = 0.5418688E-04 0.820E-06
 d Force =-0.2772464E+00[-0.277E+00,-0.277E+00]  d Ewald  =-0.2772464E+00-0.102E-07


--------------------------------------------------------------------------------------------------------


    POTLOK:  cpu time     87.6762: real time     87.8810


--------------------------------------------------------------------------------------------------------


 Conjugate gradient step on ions:
 trial-energy change:   -0.000054  1 .order   -0.000055   -0.000073   -0.000037
  (g-gl).g = 0.223E-03      g.g   = 0.249E-03  gl.gl    = 0.360E-03
 g(Force)  = 0.249E-03   g(Stress)= 0.000E+00 ortho     = 0.490E-04
 gamma     =   0.61914
 trial     =   0.26054
 opt step  =   0.53388  (harmonic =   0.53388) maximal distance =0.00099170
 next E    =  -133.543732   (d E  =  -0.00007)


--------------------------------------------------------------------------------------------------------


  
 reached required accuracy - stopping structural energy minimisation
 writing wavefunctions
     LOOP+:  cpu time    596.1101: real time    598.1980
    4ORBIT:  cpu time      0.0000: real time      0.0000

 total amount of memory used by VASP MPI-rank0   920330. kBytes
=======================================================================

   base      :      30000. kBytes
   nonlr-proj:       1856. kBytes
   fftplans  :     167689. kBytes
   grid      :     684374. kBytes
   one-center:         12. kBytes
   wavefun   :      36399. kBytes
 
  
  
 General timing and accounting informations for this job:
 ========================================================
  
                  Total CPU time used (sec):    45874.422
                            User time (sec):    43273.119
                          System time (sec):     2601.302
                         Elapsed time (sec):    45969.934
  
                   Maximum memory used (kb):     2156456.
                   Average memory used (kb):          N/A
  
                          Minor page faults:    215895053
                          Major page faults:            0
                 Voluntary context switches:      1906841
