 vasp.5.4.4.18Apr17-6-g9f103f2a35 (build Nov 09 2017 14:00:25) complex          
  
 executed on             LinuxIFC date 2024.09.08  07:51:30
 running on   16 total cores
 distrk:  each k-point on   16 cores,    1 groups
 distr:  one band on NCORES_PER_BAND=  16 cores,    1 groups


--------------------------------------------------------------------------------------------------------


 INCAR:
 POTCAR:    PAW_PBE C 08Apr2002                   
 POTCAR:    PAW_PBE H 15Jun2001                   

 ----------------------------------------------------------------------------- 
|                                                                             |
|           W    W    AA    RRRRR   N    N  II  N    N   GGGG   !!!           |
|           W    W   A  A   R    R  NN   N  II  NN   N  G    G  !!!           |
|           W    W  A    A  R    R  N N  N  II  N N  N  G       !!!           |
|           W WW W  AAAAAA  RRRRR   N  N N  II  N  N N  G  GGG   !            |
|           WW  WW  A    A  R   R   N   NN  II  N   NN  G    G                |
|           W    W  A    A  R    R  N    N  II  N    N   GGGG   !!!           |
|                                                                             |
|      For optimal performance we recommend to set                            |
|        NCORE= 4 - approx SQRT( number of cores)                             |
|      NCORE specifies how many cores store one orbital (NPAR=cpu/NCORE).     |
|      This setting can  greatly improve the performance of VASP for DFT.     |
|      The default,   NCORE=1            might be grossly inefficient         |
|      on modern multi-core architectures or massively parallel machines.     |
|      Do your own testing !!!!                                               |
|      Unfortunately you need to use the default for GW and RPA calculations. |
|      (for HF NCORE is supported but not extensively tested yet)             |
|                                                                             |
 ----------------------------------------------------------------------------- 

 POTCAR:    PAW_PBE C 08Apr2002                   
   VRHFIN =C: s2p2                                                              
   LEXCH  = PE                                                                  
   EATOM  =   147.1560 eV,   10.8157 Ry                                         
                                                                                
   TITEL  = PAW_PBE C 08Apr2002                                                 
   LULTRA =        F    use ultrasoft PP ?                                      
   IUNSCR =        1    unscreen: 0-lin 1-nonlin 2-no                           
   RPACOR =    1.200    partial core radius                                     
   POMASS =   12.011; ZVAL   =    4.000    mass and valenz                      
   RCORE  =    1.500    outmost cutoff radius                                   
   RWIGS  =    1.630; RWIGS  =    0.863    wigner-seitz radius (au A)           
   ENMAX  =  400.000; ENMIN  =  300.000 eV                                      
   ICORE  =        2    local potential                                         
   LCOR   =        T    correct aug charges                                     
   LPAW   =        T    paw PP                                                  
   EAUG   =  644.873                                                            
   DEXC   =    0.000                                                            
   RMAX   =    1.529    core radius for proj-oper                               
   RAUG   =    1.300    factor for augmentation sphere                          
   RDEP   =    1.501    radius for radial grids                                 
   RDEPT  =    1.300    core radius for aug-charge                              
                                                                                
   Atomic configuration                                                         
    4 entries                                                                   
     n  l   j            E        occ.                                          
     1  0  0.50      -273.3789   2.0000                                         
     2  0  0.50       -13.7508   2.0000                                         
     2  1  0.50        -5.2854   2.0000                                         
     3  2  1.50        -5.4423   0.0000                                         
   Description                                                                  
     l       E           TYP  RCUT    TYP  RCUT                                 
     0    -13.7508458     23  1.200                                             
     0     -8.2022199     23  1.200                                             
     1     -5.2854383     23  1.500                                             
     1     34.0145650     23  1.500                                             
     2     -5.4423304      7  1.500                                             
  local pseudopotential read in
  partial core-charges read in
  partial kinetic energy density read in
  atomic valenz-charges read in
  non local Contribution for L=           0  read in
    real space projection operators read in
  non local Contribution for L=           0  read in
    real space projection operators read in
  non local Contribution for L=           1  read in
    real space projection operators read in
  non local Contribution for L=           1  read in
    real space projection operators read in
    PAW grid and wavefunctions read in
 
   number of l-projection  operators is LMAX  =           4
   number of lm-projection operators is LMMAX =           8
 
 POTCAR:    PAW_PBE H 15Jun2001                   
   VRHFIN =H: ultrasoft test                                                    
   LEXCH  = PE                                                                  
   EATOM  =    12.4884 eV,    0.9179 Ry                                         
                                                                                
   TITEL  = PAW_PBE H 15Jun2001                                                 
   LULTRA =        F    use ultrasoft PP ?                                      
   IUNSCR =        0    unscreen: 0-lin 1-nonlin 2-no                           
   RPACOR =    0.000    partial core radius                                     
   POMASS =    1.000; ZVAL   =    1.000    mass and valenz                      
   RCORE  =    1.100    outmost cutoff radius                                   
   RWIGS  =    0.700; RWIGS  =    0.370    wigner-seitz radius (au A)           
   ENMAX  =  250.000; ENMIN  =  200.000 eV                                      
   RCLOC  =    0.701    cutoff for local pot                                    
   LCOR   =        T    correct aug charges                                     
   LPAW   =        T    paw PP                                                  
   EAUG   =  400.000                                                            
   RMAX   =    1.123    core radius for proj-oper                               
   RAUG   =    1.200    factor for augmentation sphere                          
   RDEP   =    1.112    radius for radial grids                                 
   RDEPT  =    0.926    core radius for aug-charge                              
                                                                                
   Atomic configuration                                                         
    2 entries                                                                   
     n  l   j            E        occ.                                          
     1  0  0.50        -6.4927   1.0000                                         
     2  1  0.50        -3.4015   0.0000                                         
   Description                                                                  
     l       E           TYP  RCUT    TYP  RCUT                                 
     0     -6.4927494     23  1.100                                             
     0      6.8029130     23  1.100                                             
     1     -4.0817478     23  1.100                                             
  local pseudopotential read in
  atomic valenz-charges read in
  non local Contribution for L=           0  read in
    real space projection operators read in
  non local Contribution for L=           0  read in
    real space projection operators read in
  non local Contribution for L=           1  read in
    real space projection operators read in
    PAW grid and wavefunctions read in
 
   number of l-projection  operators is LMAX  =           3
   number of lm-projection operators is LMMAX =           5
 
 Optimization of the real space projectors (new method)

 maximal supplied QI-value         = 25.13
 optimisation between [QCUT,QGAM] = [ 11.31, 22.87] = [ 35.82,146.48] Ry 
 Optimized for a Real-space Cutoff    1.03 Angstroem

   l    n(q)    QCUT    max X(q) W(low)/X(q) W(high)/X(q)  e(spline) 
   0      7    11.310   115.676    0.20E-03    0.90E-03    0.20E-06
   0      7    11.310    87.132    0.20E-03    0.89E-03    0.19E-06
   1      6    11.310     4.429    0.16E-03    0.28E-03    0.12E-06
   1      6    11.310     2.733    0.12E-03    0.21E-03    0.99E-07
 Optimization of the real space projectors (new method)

 maximal supplied QI-value         = 34.20
 optimisation between [QCUT,QGAM] = [ 11.29, 22.57] = [ 35.68,142.71] Ry 
 Optimized for a Real-space Cutoff    1.20 Angstroem

   l    n(q)    QCUT    max X(q) W(low)/X(q) W(high)/X(q)  e(spline) 
   0      8    11.287    19.460    0.22E-03    0.50E-03    0.19E-06
   0      8    11.287    12.209    0.21E-03    0.48E-03    0.18E-06
   1      8    11.287     4.655    0.21E-03    0.11E-04    0.26E-06
  PAW_PBE C 08Apr2002                   :
 energy of atom  1       EATOM= -147.1560
 kinetic energy error for atom=    0.0076 (will be added to EATOM!!)
  PAW_PBE H 15Jun2001                   :
 energy of atom  2       EATOM=  -12.4884
 kinetic energy error for atom=    0.0020 (will be added to EATOM!!)
 
 
 POSCAR: C H                                     
  positions in direct lattice
  No initial velocities read in
 exchange correlation table for  LEXCH =        8
   RHO(1)=    0.500       N(1)  =     2000
   RHO(2)=  100.500       N(2)  =     4000
 


--------------------------------------------------------------------------------------------------------


 ion  position               nearest neighbor table
   1  0.603  0.530  0.500-  24 1.09   6 1.39   2 1.40
   2  0.621  0.500  0.500-  23 1.09   3 1.40   1 1.40
   3  0.603  0.470  0.500-  22 1.09   4 1.39   2 1.40
   4  0.569  0.470  0.500-  21 1.09   3 1.39   5 1.41
   5  0.551  0.500  0.500-   6 1.41   4 1.41   7 1.42
   6  0.569  0.530  0.500-  15 1.09   1 1.39   5 1.41
   7  0.515  0.500  0.500-   8 1.22   5 1.42
   8  0.485  0.500  0.500-   7 1.22   9 1.42
   9  0.449  0.500  0.500-  14 1.41  10 1.41   8 1.42
  10  0.431  0.470  0.500-  20 1.09  11 1.39   9 1.41
  11  0.397  0.470  0.500-  19 1.09  10 1.39  12 1.40
  12  0.379  0.500  0.500-  18 1.09  11 1.40  13 1.40
  13  0.397  0.530  0.500-  17 1.09  14 1.39  12 1.40
  14  0.431  0.530  0.500-  16 1.09  13 1.39   9 1.41
  15  0.555  0.554  0.500-   6 1.09
  16  0.445  0.554  0.500-  14 1.09
  17  0.383  0.554  0.500-  13 1.09
  18  0.352  0.500  0.500-  12 1.09
  19  0.383  0.446  0.500-  11 1.09
  20  0.445  0.446  0.500-  10 1.09
  21  0.555  0.446  0.500-   4 1.09
  22  0.617  0.446  0.500-   3 1.09
  23  0.648  0.500  0.500-   2 1.09
  24  0.617  0.554  0.500-   1 1.09
 
  LATTYP: Found a simple cubic cell.
 ALAT       =    40.0000000000
  
  Lattice vectors:
  
 A1 = (  40.0000000000,   0.0000000000,   0.0000000000)
 A2 = (   0.0000000000,  40.0000000000,   0.0000000000)
 A3 = (   0.0000000000,   0.0000000000,  40.0000000000)


Analysis of symmetry for initial positions (statically):
=====================================================================
 Subroutine PRICEL returns:
 Original cell was already a primitive cell.
 

 Routine SETGRP: Setting up the symmetry group for a 
 simple cubic supercell.


 Subroutine GETGRP returns: Found  1 space group operations
 (whereof  1 operations were pure point group operations)
 out of a pool of 48 trial point group operations.


The static configuration has the point symmetry C_1 .


Analysis of symmetry for dynamics (positions and initial velocities):
=====================================================================
 Subroutine PRICEL returns:
 Original cell was already a primitive cell.
 

 Routine SETGRP: Setting up the symmetry group for a 
 simple cubic supercell.


 Subroutine GETGRP returns: Found  1 space group operations
 (whereof  1 operations were pure point group operations)
 out of a pool of 48 trial point group operations.


The dynamic configuration has the point symmetry C_1 .


Analysis of constrained symmetry for selective dynamics:
=====================================================================
 Subroutine PRICEL returns:
 Original cell was already a primitive cell.
 

 Routine SETGRP: Setting up the symmetry group for a 
 simple cubic supercell.


 Subroutine GETGRP returns: Found  1 space group operations
 (whereof  1 operations were pure point group operations)
 out of a pool of 48 trial point group operations.


The constrained configuration has the point symmetry C_1 .


Analysis of structural, dynamic, and magnetic symmetry:
=====================================================================
 Subroutine PRICEL returns:
 Original cell was already a primitive cell.
 

 Routine SETGRP: Setting up the symmetry group for a 
 simple cubic supercell.


 Subroutine GETGRP returns: Found  1 space group operations
 (whereof  1 operations were pure point group operations)
 out of a pool of 48 trial point group operations.


The magnetic configuration has the point symmetry C_1 .


 Subroutine INISYM returns: Found  1 space group operations
 (whereof  1 operations are pure point group operations),
 and found     1 'primitive' translations

 
 
 KPOINTS: K-Point Grid                            

Automatic generation of k-mesh.
Space group operators:
 irot       det(A)        alpha          n_x          n_y          n_z        tau_x        tau_y        tau_z
    1     1.000000     0.000000     1.000000     0.000000     0.000000     0.000000     0.000000     0.000000
 
 Subroutine IBZKPT returns following result:
 ===========================================
 
 Found      1 irreducible k-points:
 
 Following reciprocal coordinates:
            Coordinates               Weight
  0.000000  0.000000  0.000000      1.000000
 
 Following cartesian coordinates:
            Coordinates               Weight
  0.000000  0.000000  0.000000      1.000000
 


--------------------------------------------------------------------------------------------------------




 Dimension of arrays:
   k-points           NKPTS =      1   k-points in BZ     NKDIM =      1   number of bands    NBANDS=     58
   number of dos      NEDOS =    301   number of ions     NIONS =     24
   non local maximal  LDIM  =      4   non local SUM 2l+1 LMDIM =      8
   total plane-waves  NPLWV = ******
   max r-space proj   IRMAX =   2915   max aug-charges    IRDMAX=   4885
   dimension x,y,z NGX =   294 NGY =  294 NGZ =  294
   dimension x,y,z NGXF=   588 NGYF=  588 NGZF=  588
   support grid    NGXF=   588 NGYF=  588 NGZF=  588
   ions per type =              14  10
   NGX,Y,Z   is equivalent  to a cutoff of  12.22, 12.22, 12.22 a.u.
   NGXF,Y,Z  is equivalent  to a cutoff of  24.44, 24.44, 24.44 a.u.

 SYSTEM =  003_red                                 
 POSCAR =  C H                                     

 Startparameter for this run:
   NWRITE =      2    write-flag & timer
   PREC   = accura    normal or accurate (medium, high low for compatibility)
   ISTART =      0    job   : 0-new  1-cont  2-samecut
   ICHARG =      2    charge: 1-file 2-atom 10-const
   ISPIN  =      2    spin polarized calculation?
   LNONCOLLINEAR =      F non collinear calculations
   LSORBIT =      F    spin-orbit coupling
   INIWAV =      1    electr: 0-lowe 1-rand  2-diag
   LASPH  =      F    aspherical Exc in radial PAW
   METAGGA=      F    non-selfconsistent MetaGGA calc.

 Electronic Relaxation 1
   ENCUT  =  500.0 eV  36.75 Ry    6.06 a.u.  72.93 72.93 72.93*2*pi/ulx,y,z
   ENINI  =  500.0     initial cutoff
   ENAUG  =  644.9 eV  augmentation charge cutoff
   NELM   =    100;   NELMIN=  2; NELMDL= -5     # of ELM steps 
   EDIFF  = 0.1E-04   stopping-criterion for ELM
   LREAL  =      T    real-space projection
   NLSPLINE    = F    spline interpolate recip. space projectors
   LCOMPAT=      F    compatible to vasp.4.4
   GGA_COMPAT  = T    GGA compatible to vasp.4.4-vasp.4.6
   LMAXPAW     = -100 max onsite density
   LMAXMIX     =    2 max onsite mixed and CHGCAR
   VOSKOWN=      0    Vosko Wilk Nusair interpolation
   ROPT   =   -0.00025  -0.00025
 Ionic relaxation
   EDIFFG = -.2E-01   stopping-criterion for IOM
   NSW    =    500    number of steps for IOM
   NBLOCK =      1;   KBLOCK =    500    inner block; outer block 
   IBRION =      2    ionic relax: 0-MD 1-quasi-New 2-CG
   NFREE  =      1    steps in history (QN), initial steepest desc. (CG)
   ISIF   =      2    stress and relaxation
   IWAVPR =     11    prediction:  0-non 1-charg 2-wave 3-comb
   ISYM   =      2    0-nonsym 1-usesym 2-fastsym
   LCORR  =      T    Harris-Foulkes like correction to forces

   POTIM  = 0.5000    time-step for ionic-motion
   TEIN   =    0.0    initial temperature
   TEBEG  =    0.0;   TEEND  =   0.0 temperature during run
   SMASS  =  -3.00    Nose mass-parameter (am)
   estimated Nose-frequenzy (Omega)   =  0.10E-29 period in steps =****** mass=  -0.366E-25a.u.
   SCALEE = 1.0000    scale energy and forces
   NPACO  =    256;   APACO  = 16.0  distance and # of slots for P.C.
   PSTRESS=    0.0 pullay stress

  Mass of Ions in am
   POMASS =  12.01  1.00
  Ionic Valenz
   ZVAL   =   4.00  1.00
  Atomic Wigner-Seitz radii
   RWIGS  =  -1.00 -1.00
  virtual crystal weights 
   VCA    =   1.00  1.00
   NELECT =      66.0000    total number of electrons
   NUPDOWN=      -1.0000    fix difference up-down

 DOS related values:
   EMIN   =  10.00;   EMAX   =-10.00  energy-range for DOS
   EFERMI =   0.00
   ISMEAR =     0;   SIGMA  =   0.05  broadening in eV -4-tet -1-fermi 0-gaus

 Electronic relaxation 2 (details)
   IALGO  =     68    algorithm
   LDIAG  =      T    sub-space diagonalisation (order eigenvalues)
   LSUBROT=      F    optimize rotation matrix (better conditioning)
   TURBO    =      0    0=normal 1=particle mesh
   IRESTART =      0    0=no restart 2=restart with 2 vectors
   NREBOOT  =      0    no. of reboots
   NMIN     =      0    reboot dimension
   EREF     =   0.00    reference energy to select bands
   IMIX   =      4    mixing-type and parameters
     AMIX     =   0.40;   BMIX     =  1.00
     AMIX_MAG =   1.60;   BMIX_MAG =  1.00
     AMIN     =   0.10
     WC   =   100.;   INIMIX=   1;  MIXPRE=   1;  MAXMIX= -45

 Intra band minimization:
   WEIMIN = 0.0010     energy-eigenvalue tresh-hold
   EBREAK =  0.43E-07  absolut break condition
   DEPER  =   0.30     relativ break condition  

   TIME   =   0.40     timestep for ELM

  volume/ion in A,a.u.               =    2666.67     17995.55
  Fermi-wavevector in a.u.,A,eV,Ry     =   0.165398  0.312556  0.372206  0.027356
  Thomas-Fermi vector in A             =   0.867199
 
 Write flags
   LWAVE        =      T    write WAVECAR
   LDOWNSAMPLE  =      F    k-point downsampling of WAVECAR
   LCHARG       =      F    write CHGCAR
   LVTOT        =      F    write LOCPOT, total local potential
   LVHAR        =      F    write LOCPOT, Hartree potential only
   LELF         =      F    write electronic localiz. function (ELF)
   LORBIT       =      0    0 simple, 1 ext, 2 COOP (PROOUT), +10 PAW based schemes


 Dipole corrections
   LMONO  =      F    monopole corrections only (constant potential shift)
   LDIPOL =      F    correct potential (dipole corrections)
   IDIPOL =      0    1-x, 2-y, 3-z, 4-all directions 
   EPSILON=  1.0000000 bulk dielectric constant

 Exchange correlation treatment:
   GGA     =    --    GGA type
   LEXCH   =     8    internal setting for exchange type
   VOSKOWN=      0    Vosko Wilk Nusair interpolation
   LHFCALC =     F    Hartree Fock is set to
   LHFONE  =     F    Hartree Fock one center treatment
   AEXX    =    0.0000 exact exchange contribution

 Linear response parameters
   LEPSILON=     F    determine dielectric tensor
   LRPA    =     F    only Hartree local field effects (RPA)
   LNABLA  =     F    use nabla operator in PAW spheres
   LVEL    =     F    velocity operator in full k-point grid
   LINTERFAST=   F  fast interpolation
   KINTER  =     0    interpolate to denser k-point grid
   CSHIFT  =0.1000    complex shift for real part using Kramers Kronig
   OMEGAMAX=  -1.0    maximum frequency
   DEG_THRESHOLD= 0.2000000E-02 threshold for treating states as degnerate
   RTIME   =   -0.100 relaxation time in fs
  (WPLASMAI=    0.000 imaginary part of plasma frequency in eV, 0.658/RTIME)
   DFIELD  = 0.0000000 0.0000000 0.0000000 field for delta impulse in time
 
 Orbital magnetization related:
   ORBITALMAG=     F  switch on orbital magnetization
   LCHIMAG   =     F  perturbation theory with respect to B field
   DQ        =  0.001000  dq finite difference perturbation B field
   LLRAUG    =     F  two centre corrections for induced B field

 Solvation model:
   LSOL    =     T         switch on solvation model
   EB_K    = 35.688000     relative permittivity of the bulk solvent
   SIGMA_K =  0.600000     width of the dielectric cavity
   NC_K    =  0.002500     cutoff charge density
   TAU     =  0.000000     cavity surface tension
   LAMBDA_D_K    =  3.040000     Debye length in Angstroms
   LRHOB     =     F     write boundcharge  density
   LRHOION     =     F     write ioniccharge density



--------------------------------------------------------------------------------------------------------


 conjugate gradient relaxation of ions
   using selective dynamics as specified on POSCAR
 charge density and potential will be updated during run
 spin polarized calculation
 RMM-DIIS sequential band-by-band and
  variant of blocked Davidson during initial phase
 perform sub-space diagonalisation
    before iterative eigenvector-optimisation
 modified Broyden-mixing scheme, WC =      100.0
 initial mixing is a Kerker type mixing with AMIX =  0.4000 and BMIX =      1.0000
 Hartree-type preconditioning will be used
 using additional bands           25
 real space projection scheme for non local part
 use partial core corrections
 calculate Harris-corrections to forces 
   (improved forces if not selfconsistent)
 use gradient corrections 
 use of overlap-Matrix (Vanderbilt PP)
 Gauss-broadening in eV      SIGMA  =   0.05


--------------------------------------------------------------------------------------------------------


  energy-cutoff  :      500.00
  volume of cell :    64000.00
      direct lattice vectors                 reciprocal lattice vectors
    40.000000000  0.000000000  0.000000000     0.025000000  0.000000000  0.000000000
     0.000000000 40.000000000  0.000000000     0.000000000  0.025000000  0.000000000
     0.000000000  0.000000000 40.000000000     0.000000000  0.000000000  0.025000000

  length of vectors
    40.000000000 40.000000000 40.000000000     0.025000000  0.025000000  0.025000000


 
 k-points in units of 2pi/SCALE and weight: K-Point Grid                            
   0.00000000  0.00000000  0.00000000       1.000
 
 k-points in reciprocal lattice and weights: K-Point Grid                            
   0.00000000  0.00000000  0.00000000       1.000
 
 position of ions in fractional coordinates (direct lattice) 
   0.60349200  0.53018300  0.50000400
   0.62099600  0.50000200  0.49999700
   0.60349400  0.46982000  0.49999200
   0.56872400  0.46970700  0.49999400
   0.55084300  0.49999900  0.50000200
   0.56872200  0.53029200  0.50000600
   0.51523200  0.49999800  0.50000400
   0.48476800  0.49999600  0.50000800
   0.44915700  0.49999800  0.50000500
   0.43127500  0.46970600  0.50000900
   0.39650500  0.46981900  0.50000500
   0.37900400  0.50000100  0.49999700
   0.39650900  0.53018200  0.49999300
   0.43127900  0.53029100  0.49999700
   0.55492500  0.55387600  0.50001200
   0.44507500  0.55387400  0.49999300
   0.38288600  0.55390000  0.49998600
   0.35165400  0.50000300  0.49999400
   0.38288000  0.44610300  0.50000800
   0.44507000  0.44612100  0.50001500
   0.55493000  0.44612300  0.49999100
   0.61711900  0.44610300  0.49998600
   0.64834600  0.50000300  0.49999500
   0.61711400  0.55390000  0.50000800
 
 position of ions in cartesian coordinates  (Angst):
  24.13968000 21.20732000 20.00016000
  24.83984000 20.00008000 19.99988000
  24.13976000 18.79280000 19.99968000
  22.74896000 18.78828000 19.99976000
  22.03372000 19.99996000 20.00008000
  22.74888000 21.21168000 20.00024000
  20.60928000 19.99992000 20.00016000
  19.39072000 19.99984000 20.00032000
  17.96628000 19.99992000 20.00020000
  17.25100000 18.78824000 20.00036000
  15.86020000 18.79276000 20.00020000
  15.16016000 20.00004000 19.99988000
  15.86036000 21.20728000 19.99972000
  17.25116000 21.21164000 19.99988000
  22.19700000 22.15504000 20.00048000
  17.80300000 22.15496000 19.99972000
  15.31544000 22.15600000 19.99944000
  14.06616000 20.00012000 19.99976000
  15.31520000 17.84412000 20.00032000
  17.80280000 17.84484000 20.00060000
  22.19720000 17.84492000 19.99964000
  24.68476000 17.84412000 19.99944000
  25.93384000 20.00012000 19.99980000
  24.68456000 22.15600000 20.00032000
 


--------------------------------------------------------------------------------------------------------


 k-point  1 :   0.0000 0.0000 0.0000  plane waves: 1624525

 maximum and minimum number of plane-waves per node :    101563   101504

 maximum number of plane-waves:   1624525
 maximum index in each direction: 
   IXMAX=   72   IYMAX=   72   IZMAX=   72
   IXMIN=  -72   IYMIN=  -72   IZMIN=  -72


 real space projection operators:
  total allocation   :       2658.18 KBytes
  max/ min on nodes  :        213.42        129.16


 parallel 3D FFT for wavefunctions:
    minimum data exchange during FFTs selected (reduces bandwidth)
 parallel 3D FFT for charge:
    minimum data exchange during FFTs selected (reduces bandwidth)


 total amount of memory used by VASP MPI-rank0  1855810. kBytes
=======================================================================

   base      :      30000. kBytes
   nonlr-proj:       1397. kBytes
   fftplans  :     478128. kBytes
   grid      :    1157748. kBytes
   one-center:         12. kBytes
   wavefun   :     188525. kBytes
 
     INWAV:  cpu time    0.0000: real time    0.0000
 Broyden mixing: mesh for mixing (old mesh)
   NGX =145   NGY =145   NGZ =145
  (NGX  =588   NGY  =588   NGZ  =588)
  gives a total of ****** points

 initial charge density was supplied:
 charge density of overlapping atoms calculated
 number of electron      66.0000000 magnetization      24.0000000
 keeping initial charge density in first step


--------------------------------------------------------------------------------------------------------


 Maximum index for non-local projection operator          241
 Maximum index for augmentation-charges          333 (set IRDMAX)


--------------------------------------------------------------------------------------------------------


 First call to EWALD:  gamma=   0.044
 Maximum number of real-space cells 3x 3x 3
 Maximum number of reciprocal cells 3x 3x 3

    FEWALD:  cpu time    0.0020: real time    0.0020


--------------------------------------- Iteration      1(   1)  ---------------------------------------


    POTLOK:  cpu time  469.7595: real time  470.7378
    SETDIJ:  cpu time    0.0960: real time    0.0962
     EDDAV:  cpu time   54.9230: real time   55.0336
       DOS:  cpu time    0.0003: real time    0.0003
    --------------------------------------------
      LOOP:  cpu time  524.7788: real time  525.8680

 eigenvalue-minimisations  :   264
 total energy-change (2. order) : 0.6864776E+03  (-0.8186057E+03)
 number of electron      66.0000000 magnetization      24.0000000
 augmentation part       66.0000000 magnetization      24.0000000

 Free energy of the ion-electron system (eV)
  ---------------------------------------------------
  alpha Z        PSCENC =         0.32162128
  Ewald energy   TEWEN  =      7027.74408135
  -Hartree energ DENC   =     -8441.01633395
  -exchange      EXHF   =         0.00000000
  -V(xc)+E(xc)   XCENC  =       209.22212861
  PAW double counting   =      1535.45646912    -1543.38791276
  entropy T*S    EENTRO =        -0.09706013
  eigenvalues    EBANDS =      -275.91674161
  atomic energy  EATOM  =      2184.94220219
  Solvation  Ediel_sol  =       -10.79086404
  ---------------------------------------------------
  free energy    TOTEN  =       686.47759007 eV

  energy without entropy =      686.57465020  energy(sigma->0) =      686.52612014


--------------------------------------------------------------------------------------------------------




--------------------------------------- Iteration      1(   2)  ---------------------------------------


     EDDAV:  cpu time   80.0636: real time   80.2359
       DOS:  cpu time    0.0003: real time    0.0003
    --------------------------------------------
      LOOP:  cpu time   80.0639: real time   80.2362

 eigenvalue-minimisations  :   422
 total energy-change (2. order) :-0.3963495E+03  (-0.3659445E+03)
 number of electron      66.0000000 magnetization      24.0000000
 augmentation part       66.0000000 magnetization      24.0000000

 Free energy of the ion-electron system (eV)
  ---------------------------------------------------
  alpha Z        PSCENC =         0.32162128
  Ewald energy   TEWEN  =      7027.74408135
  -Hartree energ DENC   =     -8441.01633395
  -exchange      EXHF   =         0.00000000
  -V(xc)+E(xc)   XCENC  =       209.22212861
  PAW double counting   =      1535.45646912    -1543.38791276
  entropy T*S    EENTRO =        -0.04100750
  eigenvalues    EBANDS =      -672.32226229
  atomic energy  EATOM  =      2184.94220219
  Solvation  Ediel_sol  =       -10.79086404
  ---------------------------------------------------
  free energy    TOTEN  =       290.12812202 eV

  energy without entropy =      290.16912952  energy(sigma->0) =      290.14862577


--------------------------------------------------------------------------------------------------------




--------------------------------------- Iteration      1(   3)  ---------------------------------------


     EDDAV:  cpu time   68.4069: real time   68.5580
       DOS:  cpu time    0.0002: real time    0.0002
    --------------------------------------------
      LOOP:  cpu time   68.4070: real time   68.5582

 eigenvalue-minimisations  :   350
 total energy-change (2. order) :-0.3583277E+03  (-0.3440244E+03)
 number of electron      66.0000000 magnetization      24.0000000
 augmentation part       66.0000000 magnetization      24.0000000

 Free energy of the ion-electron system (eV)
  ---------------------------------------------------
  alpha Z        PSCENC =         0.32162128
  Ewald energy   TEWEN  =      7027.74408135
  -Hartree energ DENC   =     -8441.01633395
  -exchange      EXHF   =         0.00000000
  -V(xc)+E(xc)   XCENC  =       209.22212861
  PAW double counting   =      1535.45646912    -1543.38791276
  entropy T*S    EENTRO =        -0.00000000
  eigenvalues    EBANDS =     -1030.69094104
  atomic energy  EATOM  =      2184.94220219
  Solvation  Ediel_sol  =       -10.79086404
  ---------------------------------------------------
  free energy    TOTEN  =       -68.19954922 eV

  energy without entropy =      -68.19954922  energy(sigma->0) =      -68.19954922


--------------------------------------------------------------------------------------------------------




--------------------------------------- Iteration      1(   4)  ---------------------------------------


     EDDAV:  cpu time   62.1960: real time   62.3352
       DOS:  cpu time    0.0002: real time    0.0002
    --------------------------------------------
      LOOP:  cpu time   62.1962: real time   62.3354

 eigenvalue-minimisations  :   310
 total energy-change (2. order) :-0.8356804E+02  (-0.8347614E+02)
 number of electron      66.0000000 magnetization      24.0000000
 augmentation part       66.0000000 magnetization      24.0000000

 Free energy of the ion-electron system (eV)
  ---------------------------------------------------
  alpha Z        PSCENC =         0.32162128
  Ewald energy   TEWEN  =      7027.74408135
  -Hartree energ DENC   =     -8441.01633395
  -exchange      EXHF   =         0.00000000
  -V(xc)+E(xc)   XCENC  =       209.22212861
  PAW double counting   =      1535.45646912    -1543.38791276
  entropy T*S    EENTRO =        -0.00000000
  eigenvalues    EBANDS =     -1114.25897726
  atomic energy  EATOM  =      2184.94220219
  Solvation  Ediel_sol  =       -10.79086404
  ---------------------------------------------------
  free energy    TOTEN  =      -151.76758545 eV

  energy without entropy =     -151.76758545  energy(sigma->0) =     -151.76758545


--------------------------------------------------------------------------------------------------------




--------------------------------------- Iteration      1(   5)  ---------------------------------------


     EDDAV:  cpu time   61.7313: real time   61.8716
       DOS:  cpu time    0.0002: real time    0.0002
    CHARGE:  cpu time    5.3111: real time    5.3218
    MIXING:  cpu time    0.3656: real time    0.3663
    --------------------------------------------
      LOOP:  cpu time   67.4081: real time   67.5600

 eigenvalue-minimisations  :   306
 total energy-change (2. order) :-0.2918485E+01  (-0.2913049E+01)
 number of electron      66.0000010 magnetization      23.0753332
 augmentation part        1.7389309 magnetization      23.0991128

 Broyden mixing:
  rms(total) = 0.31970E+01    rms(broyden)= 0.31968E+01
  rms(prec ) = 0.32326E+01
  weight for this iteration     100.00

 Free energy of the ion-electron system (eV)
  ---------------------------------------------------
  alpha Z        PSCENC =         0.32162128
  Ewald energy   TEWEN  =      7027.74408135
  -Hartree energ DENC   =     -8441.01633395
  -exchange      EXHF   =         0.00000000
  -V(xc)+E(xc)   XCENC  =       209.22212861
  PAW double counting   =      1535.45646912    -1543.38791276
  entropy T*S    EENTRO =        -0.00000000
  eigenvalues    EBANDS =     -1117.17746273
  atomic energy  EATOM  =      2184.94220219
  Solvation  Ediel_sol  =       -10.79086404
  ---------------------------------------------------
  free energy    TOTEN  =      -154.68607091 eV

  energy without entropy =     -154.68607091  energy(sigma->0) =     -154.68607091


--------------------------------------------------------------------------------------------------------




--------------------------------------- Iteration      1(   6)  ---------------------------------------


    POTLOK:  cpu time  446.1036: real time  447.0569
    SETDIJ:  cpu time    0.0893: real time    0.0894
    EDDIAG:  cpu time   11.1989: real time   11.2230
  RMM-DIIS:  cpu time   40.1088: real time   40.1934
    ORTHCH:  cpu time    0.2505: real time    0.2511
       DOS:  cpu time    0.0002: real time    0.0002
    CHARGE:  cpu time    5.2570: real time    5.2683
    MIXING:  cpu time    0.4186: real time    0.4196
    --------------------------------------------
      LOOP:  cpu time  503.4270: real time  504.5020

 eigenvalue-minimisations  :   232
 total energy-change (2. order) : 0.7120221E+02  (-0.1386733E+02)
 number of electron      66.0000009 magnetization      22.0660393
 augmentation part        1.7176463 magnetization      21.9696222

 Broyden mixing:
  rms(total) = 0.15715E+01    rms(broyden)= 0.15714E+01
  rms(prec ) = 0.15991E+01
  weight for this iteration     100.00

 eigenvalues of (default mixing * dielectric matrix)
  average eigenvalue GAMMA=   0.9630
  0.9630

 Free energy of the ion-electron system (eV)
  ---------------------------------------------------
  alpha Z        PSCENC =         0.32162128
  Ewald energy   TEWEN  =      7027.74408135
  -Hartree energ DENC   =     -8579.86798533
  -exchange      EXHF   =         0.00000000
  -V(xc)+E(xc)   XCENC  =       272.79947943
  PAW double counting   =      2868.54632082    -2877.98331469
  entropy T*S    EENTRO =        -0.00000000
  eigenvalues    EBANDS =      -957.85903738
  atomic energy  EATOM  =      2184.94220219
  Solvation  Ediel_sol  =       -22.12723308
  ---------------------------------------------------
  free energy    TOTEN  =       -83.48386540 eV

  energy without entropy =      -83.48386540  energy(sigma->0) =      -83.48386540


--------------------------------------------------------------------------------------------------------




--------------------------------------- Iteration      1(   7)  ---------------------------------------


    POTLOK:  cpu time  440.0377: real time  440.9523
    SETDIJ:  cpu time    0.0884: real time    0.0886
    EDDIAG:  cpu time   11.2003: real time   11.2241
  RMM-DIIS:  cpu time   40.0269: real time   40.1094
    ORTHCH:  cpu time    0.2771: real time    0.2777
       DOS:  cpu time    0.0002: real time    0.0002
    CHARGE:  cpu time    5.2203: real time    5.2315
    MIXING:  cpu time    0.4586: real time    0.4613
    --------------------------------------------
      LOOP:  cpu time  497.3095: real time  498.3451

 eigenvalue-minimisations  :   232
 total energy-change (2. order) :-0.4017843E+02  (-0.4220669E+01)
 number of electron      66.0000007 magnetization      20.9407581
 augmentation part        1.6332172 magnetization      20.8430769

 Broyden mixing:
  rms(total) = 0.94869E+00    rms(broyden)= 0.94861E+00
  rms(prec ) = 0.95762E+00
  weight for this iteration     100.00

 eigenvalues of (default mixing * dielectric matrix)
  average eigenvalue GAMMA=   1.0858
  0.8168  1.3548

 Free energy of the ion-electron system (eV)
  ---------------------------------------------------
  alpha Z        PSCENC =         0.32162128
  Ewald energy   TEWEN  =      7027.74408135
  -Hartree energ DENC   =     -8688.79526906
  -exchange      EXHF   =         0.00000000
  -V(xc)+E(xc)   XCENC  =       243.72535655
  PAW double counting   =      4141.75876953    -4151.95457263
  entropy T*S    EENTRO =        -0.00000000
  eigenvalues    EBANDS =      -849.22821135
  atomic energy  EATOM  =      2184.94220219
  Solvation  Ediel_sol  =       -32.17627650
  ---------------------------------------------------
  free energy    TOTEN  =      -123.66229863 eV

  energy without entropy =     -123.66229863  energy(sigma->0) =     -123.66229863


--------------------------------------------------------------------------------------------------------




--------------------------------------- Iteration      1(   8)  ---------------------------------------


    POTLOK:  cpu time  445.3646: real time  446.2815
    SETDIJ:  cpu time    0.0893: real time    0.0895
    EDDIAG:  cpu time   11.2848: real time   11.3075
  RMM-DIIS:  cpu time   40.4239: real time   40.5031
    ORTHCH:  cpu time    0.2409: real time    0.2414
       DOS:  cpu time    0.0002: real time    0.0002
    CHARGE:  cpu time    5.2793: real time    5.2900
    MIXING:  cpu time    0.4833: real time    0.4843
    --------------------------------------------
      LOOP:  cpu time  503.1663: real time  504.1975

 eigenvalue-minimisations  :   232
 total energy-change (2. order) :-0.8903602E+01  (-0.8873753E+00)
 number of electron      66.0000006 magnetization      19.6277621
 augmentation part        1.5853939 magnetization      19.5449654

 Broyden mixing:
  rms(total) = 0.59362E+00    rms(broyden)= 0.59359E+00
  rms(prec ) = 0.59762E+00
  weight for this iteration     100.00

 eigenvalues of (default mixing * dielectric matrix)
  average eigenvalue GAMMA=   1.2373
  1.9049  1.1029  0.7042

 Free energy of the ion-electron system (eV)
  ---------------------------------------------------
  alpha Z        PSCENC =         0.32162128
  Ewald energy   TEWEN  =      7027.74408135
  -Hartree energ DENC   =     -8746.24977436
  -exchange      EXHF   =         0.00000000
  -V(xc)+E(xc)   XCENC  =       239.16087488
  PAW double counting   =      5202.02868768    -5212.33914606
  entropy T*S    EENTRO =        -0.00000000
  eigenvalues    EBANDS =      -792.03909697
  atomic energy  EATOM  =      2184.94220219
  Solvation  Ediel_sol  =       -36.13535063
  ---------------------------------------------------
  free energy    TOTEN  =      -132.56590064 eV

  energy without entropy =     -132.56590064  energy(sigma->0) =     -132.56590064


--------------------------------------------------------------------------------------------------------




--------------------------------------- Iteration      1(   9)  ---------------------------------------


    POTLOK:  cpu time  451.3231: real time  452.2392
    SETDIJ:  cpu time    0.0875: real time    0.0876
    EDDIAG:  cpu time   11.2546: real time   11.2774
  RMM-DIIS:  cpu time   40.3736: real time   40.4517
    ORTHCH:  cpu time    0.2452: real time    0.2457
       DOS:  cpu time    0.0002: real time    0.0002
    CHARGE:  cpu time    5.2785: real time    5.2893
    MIXING:  cpu time    0.4987: real time    0.4998
    --------------------------------------------
      LOOP:  cpu time  509.0614: real time  510.0909

 eigenvalue-minimisations  :   232
 total energy-change (2. order) :-0.1313009E+02  (-0.6460570E+00)
 number of electron      66.0000006 magnetization      18.4053312
 augmentation part        1.5590529 magnetization      18.3413743

 Broyden mixing:
  rms(total) = 0.36555E+00    rms(broyden)= 0.36553E+00
  rms(prec ) = 0.36765E+00
  weight for this iteration     100.00

 eigenvalues of (default mixing * dielectric matrix)
  average eigenvalue GAMMA=   1.3284
  2.1476  1.6524  0.8655  0.6479

 Free energy of the ion-electron system (eV)
  ---------------------------------------------------
  alpha Z        PSCENC =         0.32162128
  Ewald energy   TEWEN  =      7027.74408135
  -Hartree energ DENC   =     -8771.06761420
  -exchange      EXHF   =         0.00000000
  -V(xc)+E(xc)   XCENC  =       230.29884395
  PAW double counting   =      5882.61120846    -5892.75250951
  entropy T*S    EENTRO =        -0.00000000
  eigenvalues    EBANDS =      -776.51899663
  atomic energy  EATOM  =      2184.94220219
  Solvation  Ediel_sol  =       -31.27483059
  ---------------------------------------------------
  free energy    TOTEN  =      -145.69599369 eV

  energy without entropy =     -145.69599369  energy(sigma->0) =     -145.69599369


--------------------------------------------------------------------------------------------------------




--------------------------------------- Iteration      1(  10)  ---------------------------------------


    POTLOK:  cpu time  434.9548: real time  435.8363
    SETDIJ:  cpu time    0.0880: real time    0.0882
    EDDIAG:  cpu time   11.2590: real time   11.2819
  RMM-DIIS:  cpu time   39.8594: real time   39.9468
    ORTHCH:  cpu time    0.2464: real time    0.2469
       DOS:  cpu time    0.0002: real time    0.0002
    CHARGE:  cpu time    5.2791: real time    5.2898
    MIXING:  cpu time    0.4902: real time    0.4912
    --------------------------------------------
      LOOP:  cpu time  492.1771: real time  493.1814

 eigenvalue-minimisations  :   232
 total energy-change (2. order) :-0.6115014E+01  (-0.2622940E+00)
 number of electron      66.0000006 magnetization      17.1165398
 augmentation part        1.5492995 magnetization      17.0720468

 Broyden mixing:
  rms(total) = 0.25751E+00    rms(broyden)= 0.25750E+00
  rms(prec ) = 0.25886E+00
  weight for this iteration     100.00

 eigenvalues of (default mixing * dielectric matrix)
  average eigenvalue GAMMA=   1.3119
  2.0856  2.0856  0.9273  0.8347  0.6265

 Free energy of the ion-electron system (eV)
  ---------------------------------------------------
  alpha Z        PSCENC =         0.32162128
  Ewald energy   TEWEN  =      7027.74408135
  -Hartree energ DENC   =     -8777.29945719
  -exchange      EXHF   =         0.00000000
  -V(xc)+E(xc)   XCENC  =       225.83867001
  PAW double counting   =      6099.45343789    -6109.41668328
  entropy T*S    EENTRO =        -0.00000000
  eigenvalues    EBANDS =      -781.26628632
  atomic energy  EATOM  =      2184.94220219
  Solvation  Ediel_sol  =       -22.12859330
  ---------------------------------------------------
  free energy    TOTEN  =      -151.81100736 eV

  energy without entropy =     -151.81100736  energy(sigma->0) =     -151.81100736


--------------------------------------------------------------------------------------------------------




--------------------------------------- Iteration      1(  11)  ---------------------------------------


    POTLOK:  cpu time  418.1185: real time  418.9962
    SETDIJ:  cpu time    0.0864: real time    0.0866
    EDDIAG:  cpu time   11.4453: real time   11.4680
  RMM-DIIS:  cpu time   40.2208: real time   40.2980
    ORTHCH:  cpu time    0.2438: real time    0.2443
       DOS:  cpu time    0.0002: real time    0.0002
    CHARGE:  cpu time    5.2926: real time    5.3032
    MIXING:  cpu time    0.5511: real time    0.5523
    --------------------------------------------
      LOOP:  cpu time  475.9587: real time  476.9488

 eigenvalue-minimisations  :   232
 total energy-change (2. order) :-0.3123117E+01  (-0.1264513E+00)
 number of electron      66.0000006 magnetization      14.6637372
 augmentation part        1.5447323 magnetization      14.6315951

 Broyden mixing:
  rms(total) = 0.20079E+00    rms(broyden)= 0.20078E+00
  rms(prec ) = 0.20164E+00
  weight for this iteration     100.00

 eigenvalues of (default mixing * dielectric matrix)
  average eigenvalue GAMMA=   1.4981
  2.6065  2.6065  1.4627  0.9493  0.7420  0.6218

 Free energy of the ion-electron system (eV)
  ---------------------------------------------------
  alpha Z        PSCENC =         0.32162128
  Ewald energy   TEWEN  =      7027.74408135
  -Hartree energ DENC   =     -8779.99361870
  -exchange      EXHF   =         0.00000000
  -V(xc)+E(xc)   XCENC  =       223.41671478
  PAW double counting   =      6080.19378167    -6090.08500170
  entropy T*S    EENTRO =        -0.00000000
  eigenvalues    EBANDS =      -788.89496583
  atomic energy  EATOM  =      2184.94220219
  Solvation  Ediel_sol  =       -12.57893990
  ---------------------------------------------------
  free energy    TOTEN  =      -154.93412485 eV

  energy without entropy =     -154.93412485  energy(sigma->0) =     -154.93412485


--------------------------------------------------------------------------------------------------------




--------------------------------------- Iteration      1(  12)  ---------------------------------------


    POTLOK:  cpu time  426.7358: real time  427.6065
    SETDIJ:  cpu time    0.0878: real time    0.0879
    EDDIAG:  cpu time   11.2718: real time   11.2946
  RMM-DIIS:  cpu time   40.5615: real time   40.6410
    ORTHCH:  cpu time    0.2484: real time    0.2489
       DOS:  cpu time    0.0002: real time    0.0002
    CHARGE:  cpu time    5.2219: real time    5.2325
    MIXING:  cpu time    0.5807: real time    0.5819
    --------------------------------------------
      LOOP:  cpu time  484.7081: real time  485.6936

 eigenvalue-minimisations  :   232
 total energy-change (2. order) :-0.2475152E+01  (-0.1836764E+00)
 number of electron      66.0000006 magnetization      12.8908108
 augmentation part        1.5407742 magnetization      12.8718770

 Broyden mixing:
  rms(total) = 0.12248E+00    rms(broyden)= 0.12248E+00
  rms(prec ) = 0.12297E+00
  weight for this iteration     100.00

 eigenvalues of (default mixing * dielectric matrix)
  average eigenvalue GAMMA=   1.6614
  4.3899  2.2557  1.7964  0.9836  0.8607  0.7179  0.6258

 Free energy of the ion-electron system (eV)
  ---------------------------------------------------
  alpha Z        PSCENC =         0.32162128
  Ewald energy   TEWEN  =      7027.74408135
  -Hartree energ DENC   =     -8785.10180944
  -exchange      EXHF   =         0.00000000
  -V(xc)+E(xc)   XCENC  =       221.57155425
  PAW double counting   =      5970.42996341    -5980.27992980
  entropy T*S    EENTRO =        -0.00000000
  eigenvalues    EBANDS =      -799.45636322
  atomic energy  EATOM  =      2184.94220219
  Solvation  Ediel_sol  =         2.41940275
  ---------------------------------------------------
  free energy    TOTEN  =      -157.40927722 eV

  energy without entropy =     -157.40927722  energy(sigma->0) =     -157.40927722


--------------------------------------------------------------------------------------------------------




--------------------------------------- Iteration      1(  13)  ---------------------------------------


    POTLOK:  cpu time  416.2171: real time  417.0624
    SETDIJ:  cpu time    0.0869: real time    0.0870
    EDDIAG:  cpu time   11.2296: real time   11.2519
  RMM-DIIS:  cpu time   40.3119: real time   40.3905
    ORTHCH:  cpu time    0.2448: real time    0.2453
       DOS:  cpu time    0.0002: real time    0.0002
    CHARGE:  cpu time    5.2861: real time    5.2969
    MIXING:  cpu time    0.5980: real time    0.5992
    --------------------------------------------
      LOOP:  cpu time  473.9745: real time  474.9335

 eigenvalue-minimisations  :   232
 total energy-change (2. order) :-0.7360150E+00  (-0.7038223E-01)
 number of electron      66.0000006 magnetization      11.4907751
 augmentation part        1.5357946 magnetization      11.4811726

 Broyden mixing:
  rms(total) = 0.84606E-01    rms(broyden)= 0.84600E-01
  rms(prec ) = 0.85060E-01
  weight for this iteration     100.00

 eigenvalues of (default mixing * dielectric matrix)
  average eigenvalue GAMMA=   1.8374
  6.1977  2.1285  2.1285  1.2698  0.8956  0.8002  0.6261  0.6526

 Free energy of the ion-electron system (eV)
  ---------------------------------------------------
  alpha Z        PSCENC =         0.32162128
  Ewald energy   TEWEN  =      7027.74408135
  -Hartree energ DENC   =     -8789.51983179
  -exchange      EXHF   =         0.00000000
  -V(xc)+E(xc)   XCENC  =       221.08802066
  PAW double counting   =      5927.95311653    -5937.82880578
  entropy T*S    EENTRO =        -0.00000000
  eigenvalues    EBANDS =      -802.38026070
  atomic energy  EATOM  =      2184.94220219
  Solvation  Ediel_sol  =         9.53456407
  ---------------------------------------------------
  free energy    TOTEN  =      -158.14529219 eV

  energy without entropy =     -158.14529219  energy(sigma->0) =     -158.14529219


--------------------------------------------------------------------------------------------------------




--------------------------------------- Iteration      1(  14)  ---------------------------------------


    POTLOK:  cpu time  413.1965: real time  414.0371
    SETDIJ:  cpu time    0.0868: real time    0.0870
    EDDIAG:  cpu time   11.2523: real time   11.2750
  RMM-DIIS:  cpu time   40.6894: real time   40.7686
    ORTHCH:  cpu time    0.2409: real time    0.2415
       DOS:  cpu time    0.0002: real time    0.0002
    CHARGE:  cpu time    5.2870: real time    5.2976
    MIXING:  cpu time    0.6475: real time    0.6488
    --------------------------------------------
      LOOP:  cpu time  471.4006: real time  472.3558

 eigenvalue-minimisations  :   235
 total energy-change (2. order) :-0.1488559E+01  (-0.2319246E-01)
 number of electron      66.0000006 magnetization       9.9191659
 augmentation part        1.5326486 magnetization       9.9152995

 Broyden mixing:
  rms(total) = 0.63801E-01    rms(broyden)= 0.63797E-01
  rms(prec ) = 0.64239E-01
  weight for this iteration     100.00

 eigenvalues of (default mixing * dielectric matrix)
  average eigenvalue GAMMA=   1.9222
  7.1399  2.1211  2.1211  1.8550  1.0018  1.0018  0.7886  0.6508  0.6193

 Free energy of the ion-electron system (eV)
  ---------------------------------------------------
  alpha Z        PSCENC =         0.32162128
  Ewald energy   TEWEN  =      7027.74408135
  -Hartree energ DENC   =     -8789.94003178
  -exchange      EXHF   =         0.00000000
  -V(xc)+E(xc)   XCENC  =       219.62088743
  PAW double counting   =      5897.43372810    -5907.32561889
  entropy T*S    EENTRO =        -0.00000000
  eigenvalues    EBANDS =      -805.17098878
  atomic energy  EATOM  =      2184.94220219
  Solvation  Ediel_sol  =        12.74026799
  ---------------------------------------------------
  free energy    TOTEN  =      -159.63385111 eV

  energy without entropy =     -159.63385111  energy(sigma->0) =     -159.63385111


--------------------------------------------------------------------------------------------------------




--------------------------------------- Iteration      1(  15)  ---------------------------------------


    POTLOK:  cpu time  413.5175: real time  414.3587
    SETDIJ:  cpu time    0.0864: real time    0.0866
    EDDIAG:  cpu time   11.2508: real time   11.2737
  RMM-DIIS:  cpu time   40.1047: real time   40.1827
    ORTHCH:  cpu time    0.2476: real time    0.2481
       DOS:  cpu time    0.0002: real time    0.0002
    CHARGE:  cpu time    5.2786: real time    5.2892
    MIXING:  cpu time    0.6685: real time    0.6699
    --------------------------------------------
      LOOP:  cpu time  471.1544: real time  472.1091

 eigenvalue-minimisations  :   232
 total energy-change (2. order) :-0.9509940E+00  (-0.6020459E-02)
 number of electron      66.0000006 magnetization       8.6498039
 augmentation part        1.5333482 magnetization       8.6483384

 Broyden mixing:
  rms(total) = 0.47783E-01    rms(broyden)= 0.47782E-01
  rms(prec ) = 0.47981E-01
  weight for this iteration     100.00

 eigenvalues of (default mixing * dielectric matrix)
  average eigenvalue GAMMA=   2.0021
  7.9411  2.9997  2.0735  2.0735  1.1761  0.8737  0.8737  0.7444  0.6200  0.6457

 Free energy of the ion-electron system (eV)
  ---------------------------------------------------
  alpha Z        PSCENC =         0.32162128
  Ewald energy   TEWEN  =      7027.74408135
  -Hartree energ DENC   =     -8786.48083609
  -exchange      EXHF   =         0.00000000
  -V(xc)+E(xc)   XCENC  =       218.53676093
  PAW double counting   =      5878.63066430    -5888.51066739
  entropy T*S    EENTRO =        -0.00000000
  eigenvalues    EBANDS =      -809.59824257
  atomic energy  EATOM  =      2184.94220219
  Solvation  Ediel_sol  =        13.82957087
  ---------------------------------------------------
  free energy    TOTEN  =      -160.58484511 eV

  energy without entropy =     -160.58484511  energy(sigma->0) =     -160.58484511


--------------------------------------------------------------------------------------------------------




--------------------------------------- Iteration      1(  16)  ---------------------------------------


    POTLOK:  cpu time  403.5984: real time  404.4294
    SETDIJ:  cpu time    0.0885: real time    0.0887
    EDDIAG:  cpu time   11.2992: real time   11.3218
  RMM-DIIS:  cpu time   40.5256: real time   40.6040
    ORTHCH:  cpu time    0.2480: real time    0.2485
       DOS:  cpu time    0.0002: real time    0.0002
    CHARGE:  cpu time    5.2303: real time    5.2408
    MIXING:  cpu time    0.7054: real time    0.7068
    --------------------------------------------
      LOOP:  cpu time  461.6955: real time  462.6402

 eigenvalue-minimisations  :   233
 total energy-change (2. order) :-0.2014726E+00  (-0.2105371E-02)
 number of electron      66.0000006 magnetization       7.4721897
 augmentation part        1.5329692 magnetization       7.4713488

 Broyden mixing:
  rms(total) = 0.37483E-01    rms(broyden)= 0.37483E-01
  rms(prec ) = 0.37596E-01
  weight for this iteration     100.00

 eigenvalues of (default mixing * dielectric matrix)
  average eigenvalue GAMMA=   2.1049
  8.8449  3.9168  2.0630  2.0630  1.5016  0.9450  0.9450  0.8993  0.7175  0.6265
  0.6318

 Free energy of the ion-electron system (eV)
  ---------------------------------------------------
  alpha Z        PSCENC =         0.32162128
  Ewald energy   TEWEN  =      7027.74408135
  -Hartree energ DENC   =     -8785.12833457
  -exchange      EXHF   =         0.00000000
  -V(xc)+E(xc)   XCENC  =       218.32250093
  PAW double counting   =      5897.16916340    -5907.05306341
  entropy T*S    EENTRO =        -0.00000000
  eigenvalues    EBANDS =      -810.42197275
  atomic energy  EATOM  =      2184.94220219
  Solvation  Ediel_sol  =        13.31748384
  ---------------------------------------------------
  free energy    TOTEN  =      -160.78631772 eV

  energy without entropy =     -160.78631772  energy(sigma->0) =     -160.78631772


--------------------------------------------------------------------------------------------------------




--------------------------------------- Iteration      1(  17)  ---------------------------------------


    POTLOK:  cpu time  402.3218: real time  403.1359
    SETDIJ:  cpu time    0.0875: real time    0.0877
    EDDIAG:  cpu time   11.2364: real time   11.2586
  RMM-DIIS:  cpu time   40.7853: real time   40.8636
    ORTHCH:  cpu time    0.2427: real time    0.2432
       DOS:  cpu time    0.0002: real time    0.0002
    CHARGE:  cpu time    5.2626: real time    5.2731
    MIXING:  cpu time    0.7151: real time    0.7165
    --------------------------------------------
      LOOP:  cpu time  460.6516: real time  461.5788

 eigenvalue-minimisations  :   237
 total energy-change (2. order) :-0.2207800E+00  (-0.5945979E-03)
 number of electron      66.0000006 magnetization       6.0387321
 augmentation part        1.5326353 magnetization       6.0382338

 Broyden mixing:
  rms(total) = 0.31320E-01    rms(broyden)= 0.31320E-01
  rms(prec ) = 0.31402E-01
  weight for this iteration     100.00

 eigenvalues of (default mixing * dielectric matrix)
  average eigenvalue GAMMA=   2.1806
  9.5365  4.5226  2.2553  2.2553  1.7521  1.1728  0.9324  0.9324  0.8342  0.7160
  0.6241  0.6334

 Free energy of the ion-electron system (eV)
  ---------------------------------------------------
  alpha Z        PSCENC =         0.32162128
  Ewald energy   TEWEN  =      7027.74408135
  -Hartree energ DENC   =     -8784.03165099
  -exchange      EXHF   =         0.00000000
  -V(xc)+E(xc)   XCENC  =       218.07272383
  PAW double counting   =      5906.48396784    -5916.36906563
  entropy T*S    EENTRO =        -0.00000000
  eigenvalues    EBANDS =      -810.77602711
  atomic energy  EATOM  =      2184.94220219
  Solvation  Ediel_sol  =        12.60504952
  ---------------------------------------------------
  free energy    TOTEN  =      -161.00709772 eV

  energy without entropy =     -161.00709772  energy(sigma->0) =     -161.00709772


--------------------------------------------------------------------------------------------------------




--------------------------------------- Iteration      1(  18)  ---------------------------------------


    POTLOK:  cpu time  400.9637: real time  401.7810
    SETDIJ:  cpu time    0.0889: real time    0.0891
    EDDIAG:  cpu time   11.2281: real time   11.2521
  RMM-DIIS:  cpu time   40.3064: real time   40.3906
    ORTHCH:  cpu time    0.2579: real time    0.2584
       DOS:  cpu time    0.0002: real time    0.0002
    CHARGE:  cpu time    5.2580: real time    5.2693
    MIXING:  cpu time    0.7771: real time    0.7788
    --------------------------------------------
      LOOP:  cpu time  458.8804: real time  459.8195

 eigenvalue-minimisations  :   233
 total energy-change (2. order) :-0.1387164E+00  (-0.2401614E-03)
 number of electron      66.0000006 magnetization       4.8787603
 augmentation part        1.5328505 magnetization       4.8784672

 Broyden mixing:
  rms(total) = 0.25465E-01    rms(broyden)= 0.25465E-01
  rms(prec ) = 0.25520E-01
  weight for this iteration     100.00

 eigenvalues of (default mixing * dielectric matrix)
  average eigenvalue GAMMA=   2.2443
 10.1741  5.2795  2.6182  2.2348  1.9376  1.3661  0.9975  0.9190  0.9190  0.7668
  0.7061  0.6220  0.6357

 Free energy of the ion-electron system (eV)
  ---------------------------------------------------
  alpha Z        PSCENC =         0.32162128
  Ewald energy   TEWEN  =      7027.74408135
  -Hartree energ DENC   =     -8782.61227526
  -exchange      EXHF   =         0.00000000
  -V(xc)+E(xc)   XCENC  =       217.89575891
  PAW double counting   =      5908.93455054    -5918.81375760
  entropy T*S    EENTRO =        -0.00000000
  eigenvalues    EBANDS =      -811.21448345
  atomic energy  EATOM  =      2184.94220219
  Solvation  Ediel_sol  =        11.65648789
  ---------------------------------------------------
  free energy    TOTEN  =      -161.14581414 eV

  energy without entropy =     -161.14581414  energy(sigma->0) =     -161.14581414


--------------------------------------------------------------------------------------------------------




--------------------------------------- Iteration      1(  19)  ---------------------------------------


    POTLOK:  cpu time  392.6932: real time  393.5401
    SETDIJ:  cpu time    0.0879: real time    0.0880
    EDDIAG:  cpu time   11.2329: real time   11.2569
  RMM-DIIS:  cpu time   40.0794: real time   40.1591
    ORTHCH:  cpu time    0.2458: real time    0.2463
       DOS:  cpu time    0.0002: real time    0.0002
    CHARGE:  cpu time    5.2652: real time    5.2761
    MIXING:  cpu time    0.8199: real time    0.8216
    --------------------------------------------
      LOOP:  cpu time  450.4245: real time  451.3883

 eigenvalue-minimisations  :   232
 total energy-change (2. order) :-0.3292504E-01  (-0.1860498E-03)
 number of electron      66.0000006 magnetization       3.2484713
 augmentation part        1.5327608 magnetization       3.2482120

 Broyden mixing:
  rms(total) = 0.21349E-01    rms(broyden)= 0.21349E-01
  rms(prec ) = 0.21394E-01
  weight for this iteration     100.00

 eigenvalues of (default mixing * dielectric matrix)
  average eigenvalue GAMMA=   2.3164
 10.7860  5.9961  3.1235  2.1466  2.1466  1.6192  1.1523  0.9376  0.9376  0.8991
  0.7391  0.6894  0.6218  0.6343

 Free energy of the ion-electron system (eV)
  ---------------------------------------------------
  alpha Z        PSCENC =         0.32162128
  Ewald energy   TEWEN  =      7027.74408135
  -Hartree energ DENC   =     -8782.14688531
  -exchange      EXHF   =         0.00000000
  -V(xc)+E(xc)   XCENC  =       217.87599398
  PAW double counting   =      5913.67812124    -5923.55908202
  entropy T*S    EENTRO =        -0.00000000
  eigenvalues    EBANDS =      -810.88023489
  atomic energy  EATOM  =      2184.94220219
  Solvation  Ediel_sol  =        10.84544298
  ---------------------------------------------------
  free energy    TOTEN  =      -161.17873918 eV

  energy without entropy =     -161.17873918  energy(sigma->0) =     -161.17873918


--------------------------------------------------------------------------------------------------------




--------------------------------------- Iteration      1(  20)  ---------------------------------------


    POTLOK:  cpu time  398.3513: real time  399.1648
    SETDIJ:  cpu time    0.0856: real time    0.0858
    EDDIAG:  cpu time   11.2652: real time   11.2877
  RMM-DIIS:  cpu time   40.2882: real time   40.3667
    ORTHCH:  cpu time    0.2447: real time    0.2452
       DOS:  cpu time    0.0002: real time    0.0002
    CHARGE:  cpu time    5.2217: real time    5.2323
    MIXING:  cpu time    0.8803: real time    0.8821
    --------------------------------------------
      LOOP:  cpu time  456.3373: real time  457.2648

 eigenvalue-minimisations  :   232
 total energy-change (2. order) :-0.2289536E-01  (-0.1637778E-03)
 number of electron      66.0000006 magnetization       1.8264771
 augmentation part        1.5326182 magnetization       1.8262753

 Broyden mixing:
  rms(total) = 0.15580E-01    rms(broyden)= 0.15580E-01
  rms(prec ) = 0.15637E-01
  weight for this iteration     100.00

 eigenvalues of (default mixing * dielectric matrix)
  average eigenvalue GAMMA=   2.5014
 12.2197  7.2510  3.9663  2.2565  2.2565  1.8521  1.3530  1.0547  0.9197  0.9197
  0.8162  0.7329  0.6225  0.6301  0.6702

 Free energy of the ion-electron system (eV)
  ---------------------------------------------------
  alpha Z        PSCENC =         0.32162128
  Ewald energy   TEWEN  =      7027.74408135
  -Hartree energ DENC   =     -8781.81381982
  -exchange      EXHF   =         0.00000000
  -V(xc)+E(xc)   XCENC  =       217.86765255
  PAW double counting   =      5907.18270241    -5917.06871730
  entropy T*S    EENTRO =        -0.00000000
  eigenvalues    EBANDS =      -810.53125552
  atomic energy  EATOM  =      2184.94220219
  Solvation  Ediel_sol  =        10.15389832
  ---------------------------------------------------
  free energy    TOTEN  =      -161.20163454 eV

  energy without entropy =     -161.20163454  energy(sigma->0) =     -161.20163454


--------------------------------------------------------------------------------------------------------




--------------------------------------- Iteration      1(  21)  ---------------------------------------


    POTLOK:  cpu time  392.1602: real time  392.9611
    SETDIJ:  cpu time    0.0847: real time    0.0849
    EDDIAG:  cpu time   11.2534: real time   11.2762
  RMM-DIIS:  cpu time   40.1157: real time   40.1945
    ORTHCH:  cpu time    0.2468: real time    0.2473
       DOS:  cpu time    0.0002: real time    0.0002
    CHARGE:  cpu time    5.2744: real time    5.2849
    MIXING:  cpu time    0.8733: real time    0.8751
    --------------------------------------------
      LOOP:  cpu time  450.0087: real time  450.9242

 eigenvalue-minimisations  :   232
 total energy-change (2. order) :-0.5641185E-02  (-0.2098724E-03)
 number of electron      66.0000006 magnetization       0.8788653
 augmentation part        1.5327342 magnetization       0.8788065

 Broyden mixing:
  rms(total) = 0.10609E-01    rms(broyden)= 0.10609E-01
  rms(prec ) = 0.10695E-01
  weight for this iteration     100.00

 eigenvalues of (default mixing * dielectric matrix)
  average eigenvalue GAMMA=   2.6613
 14.4171  8.2225  4.4638  2.3804  2.1315  2.1315  1.4762  1.1430  0.9259  0.9259
  0.9583  0.7707  0.7274  0.6244  0.6244  0.6584

 Free energy of the ion-electron system (eV)
  ---------------------------------------------------
  alpha Z        PSCENC =         0.32162128
  Ewald energy   TEWEN  =      7027.74408135
  -Hartree energ DENC   =     -8781.40839643
  -exchange      EXHF   =         0.00000000
  -V(xc)+E(xc)   XCENC  =       217.85213809
  PAW double counting   =      5899.07309869    -5908.95779098
  entropy T*S    EENTRO =        -0.00000000
  eigenvalues    EBANDS =      -810.65484664
  atomic energy  EATOM  =      2184.94220219
  Solvation  Ediel_sol  =         9.88061672
  ---------------------------------------------------
  free energy    TOTEN  =      -161.20727573 eV

  energy without entropy =     -161.20727573  energy(sigma->0) =     -161.20727573


--------------------------------------------------------------------------------------------------------




--------------------------------------- Iteration      1(  22)  ---------------------------------------


    POTLOK:  cpu time  387.7056: real time  388.4907
    SETDIJ:  cpu time    0.0871: real time    0.0872
    EDDIAG:  cpu time   11.2292: real time   11.2517
  RMM-DIIS:  cpu time   40.4476: real time   40.5275
    ORTHCH:  cpu time    0.2317: real time    0.2322
       DOS:  cpu time    0.0002: real time    0.0002
    CHARGE:  cpu time    5.2442: real time    5.2546
    MIXING:  cpu time    0.9398: real time    0.9417
    --------------------------------------------
      LOOP:  cpu time  445.8854: real time  446.7858

 eigenvalue-minimisations  :   232
 total energy-change (2. order) :-0.1631323E-01  (-0.1950220E-03)
 number of electron      66.0000006 magnetization       0.3439273
 augmentation part        1.5328578 magnetization       0.3439435

 Broyden mixing:
  rms(total) = 0.65896E-02    rms(broyden)= 0.65895E-02
  rms(prec ) = 0.66927E-02
  weight for this iteration     100.00

 eigenvalues of (default mixing * dielectric matrix)
  average eigenvalue GAMMA=   2.9625
 18.9128  9.0885  4.9861  2.8778  2.1688  2.1688  1.7184  1.3579  1.0695  0.9190
  0.9190  0.8415  0.7518  0.6987  0.6423  0.6207  0.6207

 Free energy of the ion-electron system (eV)
  ---------------------------------------------------
  alpha Z        PSCENC =         0.32162128
  Ewald energy   TEWEN  =      7027.74408135
  -Hartree energ DENC   =     -8781.34844289
  -exchange      EXHF   =         0.00000000
  -V(xc)+E(xc)   XCENC  =       217.83347486
  PAW double counting   =      5901.59617162    -5911.47793462
  entropy T*S    EENTRO =        -0.00000000
  eigenvalues    EBANDS =      -810.71086206
  atomic energy  EATOM  =      2184.94220219
  Solvation  Ediel_sol  =         9.87609931
  ---------------------------------------------------
  free energy    TOTEN  =      -161.22358896 eV

  energy without entropy =     -161.22358896  energy(sigma->0) =     -161.22358896


--------------------------------------------------------------------------------------------------------




--------------------------------------- Iteration      1(  23)  ---------------------------------------


    POTLOK:  cpu time  391.4162: real time  392.2572
    SETDIJ:  cpu time    0.0859: real time    0.0860
    EDDIAG:  cpu time   11.2064: real time   11.2289
  RMM-DIIS:  cpu time   40.1410: real time   40.2189
    ORTHCH:  cpu time    0.2428: real time    0.2433
       DOS:  cpu time    0.0002: real time    0.0002
    CHARGE:  cpu time    5.2901: real time    5.3009
    MIXING:  cpu time    1.0248: real time    1.0268
    --------------------------------------------
      LOOP:  cpu time  449.4073: real time  450.3623

 eigenvalue-minimisations  :   232
 total energy-change (2. order) :-0.2471577E-01  (-0.7807487E-04)
 number of electron      66.0000006 magnetization       0.1565669
 augmentation part        1.5328271 magnetization       0.1565879

 Broyden mixing:
  rms(total) = 0.37559E-02    rms(broyden)= 0.37559E-02
  rms(prec ) = 0.38557E-02
  weight for this iteration     100.00

 eigenvalues of (default mixing * dielectric matrix)
  average eigenvalue GAMMA=   3.1027
 22.2640  9.4086  5.2898  3.1881  2.1747  2.1747  1.8692  1.4182  1.1471  0.9204
  0.9204  0.9709  0.7968  0.7384  0.6918  0.6350  0.6241  0.6163

 Free energy of the ion-electron system (eV)
  ---------------------------------------------------
  alpha Z        PSCENC =         0.32162128
  Ewald energy   TEWEN  =      7027.74408135
  -Hartree energ DENC   =     -8781.55075589
  -exchange      EXHF   =         0.00000000
  -V(xc)+E(xc)   XCENC  =       217.81442934
  PAW double counting   =      5904.99220322    -5914.87463642
  entropy T*S    EENTRO =        -0.00000000
  eigenvalues    EBANDS =      -810.61066307
  atomic energy  EATOM  =      2184.94220219
  Solvation  Ediel_sol  =         9.97321326
  ---------------------------------------------------
  free energy    TOTEN  =      -161.24830473 eV

  energy without entropy =     -161.24830473  energy(sigma->0) =     -161.24830473


--------------------------------------------------------------------------------------------------------




--------------------------------------- Iteration      1(  24)  ---------------------------------------


    POTLOK:  cpu time  369.5157: real time  370.2659
    SETDIJ:  cpu time    0.0882: real time    0.0884
    EDDIAG:  cpu time   11.2347: real time   11.2570
  RMM-DIIS:  cpu time   38.0039: real time   38.0783
    ORTHCH:  cpu time    0.2472: real time    0.2477
       DOS:  cpu time    0.0002: real time    0.0002
    CHARGE:  cpu time    5.2029: real time    5.2133
    MIXING:  cpu time    1.0970: real time    1.0991
    --------------------------------------------
      LOOP:  cpu time  425.3898: real time  426.2500

 eigenvalue-minimisations  :   216
 total energy-change (2. order) :-0.2919249E-01  (-0.2010952E-04)
 number of electron      66.0000006 magnetization       0.0719487
 augmentation part        1.5327632 magnetization       0.0719609

 Broyden mixing:
  rms(total) = 0.24194E-02    rms(broyden)= 0.24193E-02
  rms(prec ) = 0.24979E-02
  weight for this iteration     100.00

 eigenvalues of (default mixing * dielectric matrix)
  average eigenvalue GAMMA=   3.1512
 24.1696  9.5533  5.5100  3.4269  2.3036  2.3036  1.8876  1.4539  1.4539  1.0586
  0.9208  0.9208  0.8728  0.7746  0.7163  0.6746  0.6291  0.6255  0.6164

 Free energy of the ion-electron system (eV)
  ---------------------------------------------------
  alpha Z        PSCENC =         0.32162128
  Ewald energy   TEWEN  =      7027.74408135
  -Hartree energ DENC   =     -8781.69798692
  -exchange      EXHF   =         0.00000000
  -V(xc)+E(xc)   XCENC  =       217.78699414
  PAW double counting   =      5905.47615891    -5915.35935293
  entropy T*S    EENTRO =        -0.00000000
  eigenvalues    EBANDS =      -810.60688128
  atomic energy  EATOM  =      2184.94220219
  Solvation  Ediel_sol  =        10.11566604
  ---------------------------------------------------
  free energy    TOTEN  =      -161.27749722 eV

  energy without entropy =     -161.27749722  energy(sigma->0) =     -161.27749722


--------------------------------------------------------------------------------------------------------




--------------------------------------- Iteration      1(  25)  ---------------------------------------


    POTLOK:  cpu time  358.5558: real time  359.2864
    SETDIJ:  cpu time    0.0871: real time    0.0873
    EDDIAG:  cpu time   11.2316: real time   11.2541
  RMM-DIIS:  cpu time   35.9025: real time   35.9726
    ORTHCH:  cpu time    0.2464: real time    0.2469
       DOS:  cpu time    0.0002: real time    0.0002
    CHARGE:  cpu time    5.2843: real time    5.2951
    MIXING:  cpu time    1.1563: real time    1.1587
    --------------------------------------------
      LOOP:  cpu time  412.4643: real time  413.3013

 eigenvalue-minimisations  :   205
 total energy-change (2. order) :-0.1924265E-01  (-0.1473856E-04)
 number of electron      66.0000006 magnetization       0.0330215
 augmentation part        1.5327492 magnetization       0.0330298

 Broyden mixing:
  rms(total) = 0.15833E-02    rms(broyden)= 0.15833E-02
  rms(prec ) = 0.16394E-02
  weight for this iteration     100.00

 eigenvalues of (default mixing * dielectric matrix)
  average eigenvalue GAMMA=   3.1418
 25.0067  9.6356  5.6745  3.7035  2.4459  2.3179  1.8423  1.8423  1.4694  1.1807
  1.0292  0.9257  0.9257  0.8374  0.7612  0.7121  0.6604  0.6271  0.6231  0.6157

 Free energy of the ion-electron system (eV)
  ---------------------------------------------------
  alpha Z        PSCENC =         0.32162128
  Ewald energy   TEWEN  =      7027.74408135
  -Hartree energ DENC   =     -8781.77796462
  -exchange      EXHF   =         0.00000000
  -V(xc)+E(xc)   XCENC  =       217.76780417
  PAW double counting   =      5906.09228136    -5915.97502342
  entropy T*S    EENTRO =        -0.00000000
  eigenvalues    EBANDS =      -810.65167670
  atomic energy  EATOM  =      2184.94220219
  Solvation  Ediel_sol  =        10.23993451
  ---------------------------------------------------
  free energy    TOTEN  =      -161.29673986 eV

  energy without entropy =     -161.29673986  energy(sigma->0) =     -161.29673986


--------------------------------------------------------------------------------------------------------




--------------------------------------- Iteration      1(  26)  ---------------------------------------


    POTLOK:  cpu time  360.4195: real time  361.1511
    SETDIJ:  cpu time    0.0870: real time    0.0871
    EDDIAG:  cpu time   11.2924: real time   11.3151
  RMM-DIIS:  cpu time   35.1974: real time   35.2665
    ORTHCH:  cpu time    0.2459: real time    0.2464
       DOS:  cpu time    0.0002: real time    0.0002
    CHARGE:  cpu time    5.1989: real time    5.2093
    MIXING:  cpu time    1.1518: real time    1.1541
    --------------------------------------------
      LOOP:  cpu time  413.5931: real time  414.4299

 eigenvalue-minimisations  :   201
 total energy-change (2. order) :-0.9419062E-02  (-0.9832516E-05)
 number of electron      66.0000006 magnetization       0.0125808
 augmentation part        1.5327427 magnetization       0.0125829

 Broyden mixing:
  rms(total) = 0.99662E-03    rms(broyden)= 0.99661E-03
  rms(prec ) = 0.10309E-02
  weight for this iteration     100.00

 eigenvalues of (default mixing * dielectric matrix)
  average eigenvalue GAMMA=   3.1377
 25.5002  9.6998  5.9025  4.1679  2.8196  2.2309  2.2309  1.8296  1.4315  1.4315
  1.0388  0.9221  0.9221  0.9701  0.8181  0.7556  0.7046  0.6538  0.6269  0.6216
  0.6138

 Free energy of the ion-electron system (eV)
  ---------------------------------------------------
  alpha Z        PSCENC =         0.32162128
  Ewald energy   TEWEN  =      7027.74408135
  -Hartree energ DENC   =     -8781.85799267
  -exchange      EXHF   =         0.00000000
  -V(xc)+E(xc)   XCENC  =       217.75982588
  PAW double counting   =      5906.61171745    -5916.49413428
  entropy T*S    EENTRO =        -0.00000000
  eigenvalues    EBANDS =      -810.67442734
  atomic energy  EATOM  =      2184.94220219
  Solvation  Ediel_sol  =        10.34094721
  ---------------------------------------------------
  free energy    TOTEN  =      -161.30615893 eV

  energy without entropy =     -161.30615893  energy(sigma->0) =     -161.30615893


--------------------------------------------------------------------------------------------------------




--------------------------------------- Iteration      1(  27)  ---------------------------------------


    POTLOK:  cpu time  359.1729: real time  359.9033
    SETDIJ:  cpu time    0.0863: real time    0.0865
    EDDIAG:  cpu time   11.2685: real time   11.2914
  RMM-DIIS:  cpu time   34.2799: real time   34.3475
    ORTHCH:  cpu time    0.2400: real time    0.2404
       DOS:  cpu time    0.0002: real time    0.0002
    CHARGE:  cpu time    5.2673: real time    5.2779
    MIXING:  cpu time    1.2392: real time    1.2417
    --------------------------------------------
      LOOP:  cpu time  411.5542: real time  412.3890

 eigenvalue-minimisations  :   195
 total energy-change (2. order) :-0.3947729E-02  (-0.6320488E-05)
 number of electron      66.0000006 magnetization       0.0058406
 augmentation part        1.5327218 magnetization       0.0058439

 Broyden mixing:
  rms(total) = 0.56631E-03    rms(broyden)= 0.56630E-03
  rms(prec ) = 0.58782E-03
  weight for this iteration     100.00

 eigenvalues of (default mixing * dielectric matrix)
  average eigenvalue GAMMA=   3.1123
 25.7480  9.7512  6.1982  4.6536  3.0761  2.2660  2.2660  1.7688  1.5333  1.5333
  1.1638  1.0563  0.9226  0.9226  0.8699  0.7923  0.7409  0.6976  0.6503  0.6260
  0.6199  0.6147

 Free energy of the ion-electron system (eV)
  ---------------------------------------------------
  alpha Z        PSCENC =         0.32162128
  Ewald energy   TEWEN  =      7027.74408135
  -Hartree energ DENC   =     -8781.94599545
[...]
      LOOP:  cpu time  376.2972: real time  377.1010

 eigenvalue-minimisations  :   216
 total energy-change (2. order) :-0.2179659E-06  (-0.5260760E-05)
 number of electron      66.0000007 magnetization       0.0000000
 augmentation part        1.5281088 magnetization       0.0000000

 Free energy of the ion-electron system (eV)
  ---------------------------------------------------
  alpha Z        PSCENC =         0.32162128
  Ewald energy   TEWEN  =      7014.48967361
  -Hartree energ DENC   =     -8769.28811861
  -exchange      EXHF   =         0.00000000
  -V(xc)+E(xc)   XCENC  =       217.58641928
  PAW double counting   =      5863.66256946    -5873.53004151
  entropy T*S    EENTRO =        -0.00000000
  eigenvalues    EBANDS =      -810.17299064
  atomic energy  EATOM  =      2184.94220219
  Solvation  Ediel_sol  =        10.66415855
  ---------------------------------------------------
  free energy    TOTEN  =      -161.32450639 eV

  energy without entropy =     -161.32450639  energy(sigma->0) =     -161.32450639


--------------------------------------------------------------------------------------------------------




 average (electrostatic) potential at core
  the test charge radii are     0.6991  0.5201
  (the norm of the test charge is              1.0000)
       1 -58.9067       2 -58.8970       3 -58.9068       4 -58.9943       5 -59.5676
       6 -58.9943       7 -59.0414       8 -59.0414       9 -59.5677      10 -58.9943
      11 -58.9068      12 -58.8969      13 -58.9066      14 -58.9945      15 -42.1709
      16 -42.1710      17 -42.1089      18 -42.0927      19 -42.1095      20 -42.1706
      21 -42.1706      22 -42.1096      23 -42.0927      24 -42.1092
 
 
 
 E-fermi :  -5.2549     XC(G=0):  -0.0563     alpha+bet : -0.0262


 spin component 1

 k-point     1 :       0.0000    0.0000    0.0000
  band No.  band energies     occupation 
      1     -21.5742      1.00000
      2     -21.4907      1.00000
      3     -19.7067      1.00000
      4     -19.0758      1.00000
      5     -18.5918      1.00000
      6     -18.5877      1.00000
      7     -17.7310      1.00000
      8     -15.7433      1.00000
      9     -15.0293      1.00000
     10     -14.9948      1.00000
     11     -14.9934      1.00000
     12     -13.4644      1.00000
     13     -13.0561      1.00000
     14     -11.8692      1.00000
     15     -11.5711      1.00000
     16     -11.3059      1.00000
     17     -11.1819      1.00000
     18     -10.6311      1.00000
     19     -10.4913      1.00000
     20     -10.2838      1.00000
     21     -10.2756      1.00000
     22      -9.7177      1.00000
     23      -9.4092      1.00000
     24      -8.6721      1.00000
     25      -8.5694      1.00000
     26      -8.4443      1.00000
     27      -8.3362      1.00000
     28      -8.0331      1.00000
     29      -6.9426      1.00000
     30      -6.7045      1.00000
     31      -6.5551      1.00000
     32      -6.5524      1.00000
     33      -5.5010      1.00000
     34      -2.4360      0.00000
     35      -1.4414      0.00000
     36      -1.4000      0.00000
     37      -1.0836      0.00000
     38      -0.5746      0.00000
     39      -0.3102      0.00000
     40      -0.0944      0.00000
     41      -0.0090      0.00000
     42       0.0110      0.00000
     43       0.0330      0.00000
     44       0.0368      0.00000
     45       0.0813      0.00000
     46       0.0958      0.00000
     47       0.0973      0.00000
     48       0.1007      0.00000
     49       0.1180      0.00000
     50       0.1296      0.00000
     51       0.1485      0.00000
     52       0.1635      0.00000
     53       0.1750      0.00000
     54       0.1764      0.00000
     55       0.1764      0.00000
     56       0.1781      0.00000
     57       0.1796      0.00000
     58       0.1909      0.00000

 spin component 2

 k-point     1 :       0.0000    0.0000    0.0000
  band No.  band energies     occupation 
      1     -21.5742      1.00000
      2     -21.4907      1.00000
      3     -19.7067      1.00000
      4     -19.0758      1.00000
      5     -18.5918      1.00000
      6     -18.5877      1.00000
      7     -17.7310      1.00000
      8     -15.7433      1.00000
      9     -15.0293      1.00000
     10     -14.9948      1.00000
     11     -14.9934      1.00000
     12     -13.4644      1.00000
     13     -13.0561      1.00000
     14     -11.8692      1.00000
     15     -11.5711      1.00000
     16     -11.3059      1.00000
     17     -11.1819      1.00000
     18     -10.6311      1.00000
     19     -10.4913      1.00000
     20     -10.2838      1.00000
     21     -10.2756      1.00000
     22      -9.7177      1.00000
     23      -9.4092      1.00000
     24      -8.6721      1.00000
     25      -8.5694      1.00000
     26      -8.4443      1.00000
     27      -8.3362      1.00000
     28      -8.0331      1.00000
     29      -6.9426      1.00000
     30      -6.7045      1.00000
     31      -6.5551      1.00000
     32      -6.5524      1.00000
     33      -5.5010      1.00000
     34      -2.4360      0.00000
     35      -1.4414      0.00000
     36      -1.4000      0.00000
     37      -1.0836      0.00000
     38      -0.5746      0.00000
     39      -0.3102      0.00000
     40      -0.0944      0.00000
     41      -0.0090      0.00000
     42       0.0110      0.00000
     43       0.0330      0.00000
     44       0.0368      0.00000
     45       0.0813      0.00000
     46       0.0959      0.00000
     47       0.0973      0.00000
     48       0.1007      0.00000
     49       0.1180      0.00000
     50       0.1297      0.00000
     51       0.1485      0.00000
     52       0.1635      0.00000
     53       0.1750      0.00000
     54       0.1764      0.00000
     55       0.1764      0.00000
     56       0.1781      0.00000
     57       0.1796      0.00000
     58       0.1910      0.00000


--------------------------------------------------------------------------------------------------------


 soft charge-density along one line, spin component           1
         0         1         2         3         4         5         6         7         8         9
 total charge-density along one line
 
 soft charge-density along one line, spin component           2
         0         1         2         3         4         5         6         7         8         9
 total charge-density along one line
 
 pseudopotential strength for first ion, spin component:           1
 10.263  13.649  -0.001   0.000  -0.001   0.003   0.000   0.003
 13.649  18.152  -0.001   0.000  -0.001   0.004   0.000   0.004
 -0.001  -0.001  -4.385  -0.000   0.001   8.577   0.000  -0.001
  0.000   0.000  -0.000  -4.380   0.000   0.000   8.572  -0.000
 -0.001  -0.001   0.001   0.000  -4.386  -0.001  -0.000   8.579
  0.003   0.004   8.577   0.000  -0.001 -18.915  -0.000   0.002
  0.000   0.000   0.000   8.572  -0.000  -0.000 -18.915   0.000
  0.003   0.004  -0.001  -0.000   8.579   0.002   0.000 -18.918
 pseudopotential strength for first ion, spin component:           2
 10.263  13.649  -0.001   0.000  -0.001   0.003   0.000   0.003
 13.649  18.152  -0.001   0.000  -0.001   0.004   0.000   0.004
 -0.001  -0.001  -4.385  -0.000   0.001   8.577   0.000  -0.001
  0.000   0.000  -0.000  -4.380   0.000   0.000   8.572  -0.000
 -0.001  -0.001   0.001   0.000  -4.386  -0.001  -0.000   8.579
  0.003   0.004   8.577   0.000  -0.001 -18.915  -0.000   0.002
  0.000   0.000   0.000   8.572  -0.000  -0.000 -18.915   0.000
  0.003   0.004  -0.001  -0.000   8.579   0.002   0.000 -18.918
 total augmentation occupancy for first ion, spin component:           1
  7.849  -3.407  -0.204  -0.000  -0.137  -0.041  -0.000  -0.027
 -3.407   1.522   0.133   0.000   0.090   0.025   0.000   0.016
 -0.204   0.133   1.784   0.000  -0.040   0.156   0.000  -0.008
 -0.000   0.000   0.000   1.137  -0.000   0.000   0.066  -0.000
 -0.137   0.090  -0.040  -0.000   1.833  -0.008  -0.000   0.167
 -0.041   0.025   0.156   0.000  -0.008   0.015   0.000  -0.001
 -0.000   0.000   0.000   0.066  -0.000   0.000   0.004  -0.000
 -0.027   0.016  -0.008  -0.000   0.167  -0.001  -0.000   0.016
 total augmentation occupancy for first ion, spin component:           2
 -0.000   0.000   0.000   0.000  -0.000   0.000  -0.000   0.000
  0.000  -0.000  -0.000  -0.000   0.000  -0.000   0.000  -0.000
  0.000  -0.000   0.000   0.000  -0.000   0.000   0.000   0.000
  0.000  -0.000   0.000   0.000   0.000   0.000  -0.000   0.000
 -0.000   0.000  -0.000   0.000   0.000  -0.000   0.000  -0.000
  0.000  -0.000   0.000   0.000  -0.000   0.000   0.000   0.000
 -0.000   0.000   0.000  -0.000   0.000   0.000  -0.000   0.000
  0.000  -0.000   0.000   0.000  -0.000   0.000   0.000  -0.000


------------------------ aborting loop because EDIFF is reached ----------------------------------------


    CHARGE:  cpu time    5.2838: real time    5.2946
    FORLOC:  cpu time    1.3944: real time    1.3974
    FORNL :  cpu time   17.1880: real time   17.2224
    STRESS:  cpu time   52.3885: real time   52.4931
    FORCOR:  cpu time   20.2823: real time   20.3253
    FORHAR:  cpu time    3.8116: real time    3.8196
    MIXING:  cpu time    0.4183: real time    0.4192
    OFIELD:  cpu time    0.0000: real time    0.0000

 ---------------------------------------------------------------------------------------------

         DFTD3 V3.0 Rev 1        
 Edisp (eV)   -0.23727

 E6    (eV) :    -0.1091
 E8    (eV) :    -0.1282
 % E8        : 54.03
    FORVDW:  cpu time    0.0118: real time    0.0125

  FORCE on cell =-STRESS in cart. coord.  units (eV):
  Direction    XX          YY          ZZ          XY          YZ          ZX
  --------------------------------------------------------------------------------------
  Alpha Z     0.32162     0.32162     0.32162
  Ewald    5433.35085  2335.33747  -754.19974     0.01267    -0.00257    -0.00539
  Hartree  5316.70508  2658.37603   794.17497     0.01359    -0.00129    -0.01244
  E(xc)    -235.79722  -237.40600  -243.84234    -0.00000    -0.00001     0.00005
  Local  -11336.53889 -5615.62931  -778.82401    -0.02615     0.00368     0.01778
  n-local   -76.25938   -79.18033   -70.84680    -0.00066    -0.00022     0.00017
  augment    -4.23093    -3.97015    -3.49256     0.00000     0.00000     0.00001
  Kinetic   903.41876   944.25693  1053.13778    -0.00053     0.00017     0.00028
  Fock        0.00000     0.00000     0.00000     0.00000     0.00000     0.00000
  vdW        -0.11761     0.03814    -0.00001    -0.00000    -0.00000     0.00000
  -------------------------------------------------------------------------------------
  Total       0.85228     2.14440    -3.57109    -0.00108    -0.00025     0.00045
  in kB       0.02134     0.05368    -0.08940    -0.00003    -0.00001     0.00001
  external pressure =       -0.00 kB  Pullay stress =        0.00 kB


 VOLUME and BASIS-vectors are now :
 -----------------------------------------------------------------------------
  energy-cutoff  :      500.00
  volume of cell :    64000.00
      direct lattice vectors                 reciprocal lattice vectors
    40.000000000  0.000000000  0.000000000     0.025000000  0.000000000  0.000000000
     0.000000000 40.000000000  0.000000000     0.000000000  0.025000000  0.000000000
     0.000000000  0.000000000 40.000000000     0.000000000  0.000000000  0.025000000

  length of vectors
    40.000000000 40.000000000 40.000000000     0.025000000  0.025000000  0.025000000


 FORCES acting on ions
    electron-ion (+dipol)            ewald-force                    non-local-force                 convergence-correction
 -----------------------------------------------------------------------------------------------
   -.137E+03 -.164E+03 -.325E-01   0.138E+03 0.165E+03 0.325E-01   -.869E+00 -.111E+01 0.162E-03   0.382E-02 -.573E-03 -.266E-04
   -.219E+03 0.454E-02 0.142E-01   0.219E+03 -.541E-02 -.144E-01   -.140E+01 -.748E-03 0.738E-03   0.350E-02 -.455E-03 0.149E-03
   -.137E+03 0.164E+03 0.523E-01   0.138E+03 -.165E+03 -.527E-01   -.870E+00 0.111E+01 0.766E-03   0.470E-02 0.166E-02 0.266E-03
   0.957E+01 0.178E+03 0.429E-01   -.102E+02 -.179E+03 -.431E-01   0.301E+00 0.172E+01 -.475E-03   -.655E-02 0.601E-02 0.266E-03
   0.265E+02 0.284E-02 0.114E-01   -.238E+02 -.238E-02 -.124E-01   -.308E+01 -.122E-02 0.164E-02   -.307E-02 -.618E-03 0.301E-03
   0.956E+01 -.178E+03 -.517E-01   -.101E+02 0.179E+03 0.524E-01   0.300E+00 -.172E+01 -.623E-03   -.524E-02 -.549E-02 -.829E-04
   -.165E+02 0.103E-01 -.228E-01   0.182E+02 -.876E-02 0.219E-01   -.187E+01 -.132E-02 0.142E-02   -.446E-02 -.232E-03 -.119E-03
   0.166E+02 0.316E-01 -.497E-01   -.182E+02 -.312E-01 0.503E-01   0.187E+01 0.512E-03 -.103E-03   0.432E-02 -.424E-03 -.136E-03
   -.265E+02 0.136E-01 -.536E-02   0.238E+02 -.134E-01 0.450E-02   0.308E+01 -.257E-02 0.199E-02   0.369E-02 -.178E-02 0.838E-04
   -.958E+01 0.178E+03 -.624E-01   0.102E+02 -.179E+03 0.633E-01   -.300E+00 0.172E+01 -.565E-03   0.745E-02 0.603E-02 -.227E-03
   0.137E+03 0.164E+03 -.303E-01   -.138E+03 -.165E+03 0.306E-01   0.866E+00 0.111E+01 0.292E-03   -.551E-02 0.193E-02 -.203E-03
   0.219E+03 0.754E-02 0.232E-01   -.219E+03 -.851E-02 -.234E-01   0.140E+01 0.441E-03 0.841E-04   -.373E-02 -.556E-03 0.430E-04
   0.137E+03 -.164E+03 0.511E-01   -.138E+03 0.165E+03 -.513E-01   0.869E+00 -.111E+01 -.256E-03   -.446E-02 -.285E-03 0.124E-03
   -.956E+01 -.178E+03 0.340E-01   0.101E+02 0.179E+03 -.342E-01   -.300E+00 -.172E+01 -.178E-03   0.485E-02 -.489E-02 0.135E-03
   0.223E+02 -.808E+02 -.156E-01   -.252E+02 0.855E+02 0.167E-01   0.295E+01 -.507E+01 -.876E-03   -.124E-02 -.126E-03 -.325E-04
   -.223E+02 -.808E+02 0.119E-01   0.252E+02 0.855E+02 -.125E-01   -.295E+01 -.507E+01 0.624E-03   0.128E-02 0.256E-04 0.121E-04
   0.490E+02 -.728E+02 0.195E-01   -.517E+02 0.775E+02 -.208E-01   0.290E+01 -.506E+01 0.129E-02   -.773E-04 -.364E-03 0.135E-04
   0.877E+02 -.448E-02 0.889E-02   -.931E+02 0.468E-02 -.950E-02   0.583E+01 -.500E-03 0.602E-03   0.931E-03 -.396E-04 0.732E-05
   0.490E+02 0.728E+02 -.700E-02   -.517E+02 -.775E+02 0.756E-02   0.291E+01 0.506E+01 -.347E-03   -.410E-03 0.267E-03 -.346E-04
   -.222E+02 0.808E+02 -.175E-01   0.252E+02 -.855E+02 0.186E-01   -.294E+01 0.507E+01 -.884E-03   0.135E-02 0.260E-03 -.443E-04
   0.222E+02 0.808E+02 0.120E-01   -.252E+02 -.855E+02 -.126E-01   0.294E+01 0.507E+01 0.520E-03   -.131E-02 0.217E-03 0.235E-04
   -.490E+02 0.728E+02 0.163E-01   0.517E+02 -.775E+02 -.174E-01   -.291E+01 0.506E+01 0.985E-03   0.314E-03 0.247E-03 0.330E-04
   -.877E+02 -.307E-02 0.462E-02   0.931E+02 0.323E-02 -.493E-02   -.583E+01 -.314E-03 0.288E-03   -.873E-03 -.364E-04 0.152E-04
   -.490E+02 -.728E+02 -.101E-01   0.517E+02 0.775E+02 0.109E-01   -.290E+01 -.506E+01 -.620E-03   0.991E-04 -.293E-03 -.107E-04
 -----------------------------------------------------------------------------------------------
   0.134E-02 0.191E-02 -.398E-02   -.497E-13 -.142E-12 -.104E-16   0.502E-03 -.493E-02 0.648E-02   -.653E-03 0.497E-03 0.556E-03
 
 
 POSITION                                       TOTAL-FORCE (eV/Angst)
 -----------------------------------------------------------------------------------
     24.14205     21.21162     20.00020         0.008578      0.002772      0.000072
     24.84423     20.00007     19.99986         0.007117     -0.001924      0.000555
     24.14208     18.78843     19.99962         0.008824     -0.000742      0.000344
     22.74798     18.78208     19.99972         0.008159      0.006610     -0.000693
     22.03080     20.00000     20.00003        -0.014203     -0.001206      0.000802
     22.74789     21.21792     20.00030         0.009897     -0.007014     -0.000118
     20.61123     19.99990     20.00024        -0.003958      0.000171      0.000153
     19.38877     19.99983     20.00034         0.003092      0.000624      0.000083
     17.96918     19.99999     20.00017         0.015429     -0.003901      0.001048
     17.25200     18.78203     20.00042        -0.005373      0.007604     -0.000068
     15.85795     18.78838     20.00025        -0.014484      0.000769      0.000174
     15.15576     20.00004     19.99988        -0.003453     -0.000930     -0.000272
     15.85797     21.21157     19.99968        -0.010245      0.003252     -0.000673
     17.25213     21.21786     19.99983        -0.009912     -0.006011     -0.000454
     22.19755     22.15938     20.00047         0.009188      0.005592      0.000077
     17.80246     22.15932     19.99972        -0.009269      0.005655     -0.000198
     15.31519     22.15809     19.99944         0.000763     -0.002760     -0.000184
     14.06457     20.00012     19.99977         0.010979     -0.000199     -0.000172
     15.31497     17.84203     20.00032         0.000751      0.001344      0.000058
     17.80226     17.84049     20.00060        -0.009386     -0.004332      0.000117
     22.19771     17.84056     19.99962         0.009330     -0.004543     -0.000249
     24.68499     17.84204     19.99943        -0.000410      0.001245     -0.000250
     25.93542     20.00012     19.99981        -0.011076     -0.000071     -0.000165
     24.68483     22.15811     20.00032        -0.000335     -0.002005      0.000013
 -----------------------------------------------------------------------------------
    total drift:                                0.001188     -0.002526      0.003061


--------------------------------------------------------------------------------------------------------



  FREE ENERGIE OF THE ION-ELECTRON SYSTEM (eV)
  ---------------------------------------------------
  free  energy   TOTEN  =      -161.56177319 eV

  energy  without entropy=     -161.56177319  energy(sigma->0) =     -161.56177319
 
 d Force = 0.3385993E-04[-0.295E-05, 0.707E-04]  d Energy = 0.3226299E-04 0.160E-05
 d Force = 0.2464040E+00[ 0.246E+00, 0.247E+00]  d Ewald  = 0.2464040E+00 0.853E-08


--------------------------------------------------------------------------------------------------------


    POTLOK:  cpu time  332.0522: real time  332.7253


--------------------------------------------------------------------------------------------------------


 Conjugate gradient step on ions:
 trial-energy change:   -0.000032  1 .order   -0.000034   -0.000071    0.000003
  (g-gl).g = 0.202E-03      g.g   = 0.184E-03  gl.gl    = 0.380E-03
 g(Force)  = 0.184E-03   g(Stress)= 0.000E+00 ortho     =-0.192E-04
 gamma     =   0.53082
 trial     =   0.40653
 opt step  =   0.39022  (harmonic =   0.39022) maximal distance =0.00047754
 next E    =  -161.561775   (d E  =  -0.00003)


--------------------------------------------------------------------------------------------------------


  
 reached required accuracy - stopping structural energy minimisation
 writing wavefunctions
     LOOP+:  cpu time 1241.6870: real time 1245.6361
    4ORBIT:  cpu time    0.0000: real time    0.0000

 total amount of memory used by VASP MPI-rank0  1855810. kBytes
=======================================================================

   base      :      30000. kBytes
   nonlr-proj:       1397. kBytes
   fftplans  :     478128. kBytes
   grid      :    1157748. kBytes
   one-center:         12. kBytes
   wavefun   :     188525. kBytes
 
  
  
 General timing and accounting informations for this job:
 ========================================================
  
                  Total CPU time used (sec):    39868.969
                            User time (sec):    38992.653
                          System time (sec):      876.315
                         Elapsed time (sec):    39953.118
  
                   Maximum memory used (kb):     6082348.
                   Average memory used (kb):           0.
  
                          Minor page faults:    572268865
                          Major page faults:            2
                 Voluntary context switches:       422682
