 vasp.6.3.2 27Jun22 (build Oct 25 2024 11:36:28) complex                        
  
 executed on             LinuxIFC date 2024.12.21  13:38:15
 running on   80 total cores
 distrk:  each k-point on   80 cores,    1 groups
 distr:  one band on NCORE=  10 cores,    8 groups


--------------------------------------------------------------------------------------------------------


 INCAR:
   SYSTEM = 103_red
   ISTART = 1
   ICHARG = 2
   INIWAV = 1
   NELM = 100
   ALGO = fast   	
   ISPIN = 2
   EDIFF = 1E-05
   ISMEAR = 0
   SIGMA = 0.05
   PREC = accurate
   ENCUT = 500
   LREAL = auto  	
   LWAVE = .TRUE.
   LCHARG = .FALSE.
   LAECHG = .FALSE.
   LVHAR = .FALSE.
   LVTOT = .FALSE.
   EDIFFG = -0.02
   IBRION = 2
   NSW = 500
   ISIF = 2
   POTIM = 0.5
   IVDW = 11
   LPLANE = .TRUE.
   NCORE = 10
   LSCALU = .FALSE.
   NSIM = 4
   LSOL = .TRUE.
   ISOL = 2
   R_SOLV = 2.1900
   EPSILON_INF = 1.8069
   N_MOL = 0.0115
   P_MOL = 0.82
   EB_K = 35.6880
   NELECT = 35

 POTCAR:    PAW_PBE C 08Apr2002                   
 POTCAR:    PAW_PBE N 08Apr2002                   
 POTCAR:    PAW_PBE H 15Jun2001                   
 -----------------------------------------------------------------------------
|                                                                             |
|           W    W    AA    RRRRR   N    N  II  N    N   GGGG   !!!           |
|           W    W   A  A   R    R  NN   N  II  NN   N  G    G  !!!           |
|           W    W  A    A  R    R  N N  N  II  N N  N  G       !!!           |
|           W WW W  AAAAAA  RRRRR   N  N N  II  N  N N  G  GGG   !            |
|           WW  WW  A    A  R   R   N   NN  II  N   NN  G    G                |
|           W    W  A    A  R    R  N    N  II  N    N   GGGG   !!!           |
|                                                                             |
|     You use a magnetic or noncollinear calculation, but did not specify     |
|     the initial magnetic moment with the MAGMOM tag. Note that a            |
|     default of 1 will be used for all atoms. This ferromagnetic setup       |
|     may break the symmetry of the crystal, in particular it may rule        |
|     out finding an antiferromagnetic solution. Thence, we recommend         |
|     setting the initial magnetic moment manually or verifying carefully     |
|     that this magnetic setup is desired.                                    |
|                                                                             |
 -----------------------------------------------------------------------------

 POTCAR:    PAW_PBE C 08Apr2002                   
   SHA256 =  253f7b50bb8d59471dbedb8285d89021f4a42ed1a2c5d38a03a736e69125dd95 C/POTCAR              
   COPYR  = (c) Copyright 08Apr2002 Georg Kresse                                                    
   COPYR  = This file is part of the software VASP. Any use, copying, and all other rights are regul
   COPYR  = If you do not have a valid VASP license, you may not use, copy or distribute this file. 
   VRHFIN =C: s2p2                                                                                  
   LEXCH  = PE                                                                                      
   EATOM  =   147.1560 eV,   10.8157 Ry                                                             
                                                                                                    
   TITEL  = PAW_PBE C 08Apr2002                                                                     
   LULTRA =        F    use ultrasoft PP ?                                                          
   IUNSCR =        1    unscreen: 0-lin 1-nonlin 2-no                                               
   RPACOR =    1.200    partial core radius                                                         
   POMASS =   12.011; ZVAL   =    4.000    mass and valenz                                          
   RCORE  =    1.500    outmost cutoff radius                                                       
   RWIGS  =    1.630; RWIGS  =    0.863    wigner-seitz radius (au A)                               
   ENMAX  =  400.000; ENMIN  =  300.000 eV                                                          
   ICORE  =        2    local potential                                                             
   LCOR   =        T    correct aug charges                                                         
   LPAW   =        T    paw PP                                                                      
   EAUG   =  644.873                                                                                
   DEXC   =    0.000                                                                                
   RMAX   =    1.529    core radius for proj-oper                                                   
   RAUG   =    1.300    factor for augmentation sphere                                              
   RDEP   =    1.501    radius for radial grids                                                     
   RDEPT  =    1.300    core radius for aug-charge                                                  
                                                                                                    
   Atomic configuration                                                                             
    4 entries                                                                                       
     n  l   j            E        occ.                                                              
     1  0  0.50      -273.3789   2.0000                                                             
     2  0  0.50       -13.7508   2.0000                                                             
     2  1  0.50        -5.2854   2.0000                                                             
     3  2  1.50        -5.4423   0.0000                                                             
   Description                                                                                      
     l       E           TYP  RCUT    TYP  RCUT                                                     
     0    -13.7508458     23  1.200                                                                 
     0     -8.2022199     23  1.200                                                                 
     1     -5.2854383     23  1.500                                                                 
     1     34.0145650     23  1.500                                                                 
     2     -5.4423304      7  1.500                                                                 
  local pseudopotential read in
  partial core-charges read in
  partial kinetic energy density read in
  atomic valenz-charges read in
  non local Contribution for L=           0  read in
    real space projection operators read in
  non local Contribution for L=           0  read in
    real space projection operators read in
  non local Contribution for L=           1  read in
    real space projection operators read in
  non local Contribution for L=           1  read in
    real space projection operators read in
    PAW grid and wavefunctions read in
 
   number of l-projection  operators is LMAX  =           4
   number of lm-projection operators is LMMAX =           8
 
 POTCAR:    PAW_PBE N 08Apr2002                   
   SHA256 =  e053789ff3a61a86a1b75d8a110fcc91f86041011e7b0817c7c99e4e8a6349d7 N/POTCAR              
   COPYR  = (c) Copyright 08Apr2002 Georg Kresse                                                    
   COPYR  = This file is part of the software VASP. Any use, copying, and all other rights are regul
   COPYR  = If you do not have a valid VASP license, you may not use, copy or distribute this file. 
   VRHFIN =N: s2p3                                                                                  
   LEXCH  = PE                                                                                      
   EATOM  =   264.5486 eV,   19.4438 Ry                                                             
                                                                                                    
   TITEL  = PAW_PBE N 08Apr2002                                                                     
   LULTRA =        F    use ultrasoft PP ?                                                          
   IUNSCR =        1    unscreen: 0-lin 1-nonlin 2-no                                               
   RPACOR =    1.200    partial core radius                                                         
   POMASS =   14.001; ZVAL   =    5.000    mass and valenz                                          
   RCORE  =    1.500    outmost cutoff radius                                                       
   RWIGS  =    1.400; RWIGS  =    0.741    wigner-seitz radius (au A)                               
   ENMAX  =  400.000; ENMIN  =  300.000 eV                                                          
   ICORE  =        2    local potential                                                             
   LCOR   =        T    correct aug charges                                                         
   LPAW   =        T    paw PP                                                                      
   EAUG   =  627.112                                                                                
   DEXC   =    0.000                                                                                
   RMAX   =    1.529    core radius for proj-oper                                                   
   RAUG   =    1.300    factor for augmentation sphere                                              
   RDEP   =    1.514    radius for radial grids                                                     
   RDEPT  =    1.338    core radius for aug-charge                                                  
                                                                                                    
   Atomic configuration                                                                             
    4 entries                                                                                       
     n  l   j            E        occ.                                                              
     1  0  0.50      -384.7179   2.0000                                                             
     2  0  0.50       -18.5828   2.0000                                                             
     2  1  0.50        -7.0898   3.0000                                                             
     3  2  1.50        -6.8029   0.0000                                                             
   Description                                                                                      
     l       E           TYP  RCUT    TYP  RCUT                                                     
     0    -18.5828119     23  1.200                                                                 
     0    -13.5018863     23  1.200                                                                 
     1     -7.0897853     23  1.500                                                                 
     1      9.5240782     23  1.500                                                                 
     2     -6.8029130      7  1.500                                                                 
  local pseudopotential read in
  partial core-charges read in
  partial kinetic energy density read in
  atomic valenz-charges read in
  non local Contribution for L=           0  read in
    real space projection operators read in
  non local Contribution for L=           0  read in
    real space projection operators read in
  non local Contribution for L=           1  read in
    real space projection operators read in
  non local Contribution for L=           1  read in
    real space projection operators read in
    PAW grid and wavefunctions read in
 
   number of l-projection  operators is LMAX  =           4
   number of lm-projection operators is LMMAX =           8
 
 POTCAR:    PAW_PBE H 15Jun2001                   
   SHA256 =  030f79b5d3ab3cf0e668861823c8fb652ff669f3e15e46930bd03bfd63a607b6 H/POTCAR              
   COPYR  = (c) Copyright 15Jun2001 Georg Kresse                                                    
   COPYR  = This file is part of the software VASP. Any use, copying, and all other rights are regul
   COPYR  = If you do not have a valid VASP license, you may not use, copy or distribute this file. 
   VRHFIN =H: ultrasoft test                                                                        
   LEXCH  = PE                                                                                      
   EATOM  =    12.4884 eV,    0.9179 Ry                                                             
                                                                                                    
   TITEL  = PAW_PBE H 15Jun2001                                                                     
   LULTRA =        F    use ultrasoft PP ?                                                          
   IUNSCR =        0    unscreen: 0-lin 1-nonlin 2-no                                               
   RPACOR =    0.000    partial core radius                                                         
   POMASS =    1.000; ZVAL   =    1.000    mass and valenz                                          
   RCORE  =    1.100    outmost cutoff radius                                                       
   RWIGS  =    0.700; RWIGS  =    0.370    wigner-seitz radius (au A)                               
   ENMAX  =  250.000; ENMIN  =  200.000 eV                                                          
   RCLOC  =    0.701    cutoff for local pot                                                        
   LCOR   =        T    correct aug charges                                                         
   LPAW   =        T    paw PP                                                                      
   EAUG   =  400.000                                                                                
   RMAX   =    1.123    core radius for proj-oper                                                   
   RAUG   =    1.200    factor for augmentation sphere                                              
   RDEP   =    1.112    radius for radial grids                                                     
   RDEPT  =    0.926    core radius for aug-charge                                                  
                                                                                                    
   Atomic configuration                                                                             
    2 entries                                                                                       
     n  l   j            E        occ.                                                              
     1  0  0.50        -6.4927   1.0000                                                             
     2  1  0.50        -3.4015   0.0000                                                             
   Description                                                                                      
     l       E           TYP  RCUT    TYP  RCUT                                                     
     0     -6.4927494     23  1.100                                                                 
     0      6.8029130     23  1.100                                                                 
     1     -4.0817478     23  1.100                                                                 
  local pseudopotential read in
  atomic valenz-charges read in
  non local Contribution for L=           0  read in
    real space projection operators read in
  non local Contribution for L=           0  read in
    real space projection operators read in
  non local Contribution for L=           1  read in
    real space projection operators read in
    PAW grid and wavefunctions read in
 
   number of l-projection  operators is LMAX  =           3
   number of lm-projection operators is LMMAX =           5
 
 Optimization of the real space projectors (new method)

 maximal supplied QI-value         = 25.13
 optimisation between [QCUT,QGAM] = [ 11.31, 22.87] = [ 35.82,146.48] Ry 
 Optimized for a Real-space Cutoff    1.03 Angstroem

   l    n(q)    QCUT    max X(q) W(low)/X(q) W(high)/X(q)  e(spline) 
   0      7    11.310   115.676    0.20E-03    0.90E-03    0.20E-06
   0      7    11.310    87.132    0.20E-03    0.89E-03    0.19E-06
   1      6    11.310     4.429    0.16E-03    0.28E-03    0.12E-06
   1      6    11.310     2.733    0.12E-03    0.21E-03    0.99E-07
 Optimization of the real space projectors (new method)

 maximal supplied QI-value         = 25.13
 optimisation between [QCUT,QGAM] = [ 11.31, 22.87] = [ 35.82,146.48] Ry 
 Optimized for a Real-space Cutoff    1.43 Angstroem

   l    n(q)    QCUT    max X(q) W(low)/X(q) W(high)/X(q)  e(spline) 
   0     10    11.310    79.467    0.42E-04    0.81E-04    0.60E-06
   0     10    11.310    66.151    0.40E-04    0.81E-04    0.60E-06
   1      9    11.310    17.416    0.14E-03    0.88E-04    0.14E-05
   1      9    11.310    12.382    0.15E-03    0.93E-04    0.14E-05
 Optimization of the real space projectors (new method)

 maximal supplied QI-value         = 34.20
 optimisation between [QCUT,QGAM] = [ 11.29, 22.57] = [ 35.68,142.71] Ry 
 Optimized for a Real-space Cutoff    1.20 Angstroem

   l    n(q)    QCUT    max X(q) W(low)/X(q) W(high)/X(q)  e(spline) 
   0      8    11.287    19.460    0.22E-03    0.50E-03    0.19E-06
   0      8    11.287    12.209    0.21E-03    0.48E-03    0.18E-06
   1      8    11.287     4.655    0.21E-03    0.11E-04    0.26E-06
  PAW_PBE C 08Apr2002                   :
 energy of atom  1       EATOM= -147.1560
 kinetic energy error for atom=    0.0076 (will be added to EATOM!!)
  PAW_PBE N 08Apr2002                   :
 energy of atom  2       EATOM= -264.5486
 kinetic energy error for atom=    0.0138 (will be added to EATOM!!)
  PAW_PBE H 15Jun2001                   :
 energy of atom  3       EATOM=  -12.4884
 kinetic energy error for atom=    0.0020 (will be added to EATOM!!)
 
 
 POSCAR: C N H
  positions in direct lattice
  velocities in cartesian coordinates
 exchange correlation table for  LEXCH =        8
   RHO(1)=    0.500       N(1)  =     2000
   RHO(2)=  100.500       N(2)  =     4000
 
 POSCAR: C N H
  positions in direct lattice
  velocities in cartesian coordinates
 
 POSCAR: C N H
  positions in direct lattice
  velocities in cartesian coordinates
 


--------------------------------------------------------------------------------------------------------


 ion  position               nearest neighbor table
   1  0.495  0.469  0.500-  14 1.09   2 1.38   6 1.44
   2  0.529  0.469  0.501-  13 1.09   1 1.38   3 1.41
   3  0.547  0.500  0.501-  12 1.09   2 1.41   4 1.41
   4  0.529  0.531  0.501-  11 1.09   5 1.38   3 1.41
   5  0.495  0.531  0.500-  10 1.09   4 1.38   6 1.44
   6  0.477  0.500  0.499-   7 1.33   1 1.44   5 1.44
   7  0.444  0.500  0.498-   8 1.02   9 1.02   6 1.33
   8  0.431  0.522  0.498-   7 1.02
   9  0.431  0.478  0.498-   7 1.02
  10  0.481  0.554  0.500-   5 1.09
  11  0.543  0.554  0.501-   4 1.09
  12  0.574  0.500  0.502-   3 1.09
  13  0.543  0.446  0.501-   2 1.09
  14  0.481  0.446  0.500-   1 1.09
 
  LATTYP: Found a simple cubic cell.
 ALAT       =    40.0000000000
  
  Lattice vectors:
  
 A1 = (  40.0000000000,   0.0000000000,   0.0000000000)
 A2 = (   0.0000000000,  40.0000000000,   0.0000000000)
 A3 = (   0.0000000000,   0.0000000000,  40.0000000000)


Analysis of symmetry for initial positions (statically):
=====================================================================
 Subroutine PRICEL returns:
 Original cell was already a primitive cell.
 

 Routine SETGRP: Setting up the symmetry group for a 
 simple cubic supercell.


 Subroutine GETGRP returns: Found  2 space group operations
 (whereof  2 operations were pure point group operations)
 out of a pool of 48 trial point group operations.


The static configuration has the point symmetry C_1h.


Analysis of symmetry for dynamics (positions and initial velocities):
=====================================================================
 Subroutine PRICEL returns:
 Original cell was already a primitive cell.
 

 Routine SETGRP: Setting up the symmetry group for a 
 simple cubic supercell.


 Subroutine GETGRP returns: Found  2 space group operations
 (whereof  2 operations were pure point group operations)
 out of a pool of 48 trial point group operations.


The dynamic configuration has the point symmetry C_1h.


Analysis of constrained symmetry for selective dynamics:
=====================================================================
 Subroutine PRICEL returns:
 Original cell was already a primitive cell.
 

 Routine SETGRP: Setting up the symmetry group for a 
 simple cubic supercell.


 Subroutine GETGRP returns: Found  2 space group operations
 (whereof  2 operations were pure point group operations)
 out of a pool of 48 trial point group operations.


The constrained configuration has the point symmetry C_1h.


Analysis of structural, dynamic, and magnetic symmetry:
=====================================================================
 Subroutine PRICEL returns:
 Original cell was already a primitive cell.
 

 Routine SETGRP: Setting up the symmetry group for a 
 simple cubic supercell.


 Subroutine GETGRP returns: Found  2 space group operations
 (whereof  2 operations were pure point group operations)
 out of a pool of 48 trial point group operations.


The overall configuration has the point symmetry C_1h.


 Subroutine INISYM returns: Found  2 space group operations
 (whereof  2 operations are pure point group operations),
 and found     1 'primitive' translations


----------------------------------------------------------------------------------------

                                     Primitive cell                                     

  volume of cell :   64000.0000

  direct lattice vectors                    reciprocal lattice vectors
    40.000000000  0.000000000  0.000000000     0.025000000  0.000000000  0.000000000
     0.000000000 40.000000000  0.000000000     0.000000000  0.025000000  0.000000000
     0.000000000  0.000000000 40.000000000     0.000000000  0.000000000  0.025000000

  length of vectors
    40.000000000 40.000000000 40.000000000     0.025000000  0.025000000  0.025000000

  position of ions in fractional coordinates (direct lattice)
     0.494983875  0.468919239  0.500002747
     0.529396206  0.469298960  0.500998337
     0.546835557  0.499999000  0.501412477
     0.529396206  0.530700040  0.500998337
     0.494984875  0.531080761  0.500002747
     0.477043999  0.500000000  0.499355038
     0.443742620  0.500001000  0.498110306
     0.430508662  0.521767862  0.497580580
     0.430507662  0.478234138  0.497580580
     0.481017092  0.554458471  0.499603419
     0.543247733  0.554146746  0.501426557
     0.574072686  0.499999000  0.501899901
     0.543246733  0.445852254  0.501426557
     0.481015092  0.445541529  0.499603419

  ion indices of the primitive-cell ions
   primitive index   ion index
                 1           1
                 2           2
                 3           3
                 4           4
                 5           5
                 6           6
                 7           7
                 8           8
                 9           9
                10          10
                11          11
                12          12
                13          13
                14          14

----------------------------------------------------------------------------------------

 
 
 KPOINTS: K-Point Grid                            

Automatic generation of k-mesh.
 Grid dimensions read from file:
 generate k-points for:    1    1    1

 Generating k-lattice:

  Cartesian coordinates                     Fractional coordinates (reciprocal lattice)
     0.025000000  0.000000000  0.000000000     1.000000000  0.000000000  0.000000000
     0.000000000  0.025000000  0.000000000     0.000000000  1.000000000  0.000000000
     0.000000000  0.000000000  0.025000000     0.000000000  0.000000000  1.000000000

  Length of vectors
     0.025000000  0.025000000  0.025000000

  Shift w.r.t. Gamma in fractional coordinates (k-lattice)
     0.000000000  0.000000000  0.000000000

 
 Subroutine IBZKPT returns following result:
 ===========================================
 
 Found      1 irreducible k-points:
 
 Following reciprocal coordinates:
            Coordinates               Weight
  0.000000  0.000000  0.000000      1.000000
 
 Following cartesian coordinates:
            Coordinates               Weight
  0.000000  0.000000  0.000000      1.000000
 


--------------------------------------------------------------------------------------------------------




 Dimension of arrays:
   k-points           NKPTS =      1   k-points in BZ     NKDIM =      1   number of bands    NBANDS=     32
   number of dos      NEDOS =    301   number of ions     NIONS =     14
   non local maximal  LDIM  =      4   non local SUM 2l+1 LMDIM =      8
   total plane-waves  NPLWV = ******
   max r-space proj   IRMAX =   4928   max aug-charges    IRDMAX=   5085
   dimension x,y,z NGX =   294 NGY =  294 NGZ =  294
   dimension x,y,z NGXF=   588 NGYF=  588 NGZF=  588
   support grid    NGXF=   588 NGYF=  588 NGZF=  588
   ions per type =               6   1   7
   NGX,Y,Z   is equivalent  to a cutoff of  12.22, 12.22, 12.22 a.u.
   NGXF,Y,Z  is equivalent  to a cutoff of  24.44, 24.44, 24.44 a.u.

 SYSTEM =  103_red                                 
 POSCAR =  C N H                                   

 Startparameter for this run:
   NWRITE =      2    write-flag & timer
   PREC   = accura    normal or accurate (medium, high low for compatibility)
   ISTART =      1    job   : 0-new  1-cont  2-samecut
   ICHARG =      2    charge: 1-file 2-atom 10-const
   ISPIN  =      2    spin polarized calculation?
   LNONCOLLINEAR =      F non collinear calculations
   LSORBIT =      F    spin-orbit coupling
   INIWAV =      1    electr: 0-lowe 1-rand  2-diag
   LASPH  =      F    aspherical Exc in radial PAW
 Electronic Relaxation 1
   ENCUT  =  500.0 eV  36.75 Ry    6.06 a.u.  72.93 72.93 72.93*2*pi/ulx,y,z
   ENINI  =  500.0     initial cutoff
   ENAUG  =  644.9 eV  augmentation charge cutoff
   NELM   =    100;   NELMIN=  2; NELMDL=  0     # of ELM steps 
   EDIFF  = 0.1E-04   stopping-criterion for ELM
   LREAL  =      T    real-space projection
   NLSPLINE    = F    spline interpolate recip. space projectors
   LCOMPAT=      F    compatible to vasp.4.4
   GGA_COMPAT  = T    GGA compatible to vasp.4.4-vasp.4.6
   LMAXPAW     = -100 max onsite density
   LMAXMIX     =    2 max onsite mixed and CHGCAR
   VOSKOWN=      0    Vosko Wilk Nusair interpolation
   ROPT   =   -0.00025  -0.00025  -0.00025
 Ionic relaxation
   EDIFFG = -.2E-01   stopping-criterion for IOM
   NSW    =    500    number of steps for IOM
   NBLOCK =      1;   KBLOCK =    500    inner block; outer block 
   IBRION =      2    ionic relax: 0-MD 1-quasi-New 2-CG
   NFREE  =      1    steps in history (QN), initial steepest desc. (CG)
   ISIF   =      2    stress and relaxation
   IWAVPR =     11    prediction:  0-non 1-charg 2-wave 3-comb
   ISYM   =      2    0-nonsym 1-usesym 2-fastsym
   LCORR  =      T    Harris-Foulkes like correction to forces

   POTIM  = 0.5000    time-step for ionic-motion
   TEIN   =    0.0    initial temperature
   TEBEG  =    0.0;   TEEND  =   0.0 temperature during run
   SMASS  =  -3.00    Nose mass-parameter (am)
   estimated Nose-frequenzy (Omega)   =  0.10E-29 period in steps = 0.13E+47 mass=  -0.366E-25a.u.
   SCALEE = 1.0000    scale energy and forces
   NPACO  =    256;   APACO  = 10.0  distance and # of slots for P.C.
   PSTRESS=    0.0 pullay stress

  Mass of Ions in am
   POMASS =  12.01 14.00  1.00
  Ionic Valenz
   ZVAL   =   4.00  5.00  1.00
  Atomic Wigner-Seitz radii
   RWIGS  =  -1.00 -1.00 -1.00
  virtual crystal weights 
   VCA    =   1.00  1.00  1.00
   NELECT =      35.0000    total number of electrons
   NUPDOWN=      -1.0000    fix difference up-down

 DOS related values:
   EMIN   =  10.00;   EMAX   =-10.00  energy-range for DOS
   EFERMI =   0.00
   ISMEAR =     0;   SIGMA  =   0.05  broadening in eV -4-tet -1-fermi 0-gaus

 Electronic relaxation 2 (details)
   IALGO  =     68    algorithm
   LDIAG  =      T    sub-space diagonalisation (order eigenvalues)
   LSUBROT=      F    optimize rotation matrix (better conditioning)
   TURBO    =      0    0=normal 1=particle mesh
   IRESTART =      0    0=no restart 2=restart with 2 vectors
   NREBOOT  =      0    no. of reboots
   NMIN     =      0    reboot dimension
   EREF     =   0.00    reference energy to select bands
   IMIX   =      4    mixing-type and parameters
     AMIX     =   0.40;   BMIX     =  1.00
     AMIX_MAG =   1.60;   BMIX_MAG =  1.00
     AMIN     =   0.10
     WC   =   100.;   INIMIX=   1;  MIXPRE=   1;  MAXMIX= -45

 Intra band minimization:
   WEIMIN = 0.0010     energy-eigenvalue tresh-hold
   EBREAK =  0.78E-07  absolut break condition
   DEPER  =   0.30     relativ break condition  

   TIME   =   0.40     timestep for ELM

  volume/ion in A,a.u.               =    4571.43     30849.52
  Fermi-wavevector in a.u.,A,eV,Ry     =   0.133876  0.252990  0.243856  0.017923
  Thomas-Fermi vector in A             =   0.780200
 
 Write flags
   LWAVE        =      T    write WAVECAR
   LDOWNSAMPLE  =      F    k-point downsampling of WAVECAR
   LCHARG       =      F    write CHGCAR
   LVTOT        =      F    write LOCPOT, total local potential
   LVHAR        =      F    write LOCPOT, Hartree potential only
   LELF         =      F    write electronic localiz. function (ELF)
   LORBIT       =      0    0 simple, 1 ext, 2 COOP (PROOUT), +10 PAW based schemes


 Dipole corrections
   LMONO  =      F    monopole corrections only (constant potential shift)
   LDIPOL =      F    correct potential (dipole corrections)
   IDIPOL =      0    1-x, 2-y, 3-z, 4-all directions 
   EPSILON=  1.0000000 bulk dielectric constant

 Exchange correlation treatment:
   GGA     =    --    GGA type
   LEXCH   =     8    internal setting for exchange type
   LIBXC   =     F    Libxc                    
   VOSKOWN =     0    Vosko Wilk Nusair interpolation
   LHFCALC =     F    Hartree Fock is set to
   LHFONE  =     F    Hartree Fock one center treatment
   AEXX    =    0.0000 exact exchange contribution

 Linear response parameters
   LEPSILON=     F    determine dielectric tensor
   LRPA    =     F    only Hartree local field effects (RPA)
   LNABLA  =     F    use nabla operator in PAW spheres
   LVEL    =     F    velocity operator in full k-point grid
   CSHIFT  =0.1000    complex shift for real part using Kramers Kronig
   OMEGAMAX=  -1.0    maximum frequency
   DEG_THRESHOLD= 0.2000000E-02 threshold for treating states as degnerate
   RTIME   =   -0.100 relaxation time in fs
  (WPLASMAI=    0.000 imaginary part of plasma frequency in eV, 0.658/RTIME)
   DFIELD  = 0.0000000 0.0000000 0.0000000 field for delta impulse in time
 
  Optional k-point grid parameters
   LKPOINTS_OPT  =     F    use optional k-point grid
   KPOINTS_OPT_MODE=     1    mode for optional k-point grid
 
 Orbital magnetization related:
   ORBITALMAG=     F  switch on orbital magnetization
   LCHIMAG   =     F  perturbation theory with respect to B field
   DQ        =  0.001000  dq finite difference perturbation B field
   LLRAUG    =     F  two centre corrections for induced B field

 Solvation model:
   LSOL             =     T         switch on solvation model
   LSOL_SCF         =     T         include solvation in SCF
   ISOL             =     2         solvation model type
   EFERMI_ref       =  0.000000         reference Fermi level
   capacitance_init =  1.000000         initial capacitance
 Nonlinear solvation model:
   LNLDIEL     =     T         switch on non-linear dielectric mode
   LNLION      =     T         switch on non-linear ionic mode
   LNLTEST     =     F         test non-linear model in linear regime
   I_NLOC_SOL  =     1         type of nonlocal dielectric response
   NC_K        =  0.015000     cutoff charge density for cavities (1/Angstrom**3)
   TAU         =  0.000879     cavity formation energy (eV/Angstrom**2)
   SIGMA_K     =  0.600000     cavity width
   A_K         =  0.125000     smoothing length (Angstrom)
   R_SOLV      =  2.190000     solvent radius (Angstrom)
   R_CAV       =  0.000000     cavity radius (Angstrom)
   R_DIEL      =  1.000000     dielectric radius (Angstrom)
   R_ION       =  0.000000     ionic radius (Angstrom)
   R_B         =  0.000000     bound charge radius (Angstrom)
   SOLTEMP     =298.000000     solvent temperature (K)
   EB_K        = 35.688000     relative permittivity of the bulk solvent
   EPSILON_INF =  1.806900     optical relative permittivity of bulk solvent
   N_MOL       =  0.011500     molar density of solvent (1/Angstrom**3)
   P_MOL       =  0.820000     solvent dipole moment (e*Angstrom)
   C_MOLAR     =  0.000000     electrolyte concentration (mol/L)
   LAMBDA_D_K  =  0.000000     Debye length (Angstrom)
   ZION        =  1.000000     charge of ions in electrolyte (e)
   D_ION       = -1.000000     minimum ion packing diameter (Angstrom)



--------------------------------------------------------------------------------------------------------


 conjugate gradient relaxation of ions
   using selective dynamics as specified on POSCAR
 charge density and potential will be updated during run
 spin polarized calculation
 RMM-DIIS sequential band-by-band and
  variant of blocked Davidson during initial phase
 perform sub-space diagonalisation
    before iterative eigenvector-optimisation
 modified Broyden-mixing scheme, WC =      100.0
 initial mixing is a Kerker type mixing with AMIX =  0.4000 and BMIX =      1.0000
 Hartree-type preconditioning will be used
 using additional bands           14
 real space projection scheme for non local part
 use partial core corrections
 calculate Harris-corrections to forces 
   (improved forces if not selfconsistent)
 use gradient corrections 
 use of overlap-Matrix (Vanderbilt PP)
 Gauss-broadening in eV      SIGMA  =   0.05


--------------------------------------------------------------------------------------------------------


  energy-cutoff  :      500.00
  volume of cell :    64000.00
      direct lattice vectors                 reciprocal lattice vectors
    40.000000000  0.000000000  0.000000000     0.025000000  0.000000000  0.000000000
     0.000000000 40.000000000  0.000000000     0.000000000  0.025000000  0.000000000
     0.000000000  0.000000000 40.000000000     0.000000000  0.000000000  0.025000000

  length of vectors
    40.000000000 40.000000000 40.000000000     0.025000000  0.025000000  0.025000000


 
 old parameters found on file WAVECAR:
  energy-cutoff  :      500.00
  volume of cell :    64000.00
      direct lattice vectors                 reciprocal lattice vectors
    40.000000000  0.000000000  0.000000000     0.025000000  0.000000000  0.000000000
     0.000000000 40.000000000  0.000000000     0.000000000  0.025000000  0.000000000
     0.000000000  0.000000000 40.000000000     0.000000000  0.000000000  0.025000000

  length of vectors

 
 k-points in units of 2pi/SCALE and weight: K-Point Grid                            
   0.00000000  0.00000000  0.00000000       1.000
 
 k-points in reciprocal lattice and weights: K-Point Grid                            
   0.00000000  0.00000000  0.00000000       1.000
 
 position of ions in fractional coordinates (direct lattice) 
   0.49498388  0.46891924  0.50000275
   0.52939621  0.46929896  0.50099834
   0.54683556  0.49999900  0.50141248
   0.52939621  0.53070004  0.50099834
   0.49498488  0.53108076  0.50000275
   0.47704400  0.50000000  0.49935504
   0.44374262  0.50000100  0.49811031
   0.43050866  0.52176786  0.49758058
   0.43050766  0.47823414  0.49758058
   0.48101709  0.55445847  0.49960342
   0.54324773  0.55414675  0.50142656
   0.57407269  0.49999900  0.50189990
   0.54324673  0.44585225  0.50142656
   0.48101509  0.44554153  0.49960342
 
 position of ions in cartesian coordinates  (Angst):
  19.79935502 18.75676957 20.00010987
  21.17584823 18.77195841 20.03993348
  21.87342227 19.99996000 20.05649908
  21.17584823 21.22800159 20.03993348
  19.79939502 21.24323043 20.00010987
  19.08175994 20.00000000 19.97420153
  17.74970481 20.00004000 19.92441223
  17.22034649 20.87071447 19.90322319
  17.22030649 19.12936553 19.90322319
  19.24068369 22.17833886 19.98413676
  21.72990934 22.16586985 20.05706227
  22.96290743 19.99996000 20.07599602
  21.72986934 17.83409015 20.05706227
  19.24060369 17.82166114 19.98413676
 


--------------------------------------------------------------------------------------------------------


 k-point   1 :   0.0000 0.0000 0.0000  plane waves: 1624525

 maximum and minimum number of plane-waves per node :    162473   162437

 maximum number of plane-waves:   1624525
 maximum index in each direction: 
   IXMAX=   72   IYMAX=   72   IZMAX=   72
   IXMIN=  -72   IYMIN=  -72   IZMIN=  -72


 real space projection operators:
  total allocation   :       1727.80 KBytes
  max/ min on nodes  :        182.50        162.66


 parallel 3D FFT for wavefunctions:
    minimum data exchange during FFTs selected (reduces bandwidth)
 parallel 3D FFT for charge:
    minimum data exchange during FFTs selected (reduces bandwidth)


 total amount of memory used by VASP MPI-rank0   671679. kBytes
=======================================================================

   base      :      30000. kBytes
   nonlr-proj:       1370. kBytes
   fftplans  :     167689. kBytes
   grid      :     451809. kBytes
   one-center:         12. kBytes
   wavefun   :      20799. kBytes
 
     INWAV:  cpu time      5.0530: real time      5.0642
 Broyden mixing: mesh for mixing (old mesh)
   NGX =145   NGY =145   NGZ =145
  (NGX  =588   NGY  =588   NGZ  =588)
  gives a total of ****** points

 initial charge density was supplied:
 charge density of overlapping atoms calculated
 number of electron      36.0000000 magnetization      14.0000000
 keeping initial charge density in first step


--------------------------------------------------------------------------------------------------------


 Maximum index for non-local projection operator          398
 Maximum index for augmentation-charges          326 (set IRDMAX)


--------------------------------------------------------------------------------------------------------


 First call to EWALD:  gamma=   0.044
 Maximum number of real-space cells 3x 3x 3
 Maximum number of reciprocal cells 3x 3x 3

    FEWALD:  cpu time      0.0014: real time      0.0014


--------------------------------------- Iteration      1(   1)  ---------------------------------------


    POTLOK:  cpu time      4.6032: real time      4.6126
    SETDIJ:  cpu time      0.0209: real time      0.0209
     EDDAV:  cpu time      7.5231: real time      7.5391
       DOS:  cpu time      0.0006: real time      0.0006
    CHARGE:  cpu time      4.9566: real time      4.9673
    MIXING:  cpu time      0.1726: real time      0.1727
    --------------------------------------------
      LOOP:  cpu time     17.2769: real time     17.3132

 eigenvalue-minimisations  :   176
 total energy-change (2. order) :-0.7447656E+02  (-0.5885194E+01)
 number of electron      35.0000003 magnetization      13.4991388
 augmentation part        1.0537856 magnetization      12.5959398

 Broyden mixing:
  rms(total) = 0.23523E+01    rms(broyden)= 0.23519E+01
  rms(prec ) = 0.23745E+01
  weight for this iteration     100.00

 Free energy of the ion-electron system (eV)
  ---------------------------------------------------
  alpha Z        PSCENC =         0.09102512
  Ewald energy   TEWEN  =      3132.37418968
  -Hartree energ DENC   =     -3943.52618157
  -exchange      EXHF   =         0.00000000
  -V(xc)+E(xc)   XCENC  =       117.41250618
  PAW double counting   =       867.71936000     -872.32611028
  entropy T*S    EENTRO =        -0.00000000
  eigenvalues    EBANDS =      -611.05173881
  atomic energy  EATOM  =      1234.83038864
  Solvation  Ecorr_sol  =         0.00000000
  ---------------------------------------------------
  free energy    TOTEN  =       -74.47656104 eV

  energy without entropy =      -74.47656104  energy(sigma->0) =      -74.47656104


--------------------------------------------------------------------------------------------------------




--------------------------------------- Iteration      1(   2)  ---------------------------------------


    --------------------------------------------
      INIT:  cpu time      0.1971: real time      0.1972
  FINALIZE:  cpu time     16.9615: real time     16.9860
    --------------------------------------------
    POTLOK:  cpu time     21.7306: real time     21.7664
    SETDIJ:  cpu time      0.0233: real time      0.0234
    EDDIAG:  cpu time      1.4083: real time      1.4108
  RMM-DIIS:  cpu time      4.3926: real time      4.4017
    ORTHCH:  cpu time      0.0864: real time      0.0866
       DOS:  cpu time      0.0002: real time      0.0002
    CHARGE:  cpu time      4.9450: real time      4.9568
    MIXING:  cpu time      0.1350: real time      0.1349
    --------------------------------------------
      LOOP:  cpu time     32.7214: real time     32.7807

 eigenvalue-minimisations  :   128
 total energy-change (2. order) : 0.3653708E+02  (-0.6275642E+01)
 number of electron      35.0000002 magnetization      12.9692761
 augmentation part        1.0288920 magnetization      12.0069468

 Broyden mixing:
  rms(total) = 0.11182E+01    rms(broyden)= 0.11182E+01
  rms(prec ) = 0.11362E+01
  weight for this iteration     100.00

 eigenvalues of (default mixing * dielectric matrix)
  average eigenvalue GAMMA=   0.9256
  0.9256

 Free energy of the ion-electron system (eV)
  ---------------------------------------------------
  alpha Z        PSCENC =         0.09102512
  Ewald energy   TEWEN  =      3132.37418968
  -Hartree energ DENC   =     -3994.54972301
  -exchange      EXHF   =         0.00000000
  -V(xc)+E(xc)   XCENC  =       152.65737611
  PAW double counting   =      1575.28618953    -1580.64860700
  entropy T*S    EENTRO =        -0.00000000
  eigenvalues    EBANDS =      -546.88135681
  atomic energy  EATOM  =      1234.83038864
  Solvation  Ecorr_sol  =       -11.09896478
  ---------------------------------------------------
  free energy    TOTEN  =       -37.93948251 eV

  energy without entropy =      -37.93948251  energy(sigma->0) =      -37.93948251


--------------------------------------------------------------------------------------------------------




--------------------------------------- Iteration      1(   3)  ---------------------------------------


    --------------------------------------------
      INIT:  cpu time      0.1922: real time      0.1923
  FINALIZE:  cpu time     19.8912: real time     19.9258
    --------------------------------------------
    POTLOK:  cpu time     24.6434: real time     24.6936
    SETDIJ:  cpu time      0.0236: real time      0.0237
    EDDIAG:  cpu time      1.4041: real time      1.4065
  RMM-DIIS:  cpu time      4.4077: real time      4.4170
    ORTHCH:  cpu time      0.0805: real time      0.0807
       DOS:  cpu time      0.0002: real time      0.0002
    CHARGE:  cpu time      4.8752: real time      4.8860
    MIXING:  cpu time      0.1395: real time      0.1394
    --------------------------------------------
      LOOP:  cpu time     35.5743: real time     35.6470

 eigenvalue-minimisations  :   128
 total energy-change (2. order) :-0.2443791E+02  (-0.2749357E+01)
 number of electron      35.0000002 magnetization      12.3406115
 augmentation part        0.9903649 magnetization      11.3594220

 Broyden mixing:
  rms(total) = 0.65478E+00    rms(broyden)= 0.65473E+00
  rms(prec ) = 0.66236E+00
  weight for this iteration     100.00

 eigenvalues of (default mixing * dielectric matrix)
  average eigenvalue GAMMA=   1.1082
  0.7681  1.4482

 Free energy of the ion-electron system (eV)
  ---------------------------------------------------
  alpha Z        PSCENC =         0.09102512
  Ewald energy   TEWEN  =      3132.37418968
  -Hartree energ DENC   =     -4029.90980322
  -exchange      EXHF   =         0.00000000
  -V(xc)+E(xc)   XCENC  =       134.86068556
  PAW double counting   =      2192.53494314    -2198.32255826
  entropy T*S    EENTRO =        -0.00000000
  eigenvalues    EBANDS =      -507.38294510
  atomic energy  EATOM  =      1234.83038864
  Solvation  Ecorr_sol  =       -21.45332169
  ---------------------------------------------------
  free energy    TOTEN  =       -62.37739613 eV

  energy without entropy =      -62.37739613  energy(sigma->0) =      -62.37739613


--------------------------------------------------------------------------------------------------------




--------------------------------------- Iteration      1(   4)  ---------------------------------------


    --------------------------------------------
      INIT:  cpu time      0.1909: real time      0.1910
  FINALIZE:  cpu time     20.0018: real time     20.0326
    --------------------------------------------
    POTLOK:  cpu time     24.7660: real time     24.8106
    SETDIJ:  cpu time      0.0229: real time      0.0229
    EDDIAG:  cpu time      1.4052: real time      1.4076
  RMM-DIIS:  cpu time      4.3691: real time      4.3782
    ORTHCH:  cpu time      0.0808: real time      0.0810
       DOS:  cpu time      0.0002: real time      0.0002
    CHARGE:  cpu time      4.8863: real time      4.8970
    MIXING:  cpu time      0.1353: real time      0.1352
    --------------------------------------------
      LOOP:  cpu time     35.6658: real time     35.7327

 eigenvalue-minimisations  :   128
 total energy-change (2. order) :-0.6535853E+01  (-0.1072860E+01)
 number of electron      35.0000002 magnetization      11.7973098
 augmentation part        0.9638980 magnetization      10.8260939

 Broyden mixing:
  rms(total) = 0.45027E+00    rms(broyden)= 0.45020E+00
  rms(prec ) = 0.45601E+00
  weight for this iteration     100.00

 eigenvalues of (default mixing * dielectric matrix)
  average eigenvalue GAMMA=   1.0948
  1.5414  1.0601  0.6829

 Free energy of the ion-electron system (eV)
  ---------------------------------------------------
  alpha Z        PSCENC =         0.09102512
  Ewald energy   TEWEN  =      3132.37418968
  -Hartree energ DENC   =     -4042.93872094
  -exchange      EXHF   =         0.00000000
  -V(xc)+E(xc)   XCENC  =       131.25481116
  PAW double counting   =      2721.35723791    -2727.30246077
  entropy T*S    EENTRO =        -0.00000000
  eigenvalues    EBANDS =      -485.51446273
  atomic energy  EATOM  =      1234.83038864
  Solvation  Ecorr_sol  =       -33.06525681
  ---------------------------------------------------
  free energy    TOTEN  =       -68.91324874 eV

  energy without entropy =      -68.91324874  energy(sigma->0) =      -68.91324874


--------------------------------------------------------------------------------------------------------




--------------------------------------- Iteration      1(   5)  ---------------------------------------


    --------------------------------------------
      INIT:  cpu time      0.1903: real time      0.1903
  FINALIZE:  cpu time     21.1103: real time     21.1439
    --------------------------------------------
    POTLOK:  cpu time     25.8715: real time     25.9221
    SETDIJ:  cpu time      0.0236: real time      0.0237
    EDDIAG:  cpu time      1.4105: real time      1.4128
  RMM-DIIS:  cpu time      4.5940: real time      4.6075
    ORTHCH:  cpu time      0.0790: real time      0.0791
       DOS:  cpu time      0.0009: real time      0.0009
    CHARGE:  cpu time      4.9191: real time      4.9299
    MIXING:  cpu time      0.1550: real time      0.1552
    --------------------------------------------
      LOOP:  cpu time     37.0535: real time     37.1312

 eigenvalue-minimisations  :   131
 total energy-change (2. order) :-0.3376325E+01  (-0.2212326E+00)
 number of electron      35.0000002 magnetization      10.8932347
 augmentation part        0.9619457 magnetization       9.9288769

 Broyden mixing:
  rms(total) = 0.28803E+00    rms(broyden)= 0.28801E+00
  rms(prec ) = 0.29299E+00
  weight for this iteration     100.00

 eigenvalues of (default mixing * dielectric matrix)
  average eigenvalue GAMMA=   1.3320
  2.1401  1.7064  0.8318  0.6498

 Free energy of the ion-electron system (eV)
  ---------------------------------------------------
  alpha Z        PSCENC =         0.09102512
  Ewald energy   TEWEN  =      3132.37418968
  -Hartree energ DENC   =     -4031.22651960
  -exchange      EXHF   =         0.00000000
  -V(xc)+E(xc)   XCENC  =       128.57812703
  PAW double counting   =      2914.07728801    -2919.93902927
  entropy T*S    EENTRO =        -0.00000000
  eigenvalues    EBANDS =      -489.81156404
  atomic energy  EATOM  =      1234.83038864
  Solvation  Ecorr_sol  =       -41.26347945
  ---------------------------------------------------
  free energy    TOTEN  =       -72.28957388 eV

  energy without entropy =      -72.28957388  energy(sigma->0) =      -72.28957388


--------------------------------------------------------------------------------------------------------




--------------------------------------- Iteration      1(   6)  ---------------------------------------


    --------------------------------------------
      INIT:  cpu time      0.1934: real time      0.1934
  FINALIZE:  cpu time     18.9438: real time     18.9714
    --------------------------------------------
    POTLOK:  cpu time     23.7310: real time     23.7735
    SETDIJ:  cpu time      0.0232: real time      0.0233
    EDDIAG:  cpu time      1.4068: real time      1.4091
  RMM-DIIS:  cpu time      4.4221: real time      4.4313
    ORTHCH:  cpu time      0.0845: real time      0.0847
       DOS:  cpu time      0.0002: real time      0.0002
    CHARGE:  cpu time      4.9487: real time      4.9595
    MIXING:  cpu time      0.1422: real time      0.1422
    --------------------------------------------
      LOOP:  cpu time     34.7587: real time     34.8236

 eigenvalue-minimisations  :   128
 total energy-change (2. order) :-0.5485975E+01  (-0.2201820E+00)
 number of electron      35.0000002 magnetization      10.5232618
 augmentation part        0.9627926 magnetization       9.5721047

 Broyden mixing:
  rms(total) = 0.15785E+00    rms(broyden)= 0.15783E+00
  rms(prec ) = 0.16221E+00
  weight for this iteration     100.00

 eigenvalues of (default mixing * dielectric matrix)
  average eigenvalue GAMMA=   1.3040
  2.4759  1.5584  1.0377  0.8006  0.6473

 Free energy of the ion-electron system (eV)
  ---------------------------------------------------
  alpha Z        PSCENC =         0.09102512
  Ewald energy   TEWEN  =      3132.37418968
  -Hartree energ DENC   =     -4013.63390911
  -exchange      EXHF   =         0.00000000
  -V(xc)+E(xc)   XCENC  =       124.01702104
  PAW double counting   =      3148.16064169    -3153.91995059
  entropy T*S    EENTRO =        -0.00000000
  eigenvalues    EBANDS =      -496.60213765
  atomic energy  EATOM  =      1234.83038864
  Solvation  Ecorr_sol  =       -53.09281740
  ---------------------------------------------------
  free energy    TOTEN  =       -77.77554859 eV

  energy without entropy =      -77.77554859  energy(sigma->0) =      -77.77554859


--------------------------------------------------------------------------------------------------------




--------------------------------------- Iteration      1(   7)  ---------------------------------------


    --------------------------------------------
      INIT:  cpu time      0.1859: real time      0.1860
  FINALIZE:  cpu time     21.2227: real time     21.2556
    --------------------------------------------
    POTLOK:  cpu time     25.9946: real time     26.0424
    SETDIJ:  cpu time      0.0237: real time      0.0237
    EDDIAG:  cpu time      1.3814: real time      1.3834
  RMM-DIIS:  cpu time      4.3732: real time      4.3828
    ORTHCH:  cpu time      0.0810: real time      0.0811
       DOS:  cpu time      0.0004: real time      0.0004
    CHARGE:  cpu time      4.8968: real time      4.9075
    MIXING:  cpu time      0.1320: real time      0.1319
    --------------------------------------------
      LOOP:  cpu time     36.8831: real time     36.9533

 eigenvalue-minimisations  :   128
 total energy-change (2. order) :-0.6848181E+00  (-0.5069282E-01)
 number of electron      35.0000002 magnetization       9.9742877
 augmentation part        0.9532123 magnetization       9.0323362

 Broyden mixing:
  rms(total) = 0.13786E+00    rms(broyden)= 0.13785E+00
  rms(prec ) = 0.14196E+00
  weight for this iteration     100.00

 eigenvalues of (default mixing * dielectric matrix)
  average eigenvalue GAMMA=   1.1953
  2.4295  1.7797  0.8458  0.8458  0.6356  0.6356

 Free energy of the ion-electron system (eV)
  ---------------------------------------------------
  alpha Z        PSCENC =         0.09102512
  Ewald energy   TEWEN  =      3132.37418968
  -Hartree energ DENC   =     -4010.66565383
  -exchange      EXHF   =         0.00000000
  -V(xc)+E(xc)   XCENC  =       123.51917932
  PAW double counting   =      3160.01307682    -3165.79745071
  entropy T*S    EENTRO =        -0.00000000
  eigenvalues    EBANDS =      -496.19342877
  atomic energy  EATOM  =      1234.83038864
  Solvation  Ecorr_sol  =       -56.63169292
  ---------------------------------------------------
  free energy    TOTEN  =       -78.46036665 eV

  energy without entropy =      -78.46036665  energy(sigma->0) =      -78.46036665


--------------------------------------------------------------------------------------------------------




--------------------------------------- Iteration      1(   8)  ---------------------------------------


    --------------------------------------------
      INIT:  cpu time      0.1915: real time      0.1915
  FINALIZE:  cpu time     20.1425: real time     20.1713
    --------------------------------------------
    POTLOK:  cpu time     24.9083: real time     24.9510
    SETDIJ:  cpu time      0.0238: real time      0.0238
    EDDIAG:  cpu time      1.3859: real time      1.3881
  RMM-DIIS:  cpu time      4.4336: real time      4.4428
    ORTHCH:  cpu time      0.0789: real time      0.0791
       DOS:  cpu time      0.0002: real time      0.0002
    CHARGE:  cpu time      4.8834: real time      4.8941
    MIXING:  cpu time      0.1297: real time      0.1297
    --------------------------------------------
      LOOP:  cpu time     35.8438: real time     35.9087

 eigenvalue-minimisations  :   128
 total energy-change (2. order) :-0.7513385E+00  (-0.1925313E-01)
 number of electron      35.0000002 magnetization       8.5032478
 augmentation part        0.9534725 magnetization       7.5669298

 Broyden mixing:
  rms(total) = 0.10992E+00    rms(broyden)= 0.10991E+00
  rms(prec ) = 0.11346E+00
  weight for this iteration     100.00

 eigenvalues of (default mixing * dielectric matrix)
  average eigenvalue GAMMA=   1.4589
  2.7915  2.7915  1.2622  1.2622  0.8296  0.6648  0.6107

 Free energy of the ion-electron system (eV)
  ---------------------------------------------------
  alpha Z        PSCENC =         0.09102512
  Ewald energy   TEWEN  =      3132.37418968
  -Hartree energ DENC   =     -4001.18444840
  -exchange      EXHF   =         0.00000000
  -V(xc)+E(xc)   XCENC  =       122.69423863
  PAW double counting   =      3121.09604270    -3126.85784979
  entropy T*S    EENTRO =        -0.00000000
  eigenvalues    EBANDS =      -500.98623278
  atomic energy  EATOM  =      1234.83038864
  Solvation  Ecorr_sol  =       -61.26905897
  ---------------------------------------------------
  free energy    TOTEN  =       -79.21170517 eV

  energy without entropy =      -79.21170517  energy(sigma->0) =      -79.21170517


--------------------------------------------------------------------------------------------------------




--------------------------------------- Iteration      1(   9)  ---------------------------------------


    --------------------------------------------
      INIT:  cpu time      0.1915: real time      0.1916
  FINALIZE:  cpu time     20.1753: real time     20.2059
    --------------------------------------------
    POTLOK:  cpu time     24.9401: real time     24.9878
    SETDIJ:  cpu time      0.0237: real time      0.0237
    EDDIAG:  cpu time      1.3816: real time      1.3837
  RMM-DIIS:  cpu time      4.6272: real time      4.6371
    ORTHCH:  cpu time      0.0797: real time      0.0798
       DOS:  cpu time      0.0009: real time      0.0009
    CHARGE:  cpu time      4.8980: real time      4.9091
    MIXING:  cpu time      0.1371: real time      0.1371
    --------------------------------------------
      LOOP:  cpu time     36.0881: real time     36.1592

 eigenvalue-minimisations  :   134
 total energy-change (2. order) :-0.1656418E+01  (-0.5809961E-01)
 number of electron      35.0000002 magnetization       7.8226453
 augmentation part        0.9516341 magnetization       6.8943154

 Broyden mixing:
  rms(total) = 0.75594E-01    rms(broyden)= 0.75584E-01
  rms(prec ) = 0.77307E-01
  weight for this iteration     100.00

 eigenvalues of (default mixing * dielectric matrix)
  average eigenvalue GAMMA=   1.5178
  4.1143  2.3833  1.7115  0.8317  0.8317  0.9042  0.6213  0.7444

 Free energy of the ion-electron system (eV)
  ---------------------------------------------------
  alpha Z        PSCENC =         0.09102512
  Ewald energy   TEWEN  =      3132.37418968
  -Hartree energ DENC   =     -3980.68791582
  -exchange      EXHF   =         0.00000000
  -V(xc)+E(xc)   XCENC  =       120.95082846
  PAW double counting   =      3071.56023777    -3077.30279669
  entropy T*S    EENTRO =        -0.00000000
  eigenvalues    EBANDS =      -509.36084075
  atomic energy  EATOM  =      1234.83038864
  Solvation  Ecorr_sol  =       -73.32323948
  ---------------------------------------------------
  free energy    TOTEN  =       -80.86812307 eV

  energy without entropy =      -80.86812307  energy(sigma->0) =      -80.86812307


--------------------------------------------------------------------------------------------------------




--------------------------------------- Iteration      1(  10)  ---------------------------------------


    --------------------------------------------
      INIT:  cpu time      0.2010: real time      0.2011
  FINALIZE:  cpu time     20.2458: real time     20.2765
    --------------------------------------------
    POTLOK:  cpu time     25.0417: real time     25.0866
    SETDIJ:  cpu time      0.0247: real time      0.0247
    EDDIAG:  cpu time      1.3804: real time      1.3823
  RMM-DIIS:  cpu time      4.3788: real time      4.3879
    ORTHCH:  cpu time      0.0802: real time      0.0804
       DOS:  cpu time      0.0005: real time      0.0005
    CHARGE:  cpu time      4.9216: real time      4.9323
    MIXING:  cpu time      0.1397: real time      0.1396
    --------------------------------------------
      LOOP:  cpu time     35.9677: real time     36.0344

 eigenvalue-minimisations  :   128
 total energy-change (2. order) :-0.4899233E+00  (-0.8743382E-02)
 number of electron      35.0000002 magnetization       7.2160531
 augmentation part        0.9512199 magnetization       6.2893984

 Broyden mixing:
  rms(total) = 0.47650E-01    rms(broyden)= 0.47647E-01
  rms(prec ) = 0.48917E-01
  weight for this iteration     100.00

 eigenvalues of (default mixing * dielectric matrix)
  average eigenvalue GAMMA=   1.6467
  5.7399  2.0479  2.0479  0.8868  0.8868  0.9667  0.9188  0.6140  0.7119

 Free energy of the ion-electron system (eV)
  ---------------------------------------------------
  alpha Z        PSCENC =         0.09102512
  Ewald energy   TEWEN  =      3132.37418968
  -Hartree energ DENC   =     -3974.88225737
  -exchange      EXHF   =         0.00000000
  -V(xc)+E(xc)   XCENC  =       120.47593657
  PAW double counting   =      3076.81142250    -3082.57020874
  entropy T*S    EENTRO =        -0.00000000
  eigenvalues    EBANDS =      -510.63001066
  atomic energy  EATOM  =      1234.83038864
  Solvation  Ecorr_sol  =       -77.85853214
  ---------------------------------------------------
  free energy    TOTEN  =       -81.35804639 eV

  energy without entropy =      -81.35804639  energy(sigma->0) =      -81.35804639


--------------------------------------------------------------------------------------------------------




--------------------------------------- Iteration      1(  11)  ---------------------------------------


    --------------------------------------------
      INIT:  cpu time      0.1851: real time      0.1851
  FINALIZE:  cpu time     20.2744: real time     20.3048
    --------------------------------------------
    POTLOK:  cpu time     25.0760: real time     25.1227
    SETDIJ:  cpu time      0.0235: real time      0.0235
    EDDIAG:  cpu time      1.3834: real time      1.3856
  RMM-DIIS:  cpu time      4.4917: real time      4.5010
    ORTHCH:  cpu time      0.0786: real time      0.0788
       DOS:  cpu time      0.0004: real time      0.0004
    CHARGE:  cpu time      4.9015: real time      4.9125
    MIXING:  cpu time      0.1486: real time      0.1488
    --------------------------------------------
      LOOP:  cpu time     36.1038: real time     36.1734

 eigenvalue-minimisations  :   129
 total energy-change (2. order) :-0.3287273E+00  (-0.5319496E-02)
 number of electron      35.0000002 magnetization       6.3933783
 augmentation part        0.9511041 magnetization       5.4688662

 Broyden mixing:
  rms(total) = 0.37471E-01    rms(broyden)= 0.37468E-01
  rms(prec ) = 0.38191E-01
  weight for this iteration     100.00

 eigenvalues of (default mixing * dielectric matrix)
  average eigenvalue GAMMA=   1.7328
  6.7271  1.9814  1.9814  1.7320  1.0205  1.0205  0.7804  0.7804  0.6162  0.6879

 Free energy of the ion-electron system (eV)
  ---------------------------------------------------
  alpha Z        PSCENC =         0.09102512
  Ewald energy   TEWEN  =      3132.37418968
  -Hartree energ DENC   =     -3970.03148892
  -exchange      EXHF   =         0.00000000
  -V(xc)+E(xc)   XCENC  =       120.13313805
  PAW double counting   =      3080.27423519    -3086.03598790
  entropy T*S    EENTRO =        -0.00000000
  eigenvalues    EBANDS =      -511.98586738
  atomic energy  EATOM  =      1234.83038864
  Solvation  Ecorr_sol  =       -81.33640618
  ---------------------------------------------------
  free energy    TOTEN  =       -81.68677371 eV

  energy without entropy =      -81.68677371  energy(sigma->0) =      -81.68677371


--------------------------------------------------------------------------------------------------------




--------------------------------------- Iteration      1(  12)  ---------------------------------------


    --------------------------------------------
      INIT:  cpu time      0.1835: real time      0.1836
  FINALIZE:  cpu time     20.3335: real time     20.3626
    --------------------------------------------
    POTLOK:  cpu time     25.0932: real time     25.1368
    SETDIJ:  cpu time      0.0232: real time      0.0233
    EDDIAG:  cpu time      1.4136: real time      1.4160
  RMM-DIIS:  cpu time      4.6404: real time      4.6500
    ORTHCH:  cpu time      0.0788: real time      0.0790
       DOS:  cpu time      0.0003: real time      0.0003
    CHARGE:  cpu time      4.9225: real time      4.9334
    MIXING:  cpu time      0.1525: real time      0.1524
    --------------------------------------------
      LOOP:  cpu time     36.3245: real time     36.3911

 eigenvalue-minimisations  :   130
 total energy-change (2. order) :-0.3213231E+00  (-0.2106369E-02)
 number of electron      35.0000002 magnetization       5.7545313
 augmentation part        0.9505266 magnetization       4.8314069

 Broyden mixing:
  rms(total) = 0.27161E-01    rms(broyden)= 0.27161E-01
  rms(prec ) = 0.27405E-01
  weight for this iteration     100.00

 eigenvalues of (default mixing * dielectric matrix)
  average eigenvalue GAMMA=   1.8542
  7.8088  2.7910  2.0122  2.0122  0.9289  0.9289  1.0197  0.8432  0.7867  0.6181
  0.6462

 Free energy of the ion-electron system (eV)
  ---------------------------------------------------
  alpha Z        PSCENC =         0.09102512
  Ewald energy   TEWEN  =      3132.37418968
  -Hartree energ DENC   =     -3965.37085704
  -exchange      EXHF   =         0.00000000
  -V(xc)+E(xc)   XCENC  =       119.78836500
  PAW double counting   =      3074.81915799    -3080.58626911
  entropy T*S    EENTRO =        -0.00000000
  eigenvalues    EBANDS =      -513.23187754
  atomic energy  EATOM  =      1234.83038864
  Solvation  Ecorr_sol  =       -84.72221958
  ---------------------------------------------------
  free energy    TOTEN  =       -82.00809685 eV

  energy without entropy =      -82.00809685  energy(sigma->0) =      -82.00809685


--------------------------------------------------------------------------------------------------------




--------------------------------------- Iteration      1(  13)  ---------------------------------------


    --------------------------------------------
      INIT:  cpu time      0.1861: real time      0.1862
  FINALIZE:  cpu time     21.3611: real time     21.3923
    --------------------------------------------
    POTLOK:  cpu time     26.1408: real time     26.1874
    SETDIJ:  cpu time      0.0244: real time      0.0245
    EDDIAG:  cpu time      1.4117: real time      1.4145
  RMM-DIIS:  cpu time      4.5098: real time      4.5189
    ORTHCH:  cpu time      0.0868: real time      0.0870
       DOS:  cpu time      0.0002: real time      0.0002
    CHARGE:  cpu time      4.8925: real time      4.9033
    MIXING:  cpu time      0.1542: real time      0.1541
    --------------------------------------------
      LOOP:  cpu time     37.2206: real time     37.2899

 eigenvalue-minimisations  :   131
 total energy-change (2. order) :-0.1291829E+00  (-0.3438162E-03)
 number of electron      35.0000002 magnetization       5.0933550
 augmentation part        0.9503404 magnetization       4.1705700

 Broyden mixing:
  rms(total) = 0.22424E-01    rms(broyden)= 0.22424E-01
  rms(prec ) = 0.22510E-01
  weight for this iteration     100.00

 eigenvalues of (default mixing * dielectric matrix)
  average eigenvalue GAMMA=   1.8982
  8.4219  3.2465  2.0639  2.0639  1.3670  1.0125  1.0125  0.7844  0.7844  0.7643
  0.6198  0.6378

 Free energy of the ion-electron system (eV)
  ---------------------------------------------------
  alpha Z        PSCENC =         0.09102512
  Ewald energy   TEWEN  =      3132.37418968
  -Hartree energ DENC   =     -3962.84762164
  -exchange      EXHF   =         0.00000000
  -V(xc)+E(xc)   XCENC  =       119.65204853
  PAW double counting   =      3076.07259684    -3081.84254209
  entropy T*S    EENTRO =        -0.00000000
  eigenvalues    EBANDS =      -513.77843848
  atomic energy  EATOM  =      1234.83038864
  Solvation  Ecorr_sol  =       -86.68892634
  ---------------------------------------------------
  free energy    TOTEN  =       -82.13727973 eV

  energy without entropy =      -82.13727973  energy(sigma->0) =      -82.13727973


--------------------------------------------------------------------------------------------------------




--------------------------------------- Iteration      1(  14)  ---------------------------------------


    --------------------------------------------
      INIT:  cpu time      0.1828: real time      0.1827
  FINALIZE:  cpu time     20.3847: real time     20.4154
    --------------------------------------------
    POTLOK:  cpu time     25.1762: real time     25.2202
    SETDIJ:  cpu time      0.0231: real time      0.0231
    EDDIAG:  cpu time      1.4126: real time      1.4151
  RMM-DIIS:  cpu time      4.3645: real time      4.3734
    ORTHCH:  cpu time      0.0856: real time      0.0858
       DOS:  cpu time      0.0003: real time      0.0003
    CHARGE:  cpu time      4.9494: real time      4.9603
    MIXING:  cpu time      0.1664: real time      0.1662
    --------------------------------------------
      LOOP:  cpu time     36.1780: real time     36.2444

 eigenvalue-minimisations  :   128
 total energy-change (2. order) :-0.8471834E-01  (-0.1149964E-03)
 number of electron      35.0000002 magnetization       4.4619318
 augmentation part        0.9505860 magnetization       3.5394503

 Broyden mixing:
  rms(total) = 0.17636E-01    rms(broyden)= 0.17635E-01
  rms(prec ) = 0.17649E-01
  weight for this iteration     100.00

 eigenvalues of (default mixing * dielectric matrix)
  average eigenvalue GAMMA=   2.0137
  9.2840  4.2281  2.2119  2.2119  1.6640  1.1005  0.9469  0.9469  0.8093  0.8093
  0.7066  0.6294  0.6294

 Free energy of the ion-electron system (eV)
  ---------------------------------------------------
  alpha Z        PSCENC =         0.09102512
  Ewald energy   TEWEN  =      3132.37418968
  -Hartree energ DENC   =     -3960.98618066
  -exchange      EXHF   =         0.00000000
  -V(xc)+E(xc)   XCENC  =       119.55475383
  PAW double counting   =      3082.59998559    -3088.36480720
  entropy T*S    EENTRO =        -0.00000000
  eigenvalues    EBANDS =      -514.31588315
  atomic energy  EATOM  =      1234.83038864
  Solvation  Ecorr_sol  =       -88.00546994
  ---------------------------------------------------
  free energy    TOTEN  =       -82.22199808 eV

  energy without entropy =      -82.22199808  energy(sigma->0) =      -82.22199808


--------------------------------------------------------------------------------------------------------




--------------------------------------- Iteration      1(  15)  ---------------------------------------


    --------------------------------------------
      INIT:  cpu time      0.2004: real time      0.2004
  FINALIZE:  cpu time     33.9125: real time     33.9657
    --------------------------------------------
    POTLOK:  cpu time     38.6874: real time     38.7572
    SETDIJ:  cpu time      0.0234: real time      0.0234
    EDDIAG:  cpu time      1.4088: real time      1.4112
  RMM-DIIS:  cpu time      4.4751: real time      4.4841
    ORTHCH:  cpu time      0.0792: real time      0.0794
       DOS:  cpu time      0.0002: real time      0.0002
    CHARGE:  cpu time      4.8862: real time      4.8969
    MIXING:  cpu time      0.1693: real time      0.1692
    --------------------------------------------
      LOOP:  cpu time     49.7296: real time     49.8216

 eigenvalue-minimisations  :   129
 total energy-change (2. order) :-0.3644806E-01  (-0.1050912E-03)
 number of electron      35.0000002 magnetization       3.9774739
 augmentation part        0.9509022 magnetization       3.0552918

 Broyden mixing:
  rms(total) = 0.14900E-01    rms(broyden)= 0.14900E-01
  rms(prec ) = 0.14936E-01
  weight for this iteration     100.00

 eigenvalues of (default mixing * dielectric matrix)
  average eigenvalue GAMMA=   2.0383
  9.8087  4.8488  2.1210  2.1210  2.0703  1.1890  0.9788  0.9788  0.8382  0.8382
  0.7897  0.7021  0.6258  0.6258

 Free energy of the ion-electron system (eV)
  ---------------------------------------------------
  alpha Z        PSCENC =         0.09102512
  Ewald energy   TEWEN  =      3132.37418968
  -Hartree energ DENC   =     -3959.85493418
  -exchange      EXHF   =         0.00000000
  -V(xc)+E(xc)   XCENC  =       119.50752385
  PAW double counting   =      3084.25112500    -3090.01347859
  entropy T*S    EENTRO =        -0.00000000
  eigenvalues    EBANDS =      -514.60446908
  atomic energy  EATOM  =      1234.83038864
  Solvation  Ecorr_sol  =       -88.83981659
  ---------------------------------------------------
  free energy    TOTEN  =       -82.25844614 eV

  energy without entropy =      -82.25844614  energy(sigma->0) =      -82.25844614


--------------------------------------------------------------------------------------------------------




--------------------------------------- Iteration      1(  16)  ---------------------------------------


    --------------------------------------------
      INIT:  cpu time      0.1888: real time      0.1888
  FINALIZE:  cpu time     21.4195: real time     21.4521
    --------------------------------------------
    POTLOK:  cpu time     26.1921: real time     26.2382
    SETDIJ:  cpu time      0.0247: real time      0.0248
    EDDIAG:  cpu time      1.4140: real time      1.4164
  RMM-DIIS:  cpu time      4.4186: real time      4.4277
    ORTHCH:  cpu time      0.0802: real time      0.0803
       DOS:  cpu time      0.0009: real time      0.0009
    CHARGE:  cpu time      4.9706: real time      4.9811
    MIXING:  cpu time      0.1791: real time      0.1791
    --------------------------------------------
      LOOP:  cpu time     37.2801: real time     37.3484

 eigenvalue-minimisations  :   128
 total energy-change (2. order) :-0.9839722E-02  (-0.3818833E-04)
 number of electron      35.0000002 magnetization       3.0854119
 augmentation part        0.9507423 magnetization       2.1632650

 Broyden mixing:
  rms(total) = 0.12508E-01    rms(broyden)= 0.12508E-01
  rms(prec ) = 0.12543E-01
  weight for this iteration     100.00

 eigenvalues of (default mixing * dielectric matrix)
  average eigenvalue GAMMA=   2.1524
 10.4836  5.7288  2.6847  2.2211  2.2211  1.4963  1.1186  0.9741  0.9741  0.8462
  0.8462  0.7479  0.6936  0.6247  0.6247

 Free energy of the ion-electron system (eV)
  ---------------------------------------------------
  alpha Z        PSCENC =         0.09102512
  Ewald energy   TEWEN  =      3132.37418968
  -Hartree energ DENC   =     -3959.80313591
  -exchange      EXHF   =         0.00000000
  -V(xc)+E(xc)   XCENC  =       119.50057962
  PAW double counting   =      3081.41274144    -3087.17830548
  entropy T*S    EENTRO =        -0.00000000
  eigenvalues    EBANDS =      -514.41778706
  atomic energy  EATOM  =      1234.83038864
  Solvation  Ecorr_sol  =       -89.07798191
  ---------------------------------------------------
  free energy    TOTEN  =       -82.26828586 eV

  energy without entropy =      -82.26828586  energy(sigma->0) =      -82.26828586


--------------------------------------------------------------------------------------------------------




--------------------------------------- Iteration      1(  17)  ---------------------------------------


    --------------------------------------------
      INIT:  cpu time      0.2056: real time      0.2056
  FINALIZE:  cpu time     21.5866: real time     21.6206
    --------------------------------------------
    POTLOK:  cpu time     26.3577: real time     26.4074
    SETDIJ:  cpu time      0.0239: real time      0.0240
    EDDIAG:  cpu time      1.4111: real time      1.4134
  RMM-DIIS:  cpu time      4.3781: real time      4.3873
    ORTHCH:  cpu time      0.0806: real time      0.0808
       DOS:  cpu time      0.0002: real time      0.0002
    CHARGE:  cpu time      4.8867: real time      4.8972
    MIXING:  cpu time      0.2088: real time      0.2090
    --------------------------------------------
      LOOP:  cpu time     37.3474: real time     37.4194

 eigenvalue-minimisations  :   128
 total energy-change (2. order) :-0.7863927E-02  (-0.4427880E-04)
 number of electron      35.0000002 magnetization       2.5790849
 augmentation part        0.9505805 magnetization       1.6569953

 Broyden mixing:
  rms(total) = 0.10031E-01    rms(broyden)= 0.10030E-01
  rms(prec ) = 0.10099E-01
  weight for this iteration     100.00

 eigenvalues of (default mixing * dielectric matrix)
  average eigenvalue GAMMA=   2.1761
 11.0160  6.3192  3.2201  2.1148  2.1148  1.6844  1.1531  0.9894  0.9894  0.9046
  0.8213  0.8213  0.7376  0.6817  0.6248  0.6248

 Free energy of the ion-electron system (eV)
  ---------------------------------------------------
  alpha Z        PSCENC =         0.09102512
  Ewald energy   TEWEN  =      3132.37418968
  -Hartree energ DENC   =     -3959.81751206
  -exchange      EXHF   =         0.00000000
  -V(xc)+E(xc)   XCENC  =       119.49719674
  PAW double counting   =      3080.36821497    -3086.13491248
  entropy T*S    EENTRO =        -0.00000000
  eigenvalues    EBANDS =      -514.20320164
  atomic energy  EATOM  =      1234.83038864
  Solvation  Ecorr_sol  =       -89.28153876
  ---------------------------------------------------
  free energy    TOTEN  =       -82.27614979 eV

  energy without entropy =      -82.27614979  energy(sigma->0) =      -82.27614979


--------------------------------------------------------------------------------------------------------




--------------------------------------- Iteration      1(  18)  ---------------------------------------


    --------------------------------------------
      INIT:  cpu time      0.1917: real time      0.1918
  FINALIZE:  cpu time     22.5753: real time     22.6090
    --------------------------------------------
    POTLOK:  cpu time     27.3586: real time     27.4084
    SETDIJ:  cpu time      0.0241: real time      0.0242
    EDDIAG:  cpu time      1.4142: real time      1.4171
  RMM-DIIS:  cpu time      4.3873: real time      4.3964
    ORTHCH:  cpu time      0.0797: real time      0.0799
       DOS:  cpu time      0.0003: real time      0.0003
    CHARGE:  cpu time      4.8842: real time      4.8954
    MIXING:  cpu time      0.1913: real time      0.1914
    --------------------------------------------
      LOOP:  cpu time     38.3397: real time     38.4130

 eigenvalue-minimisations  :   127
 total energy-change (2. order) :-0.5530321E-02  (-0.2987131E-04)
 number of electron      35.0000002 magnetization       1.5969714
 augmentation part        0.9507171 magnetization       0.6748806

 Broyden mixing:
  rms(total) = 0.76228E-02    rms(broyden)= 0.76227E-02
  rms(prec ) = 0.76830E-02
  weight for this iteration     100.00

 eigenvalues of (default mixing * dielectric matrix)
  average eigenvalue GAMMA=   2.4383
 13.0854  7.7556  4.2560  2.3246  2.3246  2.0923  1.3427  1.2017  0.9814  0.9814
  0.8473  0.8473  0.7841  0.7164  0.6256  0.6256  0.6584

 Free energy of the ion-electron system (eV)
  ---------------------------------------------------
  alpha Z        PSCENC =         0.09102512
  Ewald energy   TEWEN  =      3132.37418968
  -Hartree energ DENC   =     -3959.91774136
  -exchange      EXHF   =         0.00000000
  -V(xc)+E(xc)   XCENC  =       119.49499791
  PAW double counting   =      3082.69451183    -3088.45963204
  entropy T*S    EENTRO =        -0.00000000
  eigenvalues    EBANDS =      -514.16496594
  atomic energy  EATOM  =      1234.83038864
  Solvation  Ecorr_sol  =       -89.22445394
  ---------------------------------------------------
  free energy    TOTEN  =       -82.28168011 eV

  energy without entropy =      -82.28168011  energy(sigma->0) =      -82.28168011


--------------------------------------------------------------------------------------------------------




--------------------------------------- Iteration      1(  19)  ---------------------------------------


    --------------------------------------------
      INIT:  cpu time      0.2043: real time      0.2045
  FINALIZE:  cpu time     35.1010: real time     35.1534
[...]


--------------------------------------------------------------------------------------------------------


    --------------------------------------------
      INIT:  cpu time      0.1931: real time      0.1931
  FINALIZE:  cpu time     48.8668: real time     48.9417
    --------------------------------------------
    POTLOK:  cpu time     53.7710: real time     53.8625


--------------------------------------------------------------------------------------------------------


 Conjugate gradient step on ions:
 trial-energy change:   -0.000023  1 .order   -0.000014   -0.000113    0.000085
  (g-gl).g = 0.152E-03      g.g   = 0.148E-03  gl.gl    = 0.433E-03
 g(Force)  = 0.148E-03   g(Stress)= 0.000E+00 ortho     = 0.110E-04
 gamma     =   0.35146
 trial     =   0.74393
 opt step  =   0.42547  (harmonic =   0.42547) maximal distance =0.00059943
 next E    =   -82.441395   (d E  =  -0.00003)


--------------------------------------------------------------------------------------------------------


    WAVPRE:  cpu time      0.5816: real time      0.5942
    FEWALD:  cpu time      0.0007: real time      0.0007

 real space projection operators:
  total allocation   :       1726.96 KBytes
  max/ min on nodes  :        182.50        162.16

    ORTHCH:  cpu time      0.8010: real time      0.8025
     LOOP+:  cpu time    214.6818: real time    215.0718


--------------------------------------- Iteration      9(   1)  ---------------------------------------


    --------------------------------------------
      INIT:  cpu time      0.1963: real time      0.1964
  FINALIZE:  cpu time     47.5038: real time     47.5757
    --------------------------------------------
    POTLOK:  cpu time     52.2887: real time     52.3698
    SETDIJ:  cpu time      0.0235: real time      0.0235
     EDDAV:  cpu time      7.0051: real time      7.0196
       DOS:  cpu time      0.0021: real time      0.0021
    CHARGE:  cpu time      4.9371: real time      4.9476
    MIXING:  cpu time      0.1907: real time      0.1910
    --------------------------------------------
      LOOP:  cpu time     64.4471: real time     64.5536

 eigenvalue-minimisations  :   160
 total energy-change (2. order) :-0.1407388E-04  (-0.1029098E-03)
 number of electron      35.0000002 magnetization       1.0000001
 augmentation part        0.9511298 magnetization       0.0781223

 Broyden mixing:
  rms(total) = 0.91847E-03    rms(broyden)= 0.91693E-03
  rms(prec ) = 0.93254E-03
  weight for this iteration     100.00

 Free energy of the ion-electron system (eV)
  ---------------------------------------------------
  alpha Z        PSCENC =         0.09102512
  Ewald energy   TEWEN  =      3133.41016127
  -Hartree energ DENC   =     -3961.91210682
  -exchange      EXHF   =         0.00000000
  -V(xc)+E(xc)   XCENC  =       119.47436047
  PAW double counting   =      3083.82934712    -3089.59637980
  entropy T*S    EENTRO =        -0.00000000
  eigenvalues    EBANDS =      -514.16931890
  atomic energy  EATOM  =      1234.83038864
  Solvation  Ecorr_sol  =       -88.28272655
  ---------------------------------------------------
  free energy    TOTEN  =       -82.32524945 eV

  energy without entropy =      -82.32524945  energy(sigma->0) =      -82.32524945


--------------------------------------------------------------------------------------------------------




--------------------------------------- Iteration      9(   2)  ---------------------------------------


    --------------------------------------------
      INIT:  cpu time      0.1905: real time      0.1905
  FINALIZE:  cpu time     34.0110: real time     34.0721
    --------------------------------------------
    POTLOK:  cpu time     38.8282: real time     38.9038
    SETDIJ:  cpu time      0.0230: real time      0.0230
    EDDIAG:  cpu time      1.4094: real time      1.4124
  RMM-DIIS:  cpu time      3.5364: real time      3.5442
    ORTHCH:  cpu time      0.0827: real time      0.0829
       DOS:  cpu time      0.0003: real time      0.0003
    --------------------------------------------
      LOOP:  cpu time     43.8799: real time     43.9666

 eigenvalue-minimisations  :    97
 total energy-change (2. order) :-0.9362236E-05  (-0.2063327E-05)
 number of electron      35.0000002 magnetization       1.0000001
 augmentation part        0.9511298 magnetization       0.0781223

 Free energy of the ion-electron system (eV)
  ---------------------------------------------------
  alpha Z        PSCENC =         0.09102512
  Ewald energy   TEWEN  =      3133.41016127
  -Hartree energ DENC   =     -3961.90939178
  -exchange      EXHF   =         0.00000000
  -V(xc)+E(xc)   XCENC  =       119.47397715
  PAW double counting   =      3083.76098563    -3089.52790824
  entropy T*S    EENTRO =        -0.00000000
  eigenvalues    EBANDS =      -514.17208766
  atomic energy  EATOM  =      1234.83038864
  Solvation  Ecorr_sol  =       -88.28240893
  ---------------------------------------------------
  free energy    TOTEN  =       -82.32525881 eV

  energy without entropy =      -82.32525881  energy(sigma->0) =      -82.32525881


--------------------------------------------------------------------------------------------------------




 average (electrostatic) potential at core
  the test charge radii are     0.6991  0.7089  0.5201
  (the norm of the test charge is              1.0000)
       1 -60.8111       2 -60.5493       3 -60.8006       4 -60.5485       5 -60.8115
       6 -62.3577       7 -76.9413       8 -46.3860       9 -46.3823      10 -43.8469
      11 -43.4608      12 -43.5521      13 -43.4627      14 -43.8472
 
 
 
 E-fermi :  -7.0442     XC(G=0):  -0.0333     alpha+bet : -0.0137

 Fermi energy:        -7.0441631465

 spin component 1

 k-point     1 :       0.0000    0.0000    0.0000
  band No.  band energies     occupation 
      1     -25.9909      1.00000
      2     -22.8770      1.00000
      3     -20.4603      1.00000
      4     -20.0194      1.00000
      5     -17.1580      1.00000
      6     -17.0955      1.00000
      7     -15.0830      1.00000
      8     -14.9907      1.00000
      9     -13.7024      1.00000
     10     -12.4875      1.00000
     11     -12.1800      1.00000
     12     -12.0634      1.00000
     13     -12.0138      1.00000
     14     -10.4239      1.00000
     15     -10.0771      1.00000
     16      -9.9248      1.00000
     17      -8.3086      1.00000
     18      -7.3561      1.00000
     19      -2.9673      0.00000
     20      -2.9603      0.00000
     21      -1.0524      0.00000
     22      -0.5587      0.00000
     23      -0.3297      0.00000
     24       0.0120      0.00000
     25       0.0347      0.00000
     26       0.0965      0.00000
     27       0.0981      0.00000
     28       0.0997      0.00000
     29       0.1051      0.00000
     30       0.1238      0.00000
     31       0.1611      0.00000
     32       0.1824      0.00000
 Fermi energy:        -7.0441631465

 spin component 2

 k-point     1 :       0.0000    0.0000    0.0000
  band No.  band energies     occupation 
      1     -25.6979      1.00000
      2     -22.7007      1.00000
      3     -20.3738      1.00000
      4     -19.7449      1.00000
      5     -17.0767      1.00000
      6     -16.9421      1.00000
      7     -15.0191      1.00000
      8     -14.8744      1.00000
      9     -13.6019      1.00000
     10     -12.4066      1.00000
     11     -12.1163      1.00000
     12     -11.9955      1.00000
     13     -11.5304      1.00000
     14     -10.3716      1.00000
     15      -9.8797      1.00000
     16      -9.5341      1.00000
     17      -8.0942      1.00000
     18      -6.5225      0.00000
     19      -2.7308      0.00000
     20      -2.4180      0.00000
     21      -0.9798      0.00000
     22      -0.5298      0.00000
     23      -0.3122      0.00000
     24       0.0146      0.00000
     25       0.0570      0.00000
     26       0.0976      0.00000
     27       0.1012      0.00000
     28       0.1065      0.00000
     29       0.1080      0.00000
     30       0.1235      0.00000
     31       0.1314      0.00000
     32       0.1798      0.00000


--------------------------------------------------------------------------------------------------------


 soft charge-density along one line, spin component           1
         0         1         2         3         4         5         6         7         8         9
 total charge-density along one line
 
 soft charge-density along one line, spin component           2
         0         1         2         3         4         5         6         7         8         9
 total charge-density along one line
 
 pseudopotential strength for first ion, spin component:           1
 10.395  13.828   0.003  -0.000  -0.001  -0.010   0.000   0.001
 13.828  18.393   0.004  -0.000  -0.001  -0.013   0.000   0.002
  0.003   0.004  -4.487   0.000   0.001   8.774  -0.000  -0.002
 -0.000  -0.000   0.000  -4.496   0.000  -0.000   8.793  -0.001
 -0.001  -0.001   0.001   0.000  -4.489  -0.002  -0.001   8.775
 -0.010  -0.013   8.774  -0.000  -0.002 -19.300   0.000   0.005
  0.000   0.000  -0.000   8.793  -0.001   0.000 -19.342   0.001
  0.001   0.002  -0.002  -0.001   8.775   0.005   0.001 -19.299
 pseudopotential strength for first ion, spin component:           2
 10.364  13.786   0.003  -0.000  -0.001  -0.010   0.000   0.001
 13.786  18.336   0.004  -0.000  -0.001  -0.013   0.000   0.001
  0.003   0.004  -4.487   0.000   0.001   8.780  -0.000  -0.003
 -0.000  -0.000   0.000  -4.466  -0.001  -0.000   8.746   0.001
 -0.001  -0.001   0.001  -0.001  -4.488  -0.003   0.001   8.781
 -0.010  -0.013   8.780  -0.000  -0.003 -19.325   0.000   0.006
  0.000   0.000  -0.000   8.746   0.001   0.000 -19.272  -0.002
  0.001   0.001  -0.003   0.001   8.781   0.006  -0.002 -19.323
 total augmentation occupancy for first ion, spin component:           1
  7.809  -3.382   0.175   0.004   0.184   0.040   0.001   0.033
 -3.382   1.509  -0.144  -0.002  -0.100  -0.026  -0.000  -0.018
  0.175  -0.144   1.730  -0.001   0.010   0.153  -0.000  -0.005
  0.004  -0.002  -0.001   1.122   0.023  -0.000   0.061   0.003
  0.184  -0.100   0.010   0.023   1.874  -0.005   0.003   0.169
  0.040  -0.026   0.153  -0.000  -0.005   0.014  -0.000  -0.001
  0.001  -0.000  -0.000   0.061   0.003  -0.000   0.004   0.000
  0.033  -0.018  -0.005   0.003   0.169  -0.001   0.000   0.016
 total augmentation occupancy for first ion, spin component:           2
  0.015  -0.002   0.005  -0.000  -0.006   0.001  -0.000  -0.001
 -0.002  -0.000  -0.005  -0.000   0.006  -0.001   0.000   0.001
  0.005  -0.005   0.002   0.000   0.002   0.000   0.000  -0.000
 -0.000  -0.000   0.000   0.195  -0.006   0.000   0.004  -0.000
 -0.006   0.006   0.002  -0.006   0.005  -0.000  -0.000   0.000
  0.001  -0.001   0.000   0.000  -0.000   0.000  -0.000  -0.000
 -0.000   0.000   0.000   0.004  -0.000  -0.000  -0.000   0.000
 -0.001   0.001  -0.000  -0.000   0.000  -0.000   0.000  -0.000


------------------------ aborting loop because EDIFF is reached ----------------------------------------


    CHARGE:  cpu time      4.9070: real time      4.9186
    FORLOC:  cpu time      0.2451: real time      0.2453
    FORNL :  cpu time      2.3226: real time      2.3279
    STRESS:  cpu time      7.0891: real time      7.1057
    FORCOR:  cpu time      4.1980: real time      4.2064
    FORHAR:  cpu time      0.6392: real time      0.6404
    MIXING:  cpu time      0.0789: real time      0.0791
    OFIELD:  cpu time      0.0000: real time      0.0000

 ---------------------------------------------------------------------------------------------

         DFTD3 V3.0 Rev 1        
 Edisp (eV)   -0.11615

 E6    (eV) :    -0.0497
 E8    (eV) :    -0.0664
 % E8        : 57.17
    FORVDW:  cpu time      0.0051: real time      0.0051

  FORCE on cell =-STRESS in cart. coord.  units (eV):
  Direction    XX          YY          ZZ          XY          YZ          ZX
  --------------------------------------------------------------------------------------
  Alpha Z     0.09103     0.09103     0.09103
  Ewald    1931.95657  1420.99850  -219.54472    -0.01328    -0.00112    67.68093
  Hartree  1919.01521  1536.41269   594.71052    -0.00365    -0.00023    41.72251
  E(xc)    -128.99256  -129.21999  -133.17477    -0.00000    -0.00000     0.12917
  Local   -4175.55484 -3286.23828  -778.05449     0.01458     0.00110  -106.89749
  n-local   -54.97581   -56.11450   -50.21840    -0.00029    -0.00001    -0.12877
  augment    -0.48209    -0.40841     0.15865     0.00002     0.00000    -0.02290
  Kinetic   508.54083   514.15839   585.59257     0.00225     0.00014    -2.48337
  Fock        0.00000     0.00000     0.00000     0.00000     0.00000     0.00000
  vdW         0.01635     0.02404     0.00002     0.00000     0.00000     0.00059
  -------------------------------------------------------------------------------------
  Total      -0.38530    -0.29654    -0.43959     0.00000     0.00000     0.00066
  in kB      -0.00965    -0.00742    -0.01100     0.00000     0.00000     0.00002
  external pressure =       -0.01 kB  Pullay stress =        0.00 kB


 VOLUME and BASIS-vectors are now :
 -----------------------------------------------------------------------------
  energy-cutoff  :      500.00
  volume of cell :    64000.00
      direct lattice vectors                 reciprocal lattice vectors
    40.000000000  0.000000000  0.000000000     0.025000000  0.000000000  0.000000000
     0.000000000 40.000000000  0.000000000     0.000000000  0.025000000  0.000000000
     0.000000000  0.000000000 40.000000000     0.000000000  0.000000000  0.025000000

  length of vectors
    40.000000000 40.000000000 40.000000000     0.025000000  0.025000000  0.025000000


 FORCES acting on ions
    electron-ion (+dipol)            ewald-force                    non-local-force                 convergence-correction
 -----------------------------------------------------------------------------------------------
   0.512E+02 0.171E+03 0.710E+00   -.509E+02 -.174E+03 -.678E+00   -.326E+00 0.313E+01 -.336E-01   0.232E-02 -.284E-04 -.933E-03
   -.115E+03 0.157E+03 -.401E+01   0.116E+03 -.159E+03 0.406E+01   -.151E+01 0.216E+01 -.559E-01   0.272E-02 -.185E-02 -.777E-03
   -.191E+03 0.110E-01 -.513E+01   0.193E+03 0.243E-02 0.517E+01   -.213E+01 0.000E+00 -.388E-01   0.518E-02 0.210E-06 0.450E-03
   -.115E+03 -.157E+03 -.401E+01   0.116E+03 0.159E+03 0.406E+01   -.151E+01 -.216E+01 -.559E-01   0.272E-02 0.185E-02 -.777E-03
   0.512E+02 -.171E+03 0.711E+00   -.509E+02 0.174E+03 -.678E+00   -.326E+00 -.313E+01 -.336E-01   0.233E-02 0.286E-04 -.933E-03
   0.419E+02 0.127E-03 0.771E+00   -.357E+02 -.562E-03 -.552E+00   -.612E+01 0.000E+00 -.218E+00   -.635E-02 -.803E-07 -.887E-03
   0.249E+03 -.341E-01 0.874E+01   -.252E+03 0.363E-02 -.881E+01   0.346E+01 0.000E+00 0.703E-01   -.752E-03 -.857E-06 0.287E-03
   0.697E+02 -.665E+02 0.268E+01   -.738E+02 0.730E+02 -.284E+01   0.410E+01 -.651E+01 0.165E+00   0.370E-03 -.104E-02 0.537E-04
   0.697E+02 0.665E+02 0.268E+01   -.738E+02 -.730E+02 -.284E+01   0.410E+01 0.651E+01 0.165E+00   0.371E-03 0.104E-02 0.537E-04
   0.333E+02 -.774E+02 0.808E+00   -.363E+02 0.826E+02 -.888E+00   0.293E+01 -.518E+01 0.799E-01   -.248E-03 0.104E-02 -.131E-03
   -.442E+02 -.708E+02 -.139E+01   0.473E+02 0.759E+02 0.149E+01   -.305E+01 -.516E+01 -.930E-01   0.155E-04 -.721E-04 -.117E-03
   -.828E+02 0.375E-02 -.178E+01   0.888E+02 -.253E-03 0.191E+01   -.602E+01 0.000E+00 -.119E+00   -.666E-03 0.996E-07 0.274E-03
   -.442E+02 0.708E+02 -.139E+01   0.473E+02 -.759E+02 0.149E+01   -.305E+01 0.516E+01 -.930E-01   0.155E-04 0.721E-04 -.117E-03
   0.333E+02 0.774E+02 0.808E+00   -.363E+02 -.826E+02 -.888E+00   0.293E+01 0.518E+01 0.799E-01   -.248E-03 -.104E-02 -.131E-03
 -----------------------------------------------------------------------------------------------
   0.651E+01 -.920E-02 0.193E+00   -.121E-12 -.426E-13 -.377E-14   -.652E+01 0.888E-15 -.181E+00   0.778E-02 -.451E-06 -.369E-02
 
 
 POSITION                                       TOTAL-FORCE (eV/Angst)
 -----------------------------------------------------------------------------------
     19.79983     18.75600     19.99961        -0.003882     -0.008064     -0.002438
     21.17429     18.77052     20.04000         0.004591      0.000918     -0.004832
     21.87175     19.99996     20.05572        -0.014446     -0.000000      0.003618
     21.17429     21.22944     20.04000         0.004591     -0.000918     -0.004832
     19.79987     21.24400     19.99961        -0.003882      0.008064     -0.002438
     19.08625     20.00000     19.97405         0.005130     -0.000000     -0.001140
     17.75152     20.00004     19.92475        -0.009944     -0.000000      0.000935
     17.21950     20.86697     19.90332        -0.000476      0.009368      0.001300
     17.21946     19.13311     19.90332        -0.000476     -0.009368      0.001300
     19.24196     22.18033     19.98412         0.007174      0.003366     -0.000795
     21.72919     22.16599     20.05684         0.000831      0.005485     -0.000705
     22.96101     19.99996     20.07773         0.002784     -0.000000      0.011528
     21.72915     17.83397     20.05684         0.000831     -0.005485     -0.000705
     19.24188     17.81967     19.98412         0.007174     -0.003366     -0.000795
 -----------------------------------------------------------------------------------
    total drift:                               -0.005939     -0.009203      0.008569


--------------------------------------------------------------------------------------------------------



  FREE ENERGIE OF THE ION-ELECTRON SYSTEM (eV)
  ---------------------------------------------------
  free  energy   TOTEN  =       -82.44140582 eV

  energy  without entropy=      -82.44140582  energy(sigma->0) =      -82.44140582
 
 d Force = 0.1846144E-04[ 0.692E-06, 0.362E-04]  d Energy = 0.1949652E-04-0.104E-05
 d Force =-0.1225609E-03[-0.161E-03,-0.837E-04]  d Ewald  =-0.1225584E-03-0.254E-08


--------------------------------------------------------------------------------------------------------


    --------------------------------------------
      INIT:  cpu time      0.1881: real time      0.1882
  FINALIZE:  cpu time     31.8984: real time     31.9486
    --------------------------------------------
    POTLOK:  cpu time     36.7229: real time     36.7835


--------------------------------------------------------------------------------------------------------




--------------------------------------------------------------------------------------------------------


  
 reached required accuracy - stopping structural energy minimisation
 writing wavefunctions
     LOOP+:  cpu time    170.2305: real time    171.0183
    4ORBIT:  cpu time      0.0000: real time      0.0000

 total amount of memory used by VASP MPI-rank0   671679. kBytes
=======================================================================

   base      :      30000. kBytes
   nonlr-proj:       1370. kBytes
   fftplans  :     167689. kBytes
   grid      :     451809. kBytes
   one-center:         12. kBytes
   wavefun   :      20799. kBytes
 
  
  
 General timing and accounting informations for this job:
 ========================================================
  
                  Total CPU time used (sec):     4834.096
                            User time (sec):     4415.688
                          System time (sec):      418.407
                         Elapsed time (sec):     4844.202
  
                   Maximum memory used (kb):     2254700.
                   Average memory used (kb):          N/A
  
                          Minor page faults:    119602714
                          Major page faults:            0
                 Voluntary context switches:       186117
