
                                 *****************
                                 * O   R   C   A *
                                 *****************

                                            #,                                       
                                            ###                                      
                                            ####                                     
                                            #####                                    
                                            ######                                   
                                           ########,                                 
                                     ,,################,,,,,                         
                               ,,#################################,,                 
                          ,,##########################################,,             
                       ,#########################################, ''#####,          
                    ,#############################################,,   '####,        
                  ,##################################################,,,,####,       
                ,###########''''           ''''###############################       
              ,#####''   ,,,,##########,,,,          '''####'''          '####       
            ,##' ,,,,###########################,,,                        '##       
           ' ,,###''''                  '''############,,,                           
         ,,##''                                '''############,,,,        ,,,,,,###''
      ,#''                                            '''#######################'''  
     '                                                          ''''####''''         
             ,#######,   #######,   ,#######,      ##                                
            ,#'     '#,  ##    ##  ,#'     '#,    #''#        ,####,   ,####,        
            ##       ##  ##   ,#'  ##            #'  '#       #'       #'  '#        
            ##       ##  #######   ##           ,######,      #####,   #    #        
            '#,     ,#'  ##    ##  '#,     ,#' ,#      #,     #,   #   #,  ,#        
             '#######'   ##     ##  '#######'  #'      '#     '####' # '####'        



                #########################################################
                #                        -***-                          #
                #          Department of theory and spectroscopy        #
                #                                                       #
                #                      Frank Neese                      #
                #                                                       #
                #     Directorship, Architecture, Infrastructure        #
                #                    SHARK, DRIVERS                     #
                #        Core code/Algorithms in most modules           #
                #                                                       #
                #        Max Planck Institute fuer Kohlenforschung      #
                #                Kaiser Wilhelm Platz 1                 #
                #                 D-45470 Muelheim/Ruhr                 #
                #                      Germany                          #
                #                                                       #
                #                  All rights reserved                  #
                #                        -***-                          #
                #########################################################


                         Program Version 6.0.0  -   RELEASE  -


 With contributions from (in alphabetic order):
   Daniel Aravena         : Magnetic Suceptibility
   Michael Atanasov       : Ab Initio Ligand Field Theory (pilot matlab implementation)
   Alexander A. Auer      : GIAO ZORA, VPT2 properties, NMR spectrum
   Ute Becker             : All parallelization in ORCA, NUMFREQ, NUMCALC
   Giovanni Bistoni       : ED, misc. LED, open-shell LED, HFLD
   Martin Brehm           : Molecular dynamics
   Dmytro Bykov           : pre 5.0 version of the SCF Hessian
   Marcos Casanova-Páez   : Triplet and SCS-CIS(D). UHF-(DLPNO)-IP/EA/STEOM-CCSD. UHF-CVS-IP/STEOM-CCSD
   Vijay G. Chilkuri      : MRCI spin determinant printing, contributions to CSF-ICE
   Pauline Colinet        : FMM embedding
   Dipayan Datta          : RHF DLPNO-CCSD density
   Achintya Kumar Dutta   : EOM-CC, STEOM-CC
   Nicolas Foglia         : Exact transition moments, OPA infrastructure, MCD improvements
   Dmitry Ganyushin       : Spin-Orbit,Spin-Spin,Magnetic field MRCI
   Miquel Garcia          : C-PCM and meta-GGA Hessian, CCSD/C-PCM, Gaussian charge scheme
   Tiago L. C. Gouveia    : GS-ROHF, GS-ROCIS
   Yang Guo               : DLPNO-NEVPT2, F12-NEVPT2, CIM, IAO-localization
   Andreas Hansen         : Spin unrestricted coupled pair/coupled cluster methods
   Ingolf Harden          : AUTO-CI MPn and infrastructure 
   Benjamin Helmich-Paris : MC-RPA, TRAH-(SCF,CASSCF), AVAS, COSX integrals, SCF dyn. polar.
   Lee Huntington         : MR-EOM, pCC
   Robert Izsak           : Overlap fitted RIJCOSX, COSX-SCS-MP3, EOM
   Riya Kayal             : Wick's Theorem for AUTO-CI, AUTO-CI UHF-CCSDT
   Emily Kempfer          : AUTO-CI, RHF CISDT and CCSDT
   Christian Kollmar      : KDIIS, OOCD, Brueckner-CCSD(T), CCSD density, CASPT2, CASPT2-K, improved NEVPT2
   Axel Koslowski         : Symmetry handling
   Simone Kossmann        : Meta GGA functionals, TD-DFT gradient, OOMP2, (MP2 Hessian; deprecated post 5.0)
   Lucas Lang             : DCDCAS
   Marvin Lechner         : AUTO-CI (C++ implementation), FIC-MRCC
   Spencer Leger          : CASSCF response
   Dagmar Lenk            : GEPOL surface, SMD, ORCA-2-JSON
   Dimitrios Liakos       : Extrapolation schemes; Compound Job, initial MDCI parallelization
   Dimitrios Manganas     : Further ROCIS development; embedding schemes. LFT, Crystal Embedding
   Dimitrios Pantazis     : SARC Basis sets
   Anastasios Papadopoulos: AUTO-CI, single reference methods and gradients
   Taras Petrenko         : pre 6.0 DFT Hessian and TD-DFT gradient, (ASA, deprecated), ECA, 1-Electron XAS/XES, NRVS
   Peter Pinski           : DLPNO-MP2, DLPNO-MP2 Gradient
   Christoph Reimann      : Effective Core Potentials
   Marius Retegan         : Local ZFS, SOC
   Christoph Riplinger    : Optimizer, TS searches, QM/MM, DLPNO-CCSD(T), (RO)-DLPNO pert. Triples
   Michael Roemelt        : Original ROCIS implementation
   Masaaki Saitow         : Open-shell DLPNO-CCSD energy and density
   Barbara Sandhoefer     : DKH picture change effects
   Kantharuban Sivalingam : CASSCF convergence/infrastructure, NEVPT2 and variants, FIC-MRCI
   Bernardo de Souza      : ESD, SOC TD-DFT
   Georgi Stoychev        : AutoAux, RI-MP2 NMR, DLPNO-MP2 response, X2C
   Van Anh Tran           : RI-MP2 g-tensors
   Willem Van den Heuvel  : Paramagnetic NMR
   Zikuan Wang            : NOTCH, Electric field optimization 
   Frank Wennmohs         : Technical directorship and infrastructure
   Hang Xu                : AUTO-CI-Response properties 


 We gratefully acknowledge several colleagues who have allowed us to
 interface, adapt or use parts of their codes:
   Stefan Grimme, W. Hujo, H. Kruse, P. Pracht,  : VdW corrections, initial TS optimization,
                  C. Bannwarth, S. Ehlert,         DFT functionals, gCP, sTDA/sTD-DF
                  L. Wittmann, M. Mueller
   Ed Valeev, F. Pavosevic, A. Kumar             : LibInt (2-el integral package), F12 methods
   Garnet Chan, S. Sharma, J. Yang, R. Olivares  : DMRG
   Ulf Ekstrom                                   : XCFun DFT Library
   Mihaly Kallay                                 : mrcc  (arbitrary order and MRCC methods)
   Frank Weinhold                                : gennbo (NPA and NBO analysis)
   Simon Mueller                                 : openCOSMO-RS
   Christopher J. Cramer and Donald G. Truhlar   : smd solvation model
   Lars Goerigk                                  : TD-DFT with DH, B97 family of functionals
   V. Asgeirsson, H. Jonsson                     : NEB implementation
   FAccTs GmbH                                   : IRC, NEB, NEB-TS, DLPNO-Multilevel, CI-OPT
                                                   MM, QMMM, 2- and 3-layer-ONIOM, Crystal-QMMM,
                                                   LR-CPCM, SF, NACMEs, symmetry and pop. for TD-DFT,
                                                   nearIR, NL-DFT gradient (VV10), updates on ESD,
                                                   ML-optimized integration grids, MBIS, APM,
                                                   GOAT, DOCKER, SOLVATOR, interface openCOSMO-RS
   S Lehtola, MJT Oliveira, MAL Marques          : LibXC Library
   Liviu Ungur et al                             : ANISO software


 Your calculation uses the libint2 library for the computation of 2-el integrals
 For citations please refer to: http://libint.valeyev.net

 Your ORCA version has been built with support for libXC version: 6.2.2
 For citations please refer to: https://libxc.gitlab.io

 This ORCA versions uses:
   CBLAS   interface :  Fast vector & matrix operations
   LAPACKE interface :  Fast linear algebra routines
   SCALAPACK package :  Parallel linear algebra routines
   Shared memory     :  Shared parallel matrices
   BLAS/LAPACK       :  OpenBLAS 0.3.27  USE64BITINT DYNAMIC_ARCH NO_AFFINITY Sandybridge SINGLE_THREADED
        Core in use  :  Sandybridge
   Copyright (c) 2011-2014, The OpenBLAS Project


NOTE: MaxCore=5000 MB was set to SCF,MP2,MDCI,CIPSI,MRCI and CIS
      => If you want to overwrite this, your respective input block should be placed after the MaxCore statement
Your calculation utilizes the atom-pairwise dispersion correction
with the Becke-Johnson damping scheme (D3BJ)


Your calculation utilizes the SMD solvation module
Please cite in your paper:
A.V. Marenich, C.J. Cramer, D.G. Truhlar J. Phys. Chem. B, 113, (2009), 6378 

Warning: RI is on but no J-basis has been assigned. Assigning Def2/J (nothing to worry about!)
================================================================================

----- Orbital basis set information -----
Your calculation utilizes the basis: aug-cc-pVTZ 
    H, B-Ne : Obtained from the ccRepo (grant-hill.group.shef.ac.uk/ccrepo) Feb. 2017
              R. A. Kendall, T. H. Dunning, Jr., R. J. Harrison, J. Chem. Phys. 96, 6796 (1992)
         He : Obtained from the ccRepo (grant-hill.group.shef.ac.uk/ccrepo) Feb. 2017
              D. E. Woon, T. H. Dunning, Jr., J. Chem. Phys. 100, 2975 (1994)
  Li-Be, Na : Obtained from the ccRepo (grant-hill.group.shef.ac.uk/ccrepo) Feb. 2017
              B. P. Prascher, D. E. Woon, K. A. Peterson, T. H. Dunning, Jr., A. K. Wilson, Theor. Chem. Acc. 128, 69 (2011)
         Mg : Obtained from the Peterson Research Group Website (tyr0.chem.wsu.edu/~kipeters) Feb. 2017
              B. P. Prascher, D. E. Woon, K. A. Peterson, T. H. Dunning, Jr., A. K. Wilson, Theor. Chem. Acc. 128, 69 (2011)
      Al-Ar : Obtained from the ccRepo (grant-hill.group.shef.ac.uk/ccrepo) Feb. 2017
              D. E. Woon, T. H. Dunning, Jr., J. Chem. Phys. 98, 1358 (1993)
      Sc-Zn : Obtained from the ccRepo (grant-hill.group.shef.ac.uk/ccrepo) Feb. 2017
              N. B. Balabanov, K. A. Peterson, J. Chem. Phys. 123, 064107 (2005)
              N. B. Balabanov, K. A. Peterson, J. Chem. Phys. 125, 074110 (2006)
      Ga-Kr : Obtained from the ccRepo (grant-hill.group.shef.ac.uk/ccrepo) Feb. 2017
              A. K. Wilson, D. E. Woon, K. A. Peterson, T. H. Dunning, Jr., J. Chem. Phys. 110, 7667 (1999)
     Ag, Au : Obtained from the Peterson Research Group Website (tyr0.chem.wsu.edu/~kipeters) Feb. 2017
              K. A. Peterson, C. Puzzarini, Theor. Chem. Acc. 114, 283 (2005)

----- AuxJ basis set information -----
Your calculation utilizes the auxiliary basis: def2/J
   F. Weigend, Phys. Chem. Chem. Phys. 8, 1057 (2006).

================================================================================
                                        WARNINGS
                       Please study these warnings very carefully!
================================================================================

Using LibXC functional ID 497 : Re-regularized SCAN exchange by Furness et al
[ 1]  J. W. Furness, A. D. Kaplan, J. Ning, J. P. Perdew, and J. Sun.,  J. Phys. Chem. Lett. 11, 8208-8215 (2020)
[ 2]  J. W. Furness, A. D. Kaplan, J. Ning, J. P. Perdew, and J. Sun.,  J. Phys. Chem. Lett. 11, 9248-9248 (2020)
Using LibXC functional ID 498 : Re-regularized SCAN correlation by Furness et al
[ 1]  J. W. Furness, A. D. Kaplan, J. Ning, J. P. Perdew, and J. Sun.,  J. Phys. Chem. Lett. 11, 8208-8215 (2020)
[ 2]  J. W. Furness, A. D. Kaplan, J. Ning, J. P. Perdew, and J. Sun.,  J. Phys. Chem. Lett. 11, 9248-9248 (2020)
Using LibXC functional ID 497 : Re-regularized SCAN exchange by Furness et al
[ 1]  J. W. Furness, A. D. Kaplan, J. Ning, J. P. Perdew, and J. Sun.,  J. Phys. Chem. Lett. 11, 8208-8215 (2020)
[ 2]  J. W. Furness, A. D. Kaplan, J. Ning, J. P. Perdew, and J. Sun.,  J. Phys. Chem. Lett. 11, 9248-9248 (2020)
Using LibXC functional ID 498 : Re-regularized SCAN correlation by Furness et al
[ 1]  J. W. Furness, A. D. Kaplan, J. Ning, J. P. Perdew, and J. Sun.,  J. Phys. Chem. Lett. 11, 8208-8215 (2020)
[ 2]  J. W. Furness, A. D. Kaplan, J. Ning, J. P. Perdew, and J. Sun.,  J. Phys. Chem. Lett. 11, 9248-9248 (2020)


WARNING: Found flag for RIJCOSX approximation but no HF exchange needed!
  ===> : RIJCOSX  will be disabled and Split-RI-J is turned on

================================================================================
                                       INPUT FILE
================================================================================
NAME = cs_rporg_078_red_freq_06.inp
|  1> !r2SCAN freq aug-cc-pVTZ d3 TightSCF SlowConv RIJCOSX defgrid2
|  2> 
|  3> %pal
|  4> nprocs 12
|  5> end
|  6> 
|  7> %scf
|  8> MaxIter 1500
|  9> end
| 10> 
| 11> %maxcore 5000
| 12> 
| 13> !CPCM
| 14> %cpcm smd true
| 15> SMDsolvent "MeCN"
| 16> surfacetype gepol_ses
| 17> rsolv 2.19
| 18> end 
| 19> 
| 20> * xyz 0 1
| 21> C           1.34121084398131     -0.00495315855238     -0.21343008115502
| 22> C           0.75343610268487      1.26202831590883     -0.16128874181793
| 23> C          -0.62202958835441      1.38921074816955     -0.06874000958312
| 24> C          -1.43926773469120      0.25586738599390     -0.02937119913666
| 25> C          -0.85718408243280     -1.01089159181074     -0.08362024351829
| 26> C           0.52686226921836     -1.13308789338531     -0.17407176430689
| 27> H           0.96403149691651     -2.12445996698842     -0.21325950108878
| 28> H          -1.46093973833795     -1.90701525564029     -0.05520208490864
| 29> O          -2.77579553338646      0.48556201978673      0.06109400224257
| 30> C          -3.63224563995410     -0.65561558446399      0.10051259788539
| 31> H          -4.64460483795497     -0.26439694902814      0.16766910987232
| 32> H          -3.53151588779794     -1.25455104242146     -0.80836000046022
| 33> H          -3.42189632442696     -1.27571225802905      0.97594748204140
| 34> H          -1.07896152509718      2.37087660662928     -0.02652147855490
| 35> H           1.36925621525023      2.15316487393921     -0.19328569628107
| 36> S           3.09927602620398     -0.23796720431534     -0.33361976007509
| 37> H           3.43546563817872      1.06450675420762     -0.27904293115507
| 38> *
| 39> 
| 40>                          ****END OF INPUT****
================================================================================

                       ****************************
                       * Single Point Calculation *
                       ****************************

---------------------------------
CARTESIAN COORDINATES (ANGSTROEM)
---------------------------------
  C      1.341211   -0.004953   -0.213430
  C      0.753436    1.262028   -0.161289
  C     -0.622030    1.389211   -0.068740
  C     -1.439268    0.255867   -0.029371
  C     -0.857184   -1.010892   -0.083620
  C      0.526862   -1.133088   -0.174072
  H      0.964031   -2.124460   -0.213260
  H     -1.460940   -1.907015   -0.055202
  O     -2.775796    0.485562    0.061094
  C     -3.632246   -0.655616    0.100513
  H     -4.644605   -0.264397    0.167669
  H     -3.531516   -1.254551   -0.808360
  H     -3.421896   -1.275712    0.975947
  H     -1.078962    2.370877   -0.026521
  H      1.369256    2.153165   -0.193286
  S      3.099276   -0.237967   -0.333620
  H      3.435466    1.064507   -0.279043

----------------------------
CARTESIAN COORDINATES (A.U.)
----------------------------
  NO LB      ZA    FRAG     MASS         X           Y           Z
   0 C     6.0000    0    12.011    2.534521   -0.009360   -0.403324
   1 C     6.0000    0    12.011    1.423788    2.384888   -0.304792
   2 C     6.0000    0    12.011   -1.175466    2.625228   -0.129900
   3 C     6.0000    0    12.011   -2.719822    0.483519   -0.055504
   4 C     6.0000    0    12.011   -1.619843   -1.910308   -0.158019
   5 C     6.0000    0    12.011    0.995625   -2.141226   -0.328948
   6 H     1.0000    0     1.008    1.821756   -4.014648   -0.403002
   7 H     1.0000    0     1.008   -2.760776   -3.603737   -0.104317
   8 O     8.0000    0    15.999   -5.245493    0.917579    0.115451
   9 C     6.0000    0    12.011   -6.863950   -1.238934    0.189941
  10 H     1.0000    0     1.008   -8.777031   -0.499638    0.316849
  11 H     1.0000    0     1.008   -6.673598   -2.370758   -1.527579
  12 H     1.0000    0     1.008   -6.466447   -2.410747    1.844273
  13 H     1.0000    0     1.008   -2.038942    4.480307   -0.050118
  14 H     1.0000    0     1.008    2.587519    4.068892   -0.365257
  15 S    16.0000    0    32.060    5.856783   -0.449693   -0.630450
  16 H     1.0000    0     1.008    6.492089    2.011626   -0.527315

--------------------------------
INTERNAL COORDINATES (ANGSTROEM)
--------------------------------
 C      0   0   0     0.000000000000     0.00000000     0.00000000
 C      1   0   0     1.397655151460     0.00000000     0.00000000
 C      2   1   0     1.384430029341   120.23790154     0.00000000
 C      3   2   1     1.397818038105   120.54834129   359.85443030
 C      4   3   2     1.395149685479   119.41661603     0.02766311
 C      1   2   3     1.391905405644   119.18434868     0.13822538
 H      6   1   2     1.084191496314   120.27679177   180.00931450
 H      5   4   3     1.080909850381   121.24415904   179.99524012
 O      4   3   2     1.359135804156   116.08968668   180.03908553
 C      9   4   3     1.427356625082   117.17861931   179.89095829
 H     10   9   4     1.087397426699   105.82398585   180.24561860
 H     10   9   4     1.093123765084   111.08820575   299.03986155
 H     10   9   4     1.093230513435   111.10965857    61.47748473
 H      3   2   1     1.083622192853   120.31593625   179.89499375
 H      2   1   3     1.083689337953   120.35486980   180.02486071
 S      1   2   3     1.777507887292   122.50002973   179.95553824
 H     16   1   2     1.346269103146    96.74328530     2.73808859

---------------------------
INTERNAL COORDINATES (A.U.)
---------------------------
 C      0   0   0     0.000000000000     0.00000000     0.00000000
 C      1   0   0     2.641185465923     0.00000000     0.00000000
 C      2   1   0     2.616193607030   120.23790154     0.00000000
 C      3   2   1     2.641493277073   120.54834129   359.85443030
 C      4   3   2     2.636450821381   119.41661603     0.02766311
 C      1   2   3     2.630320020991   119.18434868     0.13822538
 H      6   1   2     2.048825004760   120.27679177   180.00931450
 H      5   4   3     2.042623592679   121.24415904   179.99524012
 O      4   3   2     2.568394448662   116.08968668   180.03908553
 C      9   4   3     2.697313116843   117.17861931   179.89095829
 H     10   9   4     2.054883335192   105.82398585   180.24561860
 H     10   9   4     2.065704546490   111.08820575   299.03986155
 H     10   9   4     2.065906271639   111.10965857    61.47748473
 H      3   2   1     2.047749177131   120.31593625   179.89499375
 H      2   1   3     2.047876062982   120.35486980   180.02486071
 S      1   2   3     3.359003107867   122.50002973   179.95553824
 H     16   1   2     2.544079907505    96.74328530     2.73808859

---------------------
BASIS SET INFORMATION
---------------------
There are 4 groups of distinct atoms

 Group   1 Type C   : 19s6p3d2f contracted to 5s4p3d2f pattern {88111/3111/111/11}
 Group   2 Type H   : 6s3p2d contracted to 4s3p2d pattern {3111/111/11}
 Group   3 Type O   : 19s6p3d2f contracted to 5s4p3d2f pattern {88111/3111/111/11}
 Group   4 Type S   : 42s17p3d2f contracted to 6s5p3d2f pattern {131313111/77111/111/11}

Atom   0C    basis set group =>   1
Atom   1C    basis set group =>   1
Atom   2C    basis set group =>   1
Atom   3C    basis set group =>   1
Atom   4C    basis set group =>   1
Atom   5C    basis set group =>   1
Atom   6H    basis set group =>   2
Atom   7H    basis set group =>   2
Atom   8O    basis set group =>   3
Atom   9C    basis set group =>   1
Atom  10H    basis set group =>   2
Atom  11H    basis set group =>   2
Atom  12H    basis set group =>   2
Atom  13H    basis set group =>   2
Atom  14H    basis set group =>   2
Atom  15S    basis set group =>   4
Atom  16H    basis set group =>   2
---------------------------------
AUXILIARY/J BASIS SET INFORMATION
---------------------------------
There are 4 groups of distinct atoms

 Group   1 Type C   : 12s5p4d2f1g contracted to 6s4p3d1f1g pattern {711111/2111/211/2/1}
 Group   2 Type H   : 5s2p1d contracted to 3s1p1d pattern {311/2/1}
 Group   3 Type O   : 12s5p4d2f1g contracted to 6s4p3d1f1g pattern {711111/2111/211/2/1}
 Group   4 Type S   : 14s5p5d2f1g contracted to 8s4p3d1f1g pattern {71111111/2111/311/2/1}

Atom   0C    basis set group =>   1
Atom   1C    basis set group =>   1
Atom   2C    basis set group =>   1
Atom   3C    basis set group =>   1
Atom   4C    basis set group =>   1
Atom   5C    basis set group =>   1
Atom   6H    basis set group =>   2
Atom   7H    basis set group =>   2
Atom   8O    basis set group =>   3
Atom   9C    basis set group =>   1
Atom  10H    basis set group =>   2
Atom  11H    basis set group =>   2
Atom  12H    basis set group =>   2
Atom  13H    basis set group =>   2
Atom  14H    basis set group =>   2
Atom  15S    basis set group =>   4
Atom  16H    basis set group =>   2


           ************************************************************
           *        Program running with 12 parallel MPI-processes    *
           *              working on a common directory               *
           ************************************************************
------------------------------------------------------------------------------
                             ORCA STARTUP CALCULATIONS
                           -- RI-GTO INTEGRALS CHOSEN --
------------------------------------------------------------------------------
------------------------------------------------------------------------------
                   ___                                                        
                  /   \      - P O W E R E D   B Y -                         
                 /     \                                                     
                 |  |  |   _    _      __       _____    __    __             
                 |  |  |  | |  | |    /  \     |  _  \  |  |  /  |          
                  \  \/   | |  | |   /    \    | | | |  |  | /  /          
                 / \  \   | |__| |  /  /\  \   | |_| |  |  |/  /          
                |  |  |   |  __  | /  /__\  \  |    /   |      \           
                |  |  |   | |  | | |   __   |  |    \   |  |\   \          
                \     /   | |  | | |  |  |  |  | |\  \  |  | \   \       
                 \___/    |_|  |_| |__|  |__|  |_| \__\ |__|  \__/        
                                                                              
                      - O R C A' S   B I G   F R I E N D -                    
                                      &                                       
                       - I N T E G R A L  F E E D E R -                       
                                                                              
 v1 FN, 2020, v2 2021, v3 2022-2024                                           
------------------------------------------------------------------------------


----------------------
SHARK INTEGRAL PACKAGE
----------------------

Number of atoms                             ...     17
Number of basis functions                   ...    675
Number of shells                            ...    263
Maximum angular momentum                    ...      3
Integral batch strategy                     ... SHARK/LIBINT Hybrid
RI-J (if used) integral strategy            ... SPLIT-RIJ (Revised 2003 algorithm where possible)
Printlevel                                  ...      1
Contraction scheme used                     ... PARTIAL GENERAL contraction
Prescreening option                         ... SCHWARTZ
   Thresh                                   ... 2.500e-11
   Tcut                                     ... 2.500e-12
   Tpresel                                  ... 2.500e-12 
Coulomb Range Separation                    ... NOT USED
Exchange Range Separation                   ... NOT USED
Multipole approximations                    ... NOT USED
Finite Nucleus Model                        ... NOT USED
CABS basis                                  ... NOT available
Auxiliary Coulomb fitting basis             ... AVAILABLE
   # of basis functions in Aux-J            ...    531
   # of shells in Aux-J                     ...    177
   Maximum angular momentum in Aux-J        ...      4
Auxiliary J/K fitting basis                 ... NOT available
Auxiliary Correlation fitting basis         ... NOT available
Auxiliary 'external' fitting basis          ... NOT available

Checking pre-screening integrals            ... done (  0.1 sec) Dimension = 263
Save PGC pre-screening integrals            ... done (  0.1 sec) Dimension = 263
Calculate PGC overlap integrals             ... done (  0.1 sec) Dimension = 200
Calculating pre-screening integrals (ORCA)  ... done (  0.3 sec) Dimension = 200
Check shell pair data                       ... done (  0.0 sec)
Shell pair information
Shell pair cut-off parameter TPreSel        ...   2.5e-12
Total number of shell pairs                 ...     34716
Shell pairs after pre-screening             ...     28294
Total number of primitive shell pairs       ...     43708
Primitive shell pairs kept                  ...     33386
          la=0 lb=0:   6357 shell pairs
          la=1 lb=0:   7378 shell pairs
          la=1 lb=1:   1982 shell pairs
          la=2 lb=0:   4945 shell pairs
          la=2 lb=1:   2564 shell pairs
          la=2 lb=2:    882 shell pairs
          la=3 lb=0:   2177 shell pairs
          la=3 lb=1:   1101 shell pairs
          la=3 lb=2:    739 shell pairs
          la=3 lb=3:    169 shell pairs

Calculating one electron integrals          ... done (  0.1 sec)
Calculating RI/J V-Matrix + Cholesky decomp.... done (  0.1 sec)
Calculating Nuclear repulsion               ... done (  0.0 sec) ENN=    482.518827504550 Eh

Diagonalization of the overlap matrix:
Smallest eigenvalue                        ... 6.689e-07
Time for diagonalization                   ...    0.114 sec
Threshold for overlap eigenvalues          ... 1.000e-07
Number of eigenvalues below threshold      ... 0

IMPORTANT:
Smallest eigenvalue of S below the DiffSThresh (1.000e-06) while
Thresh>1e-12 and/or TCut>1e-13! In order to avoid SCF convergence issues,
Thresh will be set to at least 1e-12 and TCut to at least 1e-13.
This can be turned off by adding %SCF DiffSThresh -1 END to the input.

Time for construction of square roots      ...    0.079 sec
Total time needed                          ...    0.240 sec

-------------------
DFT GRID GENERATION
-------------------

General Integration Accuracy     IntAcc      ... 4.388
Radial Grid Type                 RadialGrid  ... OptM3 with GC (2021)
Angular Grid (max. ang.)         AngularGrid ... 4 (Lebedev-302)
Angular grid pruning method      GridPruning ... 4 (adaptive)
Weight generation scheme         WeightScheme... mBecke (2022)
Basis function cutoff            BFCut       ... 1.0000e-11
Integration weight cutoff        WCut        ... 1.0000e-14
Partially contracted basis set               ... off
Rotationally invariant grid construction     ... off
Angular grids for H and He will be reduced by one unit
Diffuse basis detected: some atoms will have their outermost
                        angular grid increased by 1.

Total number of grid points                  ...    85095
Total number of batches                      ...     1336
Average number of points per batch           ...       63
Average number of grid points per atom       ...     5006

---------------------
SHARK GRID GENERATION
---------------------

General Integration Accuracy     IntAcc      ... 4.388
Radial Grid Type                 RadialGrid  ... OptM3 with GC (2021)
Angular Grid (max. ang.)         AngularGrid ... 4 (Lebedev-302)
Angular grid pruning method      GridPruning ... 4 (adaptive)
Weight generation scheme         WeightScheme... mBecke (2022)
Basis function cutoff            BFCut       ... 1.0000e-11
Integration weight cutoff        WCut        ... 1.0000e-14
Partially contracted basis set               ... off
Rotationally invariant grid construction     ... off
Angular grids for H and He will be reduced by one unit
Diffuse basis detected: some atoms will have their outermost
                        angular grid increased by 1.
Core-polarized basis detected: some atoms will have their core
                               angular grid increased.
Steep s-basis detected: some atoms will have their radial
                        grid points doubled.

Total number of grid points                  ...   147866
Total number of batches                      ...     2319
Average number of points per batch           ...       63
Average number of grid points per atom       ...     8698
Initializing property integral containers    ... done (  0.1 sec)

SHARK setup successfully completed in   4.8 seconds

Maximum memory used throughout the entire STARTUP-calculation: 80.2 MB


           ************************************************************
           *        Program running with 12 parallel MPI-processes    *
           *              working on a common directory               *
           ************************************************************
-------------------------------------------------------------------------------
                                 ORCA GUESS
                   Start orbitals & Density for SCF / CASSCF
-------------------------------------------------------------------------------

------------
SCF SETTINGS
------------
Hamiltonian:
 Density Functional     Method          .... DFT(GTOs)
  Functional kind                       .... Exchange
  Functional name                       .... Re-regularized SCAN exchange by Furness et al
  Functional family                     .... MGGA
  Functional refs                              
    [ 0] J. W. Furness, A. D. Kaplan, J. Ning, J. P. Perdew, and J. Sun.,  J. Phys. Chem. Lett. 11, 8208-8215 (2020), doi: 10.1021/acs.jpclett.0c02405
    [ 1] J. W. Furness, A. D. Kaplan, J. Ning, J. P. Perdew, and J. Sun.,  J. Phys. Chem. Lett. 11, 9248-9248 (2020), doi: 10.1021/acs.jpclett.0c03077
  Functional external parameters        .... 6
    Parameter  0 _c1        =  6.670000e-01 : c1 parameter        
    Parameter  1 _c2        =  8.000000e-01 : c2 parameter        
    Parameter  2 _d         =  1.240000e+00 : d parameter         
    Parameter  3 _k1        =  6.500000e-02 : k1 parameter        
    Parameter  4 _eta       =  1.000000e-03 : eta parameter       
    Parameter  5 _dp2       =  3.610000e-01 : dp2 parameter       
  Functional kind                       .... Correlation
  Functional name                       .... Re-regularized SCAN correlation by Furness et al
  Functional family                     .... MGGA
  Functional refs                              
    [ 0] J. W. Furness, A. D. Kaplan, J. Ning, J. P. Perdew, and J. Sun.,  J. Phys. Chem. Lett. 11, 8208-8215 (2020), doi: 10.1021/acs.jpclett.0c02405
    [ 1] J. W. Furness, A. D. Kaplan, J. Ning, J. P. Perdew, and J. Sun.,  J. Phys. Chem. Lett. 11, 9248-9248 (2020), doi: 10.1021/acs.jpclett.0c03077
  Functional external parameters        .... 1
    Parameter  0 _eta       =  1.000000e-03 : Regularization parameter
 Gradients option       PostSCFGGA      .... off
   NL short-range parameter             .... 12.300000
 RI-approximation to the Coulomb term is turned on
   Number of AuxJ basis functions       .... 531


General Settings:
 Integral files         IntName         .... cs_rporg_078_red_freq_06
 Hartree-Fock type      HFTyp           .... RHF
 Total Charge           Charge          ....    0
 Multiplicity           Mult            ....    1
 Number of Electrons    NEL             ....   74
 Basis Dimension        Dim             ....  602
 Nuclear Repulsion      ENuc            ....    482.5188275046 Eh

Convergence Acceleration:
 AO-DIIS                CNVDIIS         .... on
   Start iteration      DIISMaxIt       ....     0
   Startup error        DIISStart       ....  0.200000
   # of expansion vecs  DIISMaxEq       ....     5
   Bias factor          DIISBfac        ....   1.050
   Max. coefficient     DIISMaxC        ....  10.000
 MO-DIIS                CNVKDIIS        .... off
 Trust-Rad. Augm. Hess. CNVTRAH         .... auto
   Auto Start mean grad. ratio tolernc. ....  1.125000
   Auto Start start iteration           ....    50
   Auto Start num. interpolation iter.  ....    10
   Max. Number of Micro iterations      ....    24
   Max. Number of Macro iterations      .... Maxiter - #DIIS iter
   Number of Davidson start vectors     ....     2
   Converg. threshold    (grad. norm)   ....   1.000e-05
   Grad. Scal. Fac. for Micro threshold ....   0.100
   Minimum threshold for Micro iter.    ....   1.000e-02
   NR start threshold (gradient norm)   ....   1.000e-04
   Initial trust radius                 ....   0.400
   Minimum AH scaling param. (alpha)    ....   1.000
   Maximum AH scaling param. (alpha)    .... 1000.000
   Quad. conv. algorithm                .... NR
   White noise on init. David. guess    .... on
   Maximum white noise                  ....   0.010
   Pseudo random numbers                .... off
   Inactive MOs                         .... canonical
   Orbital update algorithm             .... Taylor
   Preconditioner                       .... Diag
   Full preconditioner red. dimension   ....   250
 SOSCF                  CNVSOSCF        .... on
   Start iteration      SOSCFMaxIt      ....   150
   Startup grad/error   SOSCFStart      ....  0.001000
   Hessian update       SOSCFHessUp     .... L-BFGS
 Level Shifting         CNVShift        .... on
   Level shift para.    LevelShift      ....    0.2500
   Turn off err/grad.   ShiftErr        ....    0.0000
 Zerner damping         CNVZerner       .... off
 Static damping         CNVDamp         .... on
   Fraction old density DampFac         ....    0.8500
   Max. Damping (<1)    DampMax         ....    0.9800
   Min. Damping (>=0)   DampMin         ....    0.0000
   Turn off err/grad.   DampErr         ....    0.0300

SCF Procedure:
 Maximum # iterations   MaxIter         ....  1500
 SCF integral mode      SCFMode         .... Direct
   Integral package                     .... SHARK and LIBINT hybrid scheme
 Reset frequency        DirectResetFreq ....    20
 Integral Threshold     Thresh          ....  1.000e-12 Eh
 Primitive CutOff       TCut            ....  1.000e-13 Eh

Convergence Tolerance:
 Convergence Check Mode ConvCheckMode   .... Total+1el-Energy
 Convergence forced     ConvForced      .... 0
 Energy Change          TolE            ....  1.000e-08 Eh
 1-El. energy change                    ....  1.000e-05 Eh
 Orbital Gradient       TolG            ....  1.000e-05
 Orbital Rotation angle TolX            ....  1.000e-05
 DIIS Error             TolErr          ....  5.000e-07

------------------------------
INITIAL GUESS: MODEL POTENTIAL
------------------------------
Loading Hartree-Fock densities                     ... done
Calculating cut-offs                               ... done
Initializing the effective Hamiltonian             ... done
Setting up the integral package (SHARK)            ... done
Starting the Coulomb interaction                   ... done (   0.3 sec)
Making the grid                                    ... done (   0.3 sec)
Mapping shells                                     ... done
Starting the XC term evaluation                    ... done (   0.3 sec)
  promolecular density results
     # of electrons  =     73.996020336
     EX              =    -71.221403437
     EC              =     -2.547987173
     EX+EC           =    -73.769390610
Transforming the Hamiltonian                       ... done (   0.1 sec)
Diagonalizing the Hamiltonian                      ... done (   0.1 sec)
Back transforming the eigenvectors                 ... done (   0.1 sec)
Now organizing SCF variables                       ... done
                      ------------------
                      INITIAL GUESS DONE (   1.6 sec)
                      ------------------
             **** ENERGY FILE WAS UPDATED (cs_rporg_078_red_freq_06.en.tmp) ****
Finished Guess after   3.5 sec
Maximum memory used throughout the entire GUESS-calculation: 43.7 MB


           ************************************************************
           *        Program running with 12 parallel MPI-processes    *
           *              working on a common directory               *
           ************************************************************

-------------------------------------------------------------------------------------------
                                      ORCA LEAN-SCF
                              memory conserving SCF solver
-------------------------------------------------------------------------------------------

--------------------
CPCM SOLVATION MODEL
--------------------
CPCM parameters:
  Epsilon                                         ...      35.6880
  Refrac                                          ...       1.3442
  Rsolv                                           ...       2.1900
  Surface type                                    ...    GEPOL SES
  Discretization scheme                           ... Constant num. charges
  Epsilon function type                           ...         CPCM
Solvent:                                          ... ACETONITRILE
SMD-CDS solvent descriptors:
  Soln                                            ...       1.3442
  Soln25                                          ...       1.3416
  Sola                                            ...       0.0700
  Solb                                            ...       0.3200
  Solg                                            ...      41.2500
  Solc                                            ...       0.0000
  Solh                                            ...       0.0000
Radii:
  Scheme                                          ... Element-dependent radii
  Radius for C  used is    3.4960 Bohr (=   1.8500 Ang.)
  Radius for H  used is    2.2677 Bohr (=   1.2000 Ang.)
  Radius for O  used is    4.0969 Bohr (=   2.1680 Ang.)
  Radius for S  used is    4.7054 Bohr (=   2.4900 Ang.)
Calculating surface                               ...        done! (  0.0s)
Cavity surface points                             ...          528
Cavity Volume                                     ...    1203.2887
Cavity Surface-area                               ...     655.3644
Calculating surface distance matrix               ...        done! (  0.0s)
Performing Cholesky decomposition & store         ...        done! (  0.0s)
Overall time for CPCM initialization              ...                 0.1s

----------------------------------------D-I-I-S--------------------------------------------
Iteration    Energy (Eh)           Delta-E    RMSDP     MaxDP     DIISErr   Damp  Time(sec)
-------------------------------------------------------------------------------------------
               ***  Starting incremental Fock matrix formation  ***
    1    -744.7200329150173275     0.00e+00  9.19e-04  4.83e-02  1.62e-01  0.850   5.4
    2    -744.7644232162881508    -4.44e-02  8.81e-04  4.24e-02  1.19e-01  0.850   5.7
                               ***Turning on AO-DIIS***
    3    -744.7945182089833907    -3.01e-02  6.64e-04  3.23e-02  8.15e-02  0.850   5.0
    4    -744.8140380452678073    -1.95e-02  5.41e-04  2.61e-02  6.60e-02  0.850   5.5
    5    -744.8281324851820955    -1.41e-02  4.52e-04  2.16e-02  5.54e-02  0.850   4.9
    6    -744.8391447701806101    -1.10e-02  3.81e-04  1.80e-02  4.66e-02  0.850   4.9
    7    -744.8481170393206412    -8.97e-03  3.23e-04  1.50e-02  3.89e-02  0.850   5.8
    8    -744.8555238762119188    -7.41e-03  2.73e-04  1.26e-02  3.24e-02  0.850   6.0
    9    -744.8616273385496243    -6.10e-03  2.31e-04  1.06e-02  2.73e-02  0.850   4.8
   10    -744.8666660623357529    -5.04e-03  1.31e-03  5.97e-02  2.30e-02  0.000   4.7
   11    -744.8929462675209834    -2.63e-02  3.96e-05  2.75e-03  1.73e-03  0.000   5.2
                              *** Initializing SOSCF ***
---------------------------------------S-O-S-C-F--------------------------------------
Iteration    Energy (Eh)           Delta-E    RMSDP     MaxDP     MaxGrad    Time(sec)
--------------------------------------------------------------------------------------
   12    -744.8929667180043452    -2.05e-05  1.75e-05  1.19e-03  7.89e-04     5.5
               *** Restarting incremental Fock matrix formation ***
   13    -744.8929692400356544    -2.52e-06  1.05e-05  8.27e-04  4.20e-05     4.7
   14    -744.8929691039008958     1.36e-07  3.29e-06  2.05e-04  1.07e-04     4.9
   15    -744.8929693585487257    -2.55e-07  2.13e-06  1.32e-04  9.60e-06     4.4
   16    -744.8929693696106824    -1.11e-08  5.56e-07  3.61e-05  9.35e-06     4.0
   17    -744.8929693778068213    -8.20e-09  7.94e-07  4.22e-05  4.10e-06     3.9
                 **** Energy Check signals convergence ****

               *****************************************************
               *                     SUCCESS                       *
               *           SCF CONVERGED AFTER  17 CYCLES          *
               *****************************************************


SMD CDS free energy correction energy :                -1.74560     Kcal/mol
Total Energy after SMD CDS correction =              -744.895751175 Eh
             **** ENERGY FILE WAS UPDATED (cs_rporg_078_red_freq_06.en.tmp) ****

----------------
TOTAL SCF ENERGY
----------------

Total Energy       :       -744.89575117467916 Eh          -20269.64388 eV

Components:
Nuclear Repulsion  :        482.51882750455025 Eh           13130.00481 eV
Electronic Energy  :      -1227.39970813643845 Eh          -33399.24404 eV
One Electron Energy:      -1976.82307361001517 Eh          -53792.09057 eV
Two Electron Energy:        749.42336547357672 Eh           20392.84653 eV
CPCM Dielectric    :         -0.01208874591854 Eh              -0.32895 eV
SMD CDS (Gcds)     :         -0.00278179687231 Eh              -0.07570 eV

Virial components:
Potential Energy   :      -1486.86090416268280 Eh          -40459.54213 eV
Kinetic Energy     :        741.96515298800364 Eh           20189.89825 eV
Virial Ratio       :          2.00394977873944

DFT components:
N(Alpha)           :       37.000001804450 electrons
N(Beta)            :       37.000001804450 electrons
N(Total)           :       74.000003608900 electrons
E(X)               :      -72.587458603377 Eh       
E(C)               :       -2.489733939809 Eh       
E(XC)              :      -75.077192543185 Eh       

CPCM Solvation Model Properties:
Surface-charge          :         -0.03039753887803
Corrected charge        :          0.00000000000000
Outlying charge corr.   :          0.00006293662842 Eh               0.00171 eV
Free-energy (cav+disp)  :         -0.00278179687231 Eh              -0.07570 eV

---------------
SCF CONVERGENCE
---------------

  Last Energy change         ...    8.1961e-09  Tolerance :   1.0000e-08
  Last MAX-Density change    ...    4.2165e-05  Tolerance :   1.0000e-07
  Last RMS-Density change    ...    7.9374e-07  Tolerance :   5.0000e-09
  Last DIIS Error            ...    7.8946e-04  Tolerance :   5.0000e-07
  Last Orbital Gradient      ...    4.1021e-06  Tolerance :   1.0000e-05
  Last Orbital Rotation      ...    6.9748e-06  Tolerance :   1.0000e-05


----------------
ORBITAL ENERGIES
----------------

  NO   OCC          E(Eh)            E(eV) 
   0   2.0000     -88.570214     -2410.1180 
   1   2.0000     -18.990073      -516.7462 
   2   2.0000     -10.098498      -274.7941 
   3   2.0000     -10.075332      -274.1637 
   4   2.0000     -10.074747      -274.1478 
   5   2.0000     -10.045736      -273.3584 
   6   2.0000     -10.045071      -273.3403 
   7   2.0000     -10.039962      -273.2013 
   8   2.0000     -10.039093      -273.1776 
   9   2.0000      -7.863907      -213.9878 
  10   2.0000      -5.810353      -158.1077 
  11   2.0000      -5.806449      -158.0015 
  12   2.0000      -5.801937      -157.8787 
  13   2.0000      -1.031341       -28.0642 
  14   2.0000      -0.833408       -22.6782 
  15   2.0000      -0.754255       -20.5243 
  16   2.0000      -0.723943       -19.6995 
  17   2.0000      -0.688989       -18.7483 
  18   2.0000      -0.643563       -17.5123 
  19   2.0000      -0.585238       -15.9251 
  20   2.0000      -0.553364       -15.0578 
  21   2.0000      -0.501463       -13.6455 
  22   2.0000      -0.462393       -12.5824 
  23   2.0000      -0.438593       -11.9347 
  24   2.0000      -0.431344       -11.7375 
  25   2.0000      -0.415208       -11.2984 
  26   2.0000      -0.394996       -10.7484 
  27   2.0000      -0.386113       -10.5067 
  28   2.0000      -0.363472        -9.8906 
  29   2.0000      -0.361230        -9.8296 
  30   2.0000      -0.329959        -8.9786 
  31   2.0000      -0.315473        -8.5845 
  32   2.0000      -0.312604        -8.5064 
  33   2.0000      -0.296700        -8.0736 
  34   2.0000      -0.251875        -6.8539 
  35   2.0000      -0.244983        -6.6663 
  36   2.0000      -0.187090        -5.0910 
  37   0.0000      -0.043684        -1.1887 
  38   0.0000      -0.025029        -0.6811 
  39   0.0000      -0.010440        -0.2841 
  40   0.0000       0.010039         0.2732 
  41   0.0000       0.015474         0.4211 
  42   0.0000       0.023374         0.6360 
  43   0.0000       0.032738         0.8909 
  44   0.0000       0.036399         0.9905 
  45   0.0000       0.039692         1.0801 
  46   0.0000       0.046169         1.2563 
  47   0.0000       0.056180         1.5287 
*Only the first 10 virtual orbitals were printed.

                    ********************************
                    * MULLIKEN POPULATION ANALYSIS *
                    ********************************

-----------------------
MULLIKEN ATOMIC CHARGES
-----------------------
   0 C :    0.958488
   1 C :   -0.715487
   2 C :   -0.905133
   3 C :    1.189376
   4 C :   -0.260959
   5 C :   -0.976867
   6 H :    0.387838
   7 H :    0.434822
   8 O :   -0.666652
   9 C :   -0.646170
  10 H :    0.241532
  11 H :    0.257315
  12 H :    0.256637
  13 H :    0.511792
  14 H :    0.262565
  15 S :   -0.454806
  16 H :    0.125709
Sum of atomic charges:   -0.0000000

--------------------------------
MULLIKEN REDUCED ORBITAL CHARGES
--------------------------------
  0 C s       :     3.031931  s :     3.031931
      pz      :     1.016574  p :     2.051390
      px      :     0.370705
      py      :     0.664111
      dz2     :    -0.014797  d :    -0.006709
      dxz     :    -0.038785
      dyz     :     0.013907
      dx2y2   :     0.062932
      dxy     :    -0.029966
      f0      :     0.002931  f :    -0.035100
      f+1     :    -0.000896
      f-1     :    -0.000161
      f+2     :     0.003780
      f-2     :    -0.002642
      f+3     :    -0.005209
      f-3     :    -0.032903

  1 C s       :     3.908765  s :     3.908765
      pz      :     0.984923  p :     2.754972
      px      :     0.933563
      py      :     0.836487
      dz2     :    -0.008654  d :     0.062823
      dxz     :     0.031773
      dyz     :     0.003558
      dx2y2   :    -0.023931
      dxy     :     0.060076
      f0      :     0.000568  f :    -0.011072
      f+1     :     0.000594
      f-1     :     0.000506
      f+2     :     0.000144
      f-2     :     0.001215
      f+3     :     0.000602
      f-3     :    -0.014701

  2 C s       :     3.987306  s :     3.987306
      pz      :     0.989757  p :     2.808522
      px      :     0.816304
      py      :     1.002461
      dz2     :     0.005485  d :     0.134315
      dxz     :     0.033124
      dyz     :     0.013714
      dx2y2   :    -0.005327
      dxy     :     0.087319
      f0      :    -0.000376  f :    -0.025010
      f+1     :    -0.000744
      f-1     :     0.000488
      f+2     :     0.000667
      f-2     :    -0.000823
      f+3     :    -0.002385
      f-3     :    -0.021837

  3 C s       :     2.989633  s :     2.989633
      pz      :     0.940561  p :     2.062732
      px      :     0.288386
      py      :     0.833784
      dz2     :    -0.020668  d :    -0.232946
      dxz     :     0.035338
      dyz     :    -0.002472
      dx2y2   :    -0.130063
      dxy     :    -0.115081
      f0      :     0.002306  f :    -0.008794
      f+1     :    -0.000380
      f-1     :     0.001294
      f+2     :     0.008796
      f-2     :     0.003661
      f+3     :     0.001524
      f-3     :    -0.025997

  4 C s       :     3.855172  s :     3.855172
      pz      :     0.982580  p :     2.273628
      px      :     0.460016
      py      :     0.831032
      dz2     :    -0.003280  d :     0.158277
      dxz     :    -0.001691
      dyz     :     0.001140
      dx2y2   :     0.025451
      dxy     :     0.136657
      f0      :    -0.000416  f :    -0.026118
      f+1     :    -0.000444
      f-1     :    -0.000455
      f+2     :     0.000427
      f-2     :    -0.001447
      f+3     :     0.002581
      f-3     :    -0.026363

  5 C s       :     4.125502  s :     4.125502
      pz      :     1.004578  p :     2.837032
      px      :     0.929528
      py      :     0.902927
      dz2     :    -0.011130  d :     0.026951
      dxz     :     0.014982
      dyz     :     0.006386
      dx2y2   :     0.000032
      dxy     :     0.016682
      f0      :     0.000895  f :    -0.012619
      f+1     :     0.000716
      f-1     :     0.000294
      f+2     :     0.000552
      f-2     :     0.000589
      f+3     :    -0.002137
      f-3     :    -0.013529

  6 H s       :     0.589505  s :     0.589505
      pz      :     0.017622  p :     0.014807
      px      :     0.009239
      py      :    -0.012054
      dz2     :     0.000033  d :     0.007849
      dxz     :     0.000601
      dyz     :     0.005126
      dx2y2   :     0.000175
      dxy     :     0.001914

  7 H s       :     0.620361  s :     0.620361
      pz      :     0.014444  p :    -0.062413
      px      :    -0.023925
      py      :    -0.052931
      dz2     :     0.000308  d :     0.007230
      dxz     :     0.001458
      dyz     :     0.003111
      dx2y2   :     0.001510
      dxy     :     0.000844

  8 O s       :     4.157964  s :     4.157964
      pz      :     1.775544  p :     4.430431
      px      :     1.178856
      py      :     1.476032
      dz2     :     0.001212  d :     0.071846
      dxz     :     0.022284
      dyz     :     0.006284
      dx2y2   :     0.018013
      dxy     :     0.024053
      f0      :     0.000733  f :     0.006411
      f+1     :     0.000113
      f-1     :     0.000125
      f+2     :     0.001041
      f-2     :     0.000848
      f+3     :     0.001327
      f-3     :     0.002223

  9 C s       :     3.544543  s :     3.544543
      pz      :     1.113487  p :     2.917972
      px      :     0.949318
      py      :     0.855167
      dz2     :     0.015156  d :     0.159286
      dxz     :     0.004987
      dyz     :     0.075717
      dx2y2   :     0.044054
      dxy     :     0.019371
      f0      :     0.002585  f :     0.024369
      f+1     :     0.000998
      f-1     :     0.002919
      f+2     :     0.000718
      f-2     :     0.005486
      f+3     :     0.000334
      f-3     :     0.011329

 10 H s       :     0.717436  s :     0.717436
      pz      :     0.018672  p :     0.039382
      px      :     0.015074
      py      :     0.005636
      dz2     :    -0.000871  d :     0.001651
      dxz     :     0.001573
      dyz     :     0.001645
      dx2y2   :     0.000773
      dxy     :    -0.001469

 11 H s       :     0.709068  s :     0.709068
      pz      :     0.010673  p :     0.029173
      px      :     0.008024
      py      :     0.010477
      dz2     :     0.002357  d :     0.004443
      dxz     :     0.001150
      dyz     :     0.000819
      dx2y2   :    -0.000142
      dxy     :     0.000259

 12 H s       :     0.709275  s :     0.709275
      pz      :     0.011548  p :     0.029646
      px      :     0.007504
      py      :     0.010594
      dz2     :     0.002573  d :     0.004442
      dxz     :     0.000879
      dyz     :     0.000623
      dx2y2   :    -0.000076
      dxy     :     0.000442

 13 H s       :     0.510746  s :     0.510746
      pz      :     0.020182  p :    -0.028932
      px      :    -0.014419
      py      :    -0.034696
      dz2     :    -0.000012  d :     0.006394
      dxz     :     0.000990
      dyz     :     0.004426
      dx2y2   :     0.000626
      dxy     :     0.000364

 14 H s       :     0.729066  s :     0.729066
      pz      :     0.017894  p :     0.000476
      px      :    -0.008373
      py      :    -0.009045
      dz2     :    -0.000385  d :     0.007893
      dxz     :     0.001407
      dyz     :     0.004377
      dx2y2   :     0.001296
      dxy     :     0.001197

 15 S s       :     6.044390  s :     6.044390
      pz      :     3.905427  p :    10.312743
      px      :     3.070949
      py      :     3.336367
      dz2     :     0.013660  d :     0.088378
      dxz     :     0.028177
      dyz     :     0.002713
      dx2y2   :     0.039283
      dxy     :     0.004545
      f0      :     0.001914  f :     0.009294
      f+1     :     0.001492
      f-1     :     0.000874
      f+2     :     0.001649
      f-2     :     0.000057
      f+3     :     0.000956
      f-3     :     0.002352

 16 H s       :     0.796293  s :     0.796293
      pz      :     0.027753  p :     0.064296
      px      :     0.007975
      py      :     0.028567
      dz2     :     0.000852  d :     0.013703
      dxz     :     0.001154
      dyz     :     0.005811
      dx2y2   :     0.002448
      dxy     :     0.003438



                     *******************************
                     * LOEWDIN POPULATION ANALYSIS *
                     *******************************

----------------------
LOEWDIN ATOMIC CHARGES
----------------------
   0 C :   -0.593069
   1 C :    0.113360
   2 C :    0.192511
   3 C :   -0.409004
   4 C :    0.194093
   5 C :    0.098131
   6 H :   -0.193239
   7 H :   -0.199084
   8 O :    0.592877
   9 C :    0.357840
  10 H :   -0.179146
  11 H :   -0.171624
  12 H :   -0.171091
  13 H :   -0.177496
  14 H :   -0.194850
  15 S :    1.301501
  16 H :   -0.561712

-------------------------------
LOEWDIN REDUCED ORBITAL CHARGES
-------------------------------
  0 C s       :     2.520133  s :     2.520133
      pz      :     0.690323  p :     2.413900
      px      :     0.813648
      py      :     0.909929
      dz2     :     0.101673  d :     1.113209
      dxz     :     0.220406
      dyz     :     0.128558
      dx2y2   :     0.364222
      dxy     :     0.298351
      f0      :     0.036582  f :     0.545826
      f+1     :     0.037524
      f-1     :     0.034210
      f+2     :     0.076728
      f-2     :     0.061281
      f+3     :     0.087026
      f-3     :     0.212475

  1 C s       :     2.491668  s :     2.491668
      pz      :     0.617101  p :     2.303421
      px      :     0.851570
      py      :     0.834750
      dz2     :     0.072786  d :     0.738471
      dxz     :     0.111303
      dyz     :     0.076115
      dx2y2   :     0.203038
      dxy     :     0.275229
      f0      :     0.021370  f :     0.353081
      f+1     :     0.028332
      f-1     :     0.024262
      f+2     :     0.059864
      f-2     :     0.023644
      f+3     :     0.067513
      f-3     :     0.128095

  2 C s       :     2.488939  s :     2.488939
      pz      :     0.621408  p :     2.290863
      px      :     0.842916
      py      :     0.826539
      dz2     :     0.068742  d :     0.678344
      dxz     :     0.115960
      dyz     :     0.054497
      dx2y2   :     0.210223
      dxy     :     0.228923
      f0      :     0.021571  f :     0.349343
      f+1     :     0.031140
      f-1     :     0.022395
      f+2     :     0.044664
      f-2     :     0.037014
      f+3     :     0.069935
      f-3     :     0.122623

  3 C s       :     2.462432  s :     2.462432
      pz      :     0.624713  p :     2.222967
      px      :     0.723217
      py      :     0.875037
      dz2     :     0.101390  d :     1.079392
      dxz     :     0.192544
      dyz     :     0.131857
      dx2y2   :     0.335848
      dxy     :     0.317754
      f0      :     0.037843  f :     0.644213
      f+1     :     0.049339
      f-1     :     0.035932
      f+2     :     0.090542
      f-2     :     0.072117
      f+3     :     0.110982
      f-3     :     0.247457

  4 C s       :     2.478359  s :     2.478359
      pz      :     0.627391  p :     2.291296
      px      :     0.834286
      py      :     0.829620
      dz2     :     0.070329  d :     0.691705
      dxz     :     0.105275
      dyz     :     0.068492
      dx2y2   :     0.200146
      dxy     :     0.247463
      f0      :     0.021168  f :     0.344546
      f+1     :     0.028299
      f-1     :     0.024266
      f+2     :     0.059036
      f-2     :     0.022615
      f+3     :     0.067505
      f-3     :     0.121656

  5 C s       :     2.492548  s :     2.492548
      pz      :     0.617343  p :     2.308034
      px      :     0.856304
      py      :     0.834387
      dz2     :     0.071689  d :     0.743972
      dxz     :     0.134567
      dyz     :     0.058218
      dx2y2   :     0.238140
      dxy     :     0.241359
      f0      :     0.021951  f :     0.357314
      f+1     :     0.030350
      f-1     :     0.022483
      f+2     :     0.044585
      f-2     :     0.039656
      f+3     :     0.070501
      f-3     :     0.127789

  6 H s       :     0.659648  s :     0.659648
      pz      :     0.082461  p :     0.312309
      px      :     0.095585
      py      :     0.134263
      dz2     :     0.023923  d :     0.221281
      dxz     :     0.014407
      dyz     :     0.052025
      dx2y2   :     0.066763
      dxy     :     0.064163

  7 H s       :     0.635002  s :     0.635002
      pz      :     0.088567  p :     0.328877
      px      :     0.121309
      py      :     0.119001
      dz2     :     0.024668  d :     0.235205
      dxz     :     0.025919
      dyz     :     0.044148
      dx2y2   :     0.086144
      dxy     :     0.054326

  8 O s       :     2.991372  s :     2.991372
      pz      :     1.376187  p :     3.837169
      px      :     1.174613
      py      :     1.286369
      dz2     :     0.040642  d :     0.454726
      dxz     :     0.084718
      dyz     :     0.053783
      dx2y2   :     0.140779
      dxy     :     0.134804
      f0      :     0.012658  f :     0.123856
      f+1     :     0.010571
      f-1     :     0.004550
      f+2     :     0.014752
      f-2     :     0.014305
      f+3     :     0.025950
      f-3     :     0.041069

  9 C s       :     2.463281  s :     2.463281
      pz      :     0.807583  p :     2.213797
      px      :     0.725655
      py      :     0.680559
      dz2     :     0.097071  d :     0.657201
      dxz     :     0.043565
      dyz     :     0.193691
      dx2y2   :     0.176355
      dxy     :     0.146519
      f0      :     0.034693  f :     0.307880
      f+1     :     0.023489
      f-1     :     0.036533
      f+2     :     0.011492
      f-2     :     0.058804
      f+3     :     0.060025
      f-3     :     0.082845

 10 H s       :     0.650781  s :     0.650781
      pz      :     0.092161  p :     0.303162
      px      :     0.129563
      py      :     0.081439
      dz2     :     0.017100  d :     0.225202
      dxz     :     0.065235
      dyz     :     0.028346
      dx2y2   :     0.042858
      dxy     :     0.071663

 11 H s       :     0.635353  s :     0.635353
      pz      :     0.134985  p :     0.311697
      px      :     0.087171
      py      :     0.089541
      dz2     :     0.077445  d :     0.224573
      dxz     :     0.041888
      dyz     :     0.047960
      dx2y2   :     0.021944
      dxy     :     0.035337

 12 H s       :     0.635559  s :     0.635559
      pz      :     0.131101  p :     0.311319
      px      :     0.089179
      py      :     0.091039
      dz2     :     0.078417  d :     0.224213
      dxz     :     0.037769
      dyz     :     0.045071
      dx2y2   :     0.024334
      dxy     :     0.038621

 13 H s       :     0.656630  s :     0.656630
      pz      :     0.082795  p :     0.302301
      px      :     0.090861
      py      :     0.128645
      dz2     :     0.023209  d :     0.218566
      dxz     :     0.015792
      dyz     :     0.050246
      dx2y2   :     0.067562
      dxy     :     0.061757

 14 H s       :     0.655164  s :     0.655164
      pz      :     0.082204  p :     0.314466
      px      :     0.107970
      py      :     0.124291
      dz2     :     0.024833  d :     0.225220
      dxz     :     0.024312
      dyz     :     0.042160
      dx2y2   :     0.080710
      dxy     :     0.053204

 15 S s       :     4.963050  s :     4.963050
      pz      :     3.300454  p :     9.230873
      px      :     2.885511
      py      :     3.044907
      dz2     :     0.044888  d :     0.358803
      dxz     :     0.088529
      dyz     :     0.006467
      dx2y2   :     0.107209
      dxy     :     0.111710
      f0      :     0.014061  f :     0.145773
      f+1     :     0.016894
      f-1     :     0.007238
      f+2     :     0.021449
      f-2     :     0.003643
      f+3     :     0.032531
      f-3     :     0.049957

 16 H s       :     0.739732  s :     0.739732
      pz      :     0.161181  p :     0.500455
      px      :     0.097623
      py      :     0.241651
      dz2     :     0.027777  d :     0.321525
      dxz     :     0.007235
      dyz     :     0.115248
      dx2y2   :     0.091171
      dxy     :     0.080095



                      *****************************
                      * MAYER POPULATION ANALYSIS *
                      *****************************

  NA   - Mulliken gross atomic population
  ZA   - Total nuclear charge
  QA   - Mulliken gross atomic charge
  VA   - Mayer's total valence
  BVA  - Mayer's bonded valence
  FA   - Mayer's free valence

  ATOM       NA         ZA         QA         VA         BVA        FA
  0 C      5.0415     6.0000     0.9585     2.1170     2.1170    -0.0000
  1 C      6.7155     6.0000    -0.7155     2.7036     2.7036    -0.0000
  2 C      6.9051     6.0000    -0.9051     2.7165     2.7165    -0.0000
  3 C      4.8106     6.0000     1.1894     1.6101     1.6101     0.0000
  4 C      6.2610     6.0000    -0.2610     2.0929     2.0929     0.0000
  5 C      6.9769     6.0000    -0.9769     2.4210     2.4210    -0.0000
  6 H      0.6122     1.0000     0.3878     0.7540     0.7540    -0.0000
  7 H      0.5652     1.0000     0.4348     0.4689     0.4689     0.0000
  8 O      8.6667     8.0000    -0.6667     1.5888     1.5888    -0.0000
  9 C      6.6462     6.0000    -0.6462     3.7263     3.7263    -0.0000
 10 H      0.7585     1.0000     0.2415     0.9903     0.9903    -0.0000
 11 H      0.7427     1.0000     0.2573     0.9436     0.9436    -0.0000
 12 H      0.7434     1.0000     0.2566     0.9453     0.9453     0.0000
 13 H      0.4882     1.0000     0.5118     0.4828     0.4828     0.0000
 14 H      0.7374     1.0000     0.2626     0.9199     0.9199    -0.0000
 15 S     16.4548    16.0000    -0.4548     1.6715     1.6715    -0.0000
 16 H      0.8743     1.0000     0.1257     1.0688     1.0688    -0.0000

  Mayer bond orders larger than 0.100000
B(  0-C ,  1-C ) :   0.8723 B(  0-C ,  5-C ) :   1.0200 B(  0-C , 15-S ) :   0.2517 
B(  1-C ,  2-C ) :   1.1901 B(  1-C ,  3-C ) :  -0.3289 B(  1-C , 14-H ) :   0.7984 
B(  2-C ,  3-C ) :   0.6108 B(  2-C ,  4-C ) :   0.2225 B(  2-C ,  8-O ) :   0.3012 
B(  2-C , 13-H ) :   0.3885 B(  3-C ,  4-C ) :   0.8815 B(  3-C ,  5-C ) :  -0.2961 
B(  3-C ,  7-H ) :   0.1138 B(  3-C ,  8-O ) :   0.3403 B(  4-C ,  5-C ) :   0.8114 
B(  4-C ,  7-H ) :   0.3973 B(  4-C ,  8-O ) :  -0.1186 B(  4-C ,  9-C ) :  -0.1187 
B(  5-C ,  6-H ) :   0.6964 B(  5-C , 15-S ) :   0.1505 B(  8-O ,  9-C ) :   0.9926 
B(  9-C , 10-H ) :   0.9788 B(  9-C , 11-H ) :   0.9172 B(  9-C , 12-H ) :   0.9178 
B( 15-S , 16-H ) :   1.0667 

-------
TIMINGS
-------

Total SCF time: 0 days 0 hours 1 min 28 sec 

Total time                  ....      88.044 sec
Sum of individual times     ....      86.737 sec  ( 98.5%)

SCF preparation             ....       1.122 sec  (  1.3%)
Fock matrix formation       ....      62.967 sec  ( 71.5%)
  Startup                   ....       3.199 sec  (  5.1% of F)
  Split-RI-J                ....      12.688 sec  ( 20.2% of F)
  XC integration            ....      38.126 sec  ( 60.5% of F)
    XC Preparation          ....       0.000 sec  (  0.0% of XC)
    Basis function eval.    ....       3.024 sec  (  7.9% of XC)
    Density eval.           ....      12.432 sec  ( 32.6% of XC)
    XC-Functional eval.     ....       0.517 sec  (  1.4% of XC)
    XC-Potential eval.      ....      16.141 sec  ( 42.3% of XC)
  CPCM terms                ....       4.260 sec  (  6.8% of F)
Diagonalization             ....       0.000 sec  (  0.0%)
Density matrix formation    ....       6.378 sec  (  7.2%)
Total Energy calculation    ....       2.804 sec  (  3.2%)
Population analysis         ....       0.661 sec  (  0.8%)
Orbital Transformation      ....       0.891 sec  (  1.0%)
Orbital Orthonormalization  ....       0.000 sec  (  0.0%)
DIIS solution               ....       9.684 sec  ( 11.0%)
SOSCF solution              ....       2.230 sec  (  2.5%)
Finished LeanSCF after  88.4 sec

Maximum memory used throughout the entire LEANSCF-calculation: 60.0 MB


           ************************************************************
           *        Program running with 12 parallel MPI-processes    *
           *              working on a common directory               *
           ************************************************************

------------------------------------------------------------------------------
                         ORCA PROPERTY INTEGRAL CALCULATIONS
------------------------------------------------------------------------------

GBWName                                   ... cs_rporg_078_red_freq_06.gbw
Number of atoms                           ...     17
Number of basis functions                 ...    675
Max core memory                           ...   5000 MB

Dipole integrals                          ... YES
Quadrupole integrals                      ...  NO
Linear momentum integrals                 ...  NO
Angular momentum integrals                ...  NO
Higher moments length integrals           ...  NO
Higher moments velocity integrals         ...  NO
Kinetic energy integrals                  ...  NO
GIAO right hand sides                     ...  NO
GIAO dipole derivative integrals          ...  NO
SOC integrals                             ...  NO
EPR diamagnetic integrals (GIAO)          ...  NO
EPR gauge integrals                       ...  NO
Field gradient integrals                  ...  NO (   0 nuclei)
Spin-dipole/Fermi contact integrals       ...  NO (   0 nuclei)
Contact density integrals                 ...  NO (   0 nuclei)
Nucleus-orbit integrals                   ...  NO (   0 nuclei)
Geometric perturbations                   ... YES (  17 nuclei)

Choice of electric origin   ... Center of mass
Position of electric origin ... ( -0.0091,  0.0017, -0.2389) 
Choice of magnetic origin   ... GIAO
Position of magnetic origin ... (  0.0000,  0.0000,  0.0000) 

Calculating integrals                     ... Electric Dipole (Length)     done (  0.1 sec)
Calculating integrals                     ... Geometrical perturbation right hand sides

-----------------------
GEOMETRIC PERTURBATIONS (17 nuclei)
-----------------------

MaxCore                            ...   5000 MB
Number of batches                  ...      1

BATCH   0: Atoms    0 -   16 ( 51 perturbations)
   => H(core) and overlap derivative integrals     ... done (     1.2 sec)
   => Making and storing internal U-coefficients   ... done (     0.2 sec)
   => RI-J derivative integrals                    ... done (    11.4 sec)
   => RI-J response operators                      ... done (     2.6 sec)
   => XC derivative integrals                      ... done (   362.4 sec)
   => XC response operators                        ... done (    94.7 sec)
   => CPCM derivative integrals                    ... done (     7.4 sec)
   => CPCM response operators                      ... done (    12.5 sec)
   => Completing and storing right hand sides      ... done (     0.1 sec)
   => Total time for right hand sides = 490.3 sec

  geometrical perturbations done (490.5 sec)

Property integrals calculated in 490.7 sec

Maximum memory used throughout the entire PROPINT-calculation: 629.9 MB


-------------------------------------------------------------------------------
                          DFT DISPERSION CORRECTION                            
                                                                               
                              DFTD3 V3.1  Rev 1                                
                          USING Becke-Johnson damping                          
-------------------------------------------------------------------------------
The R2SCAN functional is recognized
Active option DFTDOPT                   ...         4   

molecular C6(AA) [au] = 3925.617200 


            DFT-D V3
 parameters
 s6 scaling factor         :     1.0000 
 a1 scaling factor         :     0.4948 
 s8 scaling factor         :     0.7898 
 a2 scaling factor         :     5.7308 
 ad hoc parameters k1-k3   :    16.0000     1.3333    -4.0000 

 Edisp/kcal,au: -3.418665031039  -0.005447988927 
 E6   /kcal   :  -2.646887178 
 E8   /kcal   :  -0.771777853 
 % E8         :  22.575416020 

-------------------------   ----------------
Dispersion correction           -0.005447989
-------------------------   ----------------


-------------------------   --------------------
FINAL SINGLE POINT ENERGY      -744.901199163606
-------------------------   --------------------



           ************************************************************
           *        Program running with 12 parallel MPI-processes    *
           *              working on a common directory               *
           ************************************************************
------------------------------------------------------------------------------
                            ORCA SCF RESPONSE CALCULATION
------------------------------------------------------------------------------

GBWName                                 ... cs_rporg_078_red_freq_06.gbw
Number of atoms                         ...     17
Number of basis functions               ...    675
Max core memory                         ...   5000 MB

Electric field perturbation             ...  NO
Quadrupolar field perturbation          ...  NO
Magnetic field perturbation (no GIAO)   ...  NO
Magnetic field perturbation (with GIAO) ...  NO
Linear momentum (velocity) perturbation ...  NO
Spin-orbit coupling perturbation        ...  NO
Choice of electric origin               ... Center of mass
Position of electric origin             ...    -0.009127     0.001666    -0.238857
Choice of magnetic origin               ... GIAO
Position of magnetic origin             ...     0.000000     0.000000     0.000000
Nuclear geometric perturbations         ... YES (  51 perturbations)
Nucleus-orbit perturbations             ...  NO (   0 perturbations)
Spin-dipole/Fermi contact perturbations ...  NO (   0 perturbations)

Total number of real perturbations      ...     51
Total number of imaginary perturbations ...      0
Total number of triplet perturbations   ...      0
Total number of SOC perturbations       ...      0

Using XC Grid                  ... (cs_rporg_078_red_freq_06.grid_cpscf.tmp) 
Recalculating density on grid  ... (cs_rporg_078_red_freq_06.grho_cpscf0.tmp) done
Calculating the xc-kernel      ... (cs_rporg_078_red_freq_06.fxc_cpscf0.tmp) done

                                **********************
                                * REAL PERTURBATIONS *
                                **********************



-------------------
SHARK CP-SCF DRIVER
-------------------

Dimension of the orbital basis          ...    602
Dimension of the CPSCF-problem          ...  20905
Number of operators                     ...      1
Max. number of iterations               ...    128
Max. DIIS space dimension               ...     20
Convergence Tolerance                   ... 1.0e-04
Number of perturbations                 ...     51
Perturbation type                       ... REAL

--------------------
DIIS EQUATION SOLVER
--------------------

  ITERATION   0:   ||err||_max =   3.7617e-01 (  43.4 sec   0/ 51 done)
  ITERATION   1:   ||err||_max =   4.1684e-01 (  42.5 sec   0/ 51 done)
  ITERATION   2:   ||err||_max =   3.0198e-02 (  40.3 sec   0/ 51 done)
  ITERATION   3:   ||err||_max =   1.1190e-02 (  44.1 sec   0/ 51 done)
  ITERATION   4:   ||err||_max =   5.0306e-03 (  43.9 sec   0/ 51 done)
  ITERATION   5:   ||err||_max =   1.5976e-03 (  41.4 sec   5/ 51 done)
  ITERATION   6:   ||err||_max =   7.1059e-04 (  39.6 sec  19/ 51 done)
  ITERATION   7:   ||err||_max =   3.2887e-04 (  28.2 sec  35/ 51 done)
  ITERATION   8:   ||err||_max =   1.1089e-04 (  15.3 sec  49/ 51 done)
  ITERATION   9:   ||err||_max =   4.4995e-05 (   3.1 sec  51/ 51 done)

CP-SCF equations solved in 348.5 sec
Response densities calculated in   0.3 sec

Maximum memory used throughout the entire SCFRESP-calculation: 470.8 MB


           ************************************************************
           *        Program running with 12 parallel MPI-processes    *
           *              working on a common directory               *
           ************************************************************

------------------------------------------------------------------------------
                              ORCA PROPERTY CALCULATIONS
------------------------------------------------------------------------------

GBWName                                 ... cs_rporg_078_red_freq_06.gbw
Number of atoms                         ...     17
Number of basis functions               ...    675
Max core memory                         ...   5000 MB

Electric properties:
Dipole moment                           ... YES
Quadrupole moment                       ...  NO
Static polarizability (Dipole/Dipole)   ...  NO
Static polarizability (Dipole/Quad.)    ...  NO
Static polarizability (Quad./Quad.)     ...  NO
Static polarizability (Velocity)        ...  NO

Atomic electric properties:
Dipole moment                           ...  NO
Quadrupole moment                       ...  NO
Static polarizability                   ...  NO

Choice of electric origin               ... Center of mass
Position of electric origin             ...    -0.009127     0.001666    -0.238857

General magnetic properties:
Magnetizability                         ...  NO

EPR properties:
g-Tensor (aka g-matrix)                 ...  NO
Zero-Field splitting spin-orbit         ...  NO
Zero-field splitting spin-spin          ...  NO
Hyperfine couplings                     ...  NO (   0 nuclei)
Quadrupole couplings                    ...  NO (   0 nuclei)
Contact density                         ...  NO (   0 nuclei)

NMR properties:
Chemical shifts                         ...  NO (   0 nuclei)
Spin-rotation constants                 ...  NO (   0 nuclei)
Spin-spin couplings                     ...  NO (   0 nuclei,    0 pairs)

Choice of magnetic origin               ... GIAO
Position of magnetic origin             ...     0.000000     0.000000     0.000000

Properties with geometric perturbations:
SCF Hessian                             ... YES
IR spectrum                             ... YES
VCD spectrum                            ...  NO
X-ray spectroscopy properties:
SCF XES/XAS/RIXS spectra                ...  NO


-------------
DIPOLE MOMENT
-------------

Method             : SCF
Type of density    : Electron Density
Multiplicity       :   1
Irrep              :   0
Energy             :  -744.8957511746791624 Eh
Relativity type    : 
Basis              : AO
                                X                 Y                 Z
Electronic contribution:      7.099204380       1.001439117      -0.480763181
Nuclear contribution   :     -7.946346895      -1.153610244       0.552094833
                        -----------------------------------------
Total Dipole Moment    :     -0.847142515      -0.152171126       0.071331652
                        -----------------------------------------
Magnitude (a.u.)       :      0.863651953
Magnitude (Debye)      :      2.195228808



--------------------
Rotational spectrum 
--------------------
 
Rotational constants in cm-1:             0.158793             0.023135             0.020272 
Rotational constants in MHz :          4760.480213           693.582042           607.731276 

Dipole components along the rotational axes: 
x,y,z [a.u.] :    -0.849496    -0.154670    -0.018116 
x,y,z [Debye]:    -2.159248    -0.393140    -0.046047 

 

Dipole moment calculation done in   0.2 sec 

-----------
SCF HESSIAN
-----------

Occupied/Occupied contributions to the Hessian:
   => Occupied/Occupied contributions              ... done (  1.5 sec)
Perturbed density contributions to the Hessian:
   => Perturbed density contributions              ... done (  1.0 sec)
Explicit contributions to the Hessian:
   => Nuclear repulsion Hessian                    ... done (  0.0 sec)
   => HCore and overlap Hessian                    ... done ( 10.3 sec)
   => RI-J Hessian                                 ... done ( 20.2 sec)
   => XC-Hessian                                   ... done ( 63.5 sec)
   => CPCM-Hessian                                 ... done (  6.5 sec)
   => Van der Waals-Hessian                        ... done (  0.5 sec)
[...]
     41      -0.020905   0.000017  -0.000062   0.000011  -0.000127   0.004175
     42      -0.135865  -0.002190   0.001244   0.000020  -0.000047  -0.036520
     43       0.236246   0.001644   0.002407   0.000027  -0.000025  -0.053926
     44       0.012274   0.000179  -0.000077   0.000028   0.000003   0.001836
     45      -0.000502  -0.007831  -0.000050  -0.000000   0.000001  -0.000152
     46       0.001816  -0.030294  -0.000011  -0.000001  -0.000001  -0.000121
     47       0.000068  -0.001198   0.000004   0.000001   0.000001   0.000009
     48       0.020839   0.246685   0.000084   0.000013  -0.000043  -0.000998
     49      -0.011383   0.967824   0.000603   0.000013   0.000013   0.000607
     50      -0.001471   0.038315  -0.000012   0.000056   0.000007   0.000026
                 48         49         50    
      0      -0.001565   0.001841  -0.000952
      1       0.001876  -0.001967  -0.000990
      2       0.000126  -0.000138   0.000049
      3      -0.038725   0.030897  -0.000970
      4      -0.058530   0.040681  -0.001670
      5       0.001971  -0.001637   0.000046
      6      -0.017645  -0.031554  -0.000815
      7       0.043724   0.065229   0.000628
      8       0.001682   0.002865   0.000061
      9      -0.001253  -0.002893   0.001870
     10      -0.000600  -0.002281  -0.003001
     11       0.000072   0.000156  -0.000162
     12      -0.000310   0.000891   0.047496
     13      -0.000379   0.000597   0.071239
     14       0.000020  -0.000051  -0.002216
     15       0.004754   0.001402  -0.008630
     16      -0.009131  -0.004413   0.013899
     17      -0.000402  -0.000136   0.000708
     18      -0.047596  -0.020269   0.068281
     19       0.107663   0.047715  -0.152753
     20       0.004227   0.001812  -0.006038
     21       0.001720  -0.007506  -0.549464
     22       0.003291  -0.009683  -0.812306
     23      -0.000061   0.000376   0.025843
     24      -0.000050   0.000354   0.000026
     25       0.000037   0.000240   0.000426
     26       0.000003  -0.000021   0.000003
     27       0.000164   0.000237  -0.001850
     28       0.000129  -0.000258   0.002161
     29      -0.000007  -0.000021   0.000229
     30      -0.000726  -0.000646   0.021042
     31       0.000474   0.000826  -0.011157
     32       0.000050   0.000047  -0.001455
     33      -0.000023  -0.000179   0.003702
     34      -0.001029   0.000456  -0.010005
     35      -0.001244   0.000836  -0.017085
     36       0.000126  -0.000262   0.005648
     37      -0.001053   0.000450  -0.009741
     38       0.001224  -0.000762   0.015200
     39       0.231285   0.341447   0.005407
     40      -0.508822  -0.742406  -0.009746
     41      -0.021365  -0.031387  -0.000479
     42       0.462736  -0.323226   0.012085
     43       0.671779  -0.464488   0.017674
     44      -0.023910   0.016695  -0.000620
     45       0.000064  -0.000119   0.000052
     46      -0.000017   0.000000   0.000039
     47      -0.000007   0.000010  -0.000003
     48       0.001585  -0.000965   0.000512
     49       0.000664   0.000478  -0.000230
     50       0.000011   0.000010  -0.000021


-----------
IR SPECTRUM
-----------

 Mode   freq       eps      Int      T**2         TX        TY        TZ
       cm**-1   L/(mol*cm) km/mol    a.u.
----------------------------------------------------------------------------
  6:     74.83   0.000186    0.94  0.000777  (-0.003655  0.000379 -0.027625)
  7:    103.63   0.006820   34.47  0.020539  ( 0.002819  0.006067 -0.143157)
  8:    137.22   0.000007    0.04  0.000017  (-0.002977 -0.001094 -0.002551)
  9:    197.58   0.000872    4.41  0.001378  ( 0.033957 -0.014815 -0.002336)
 10:    240.11   0.000013    0.07  0.000017  ( 0.000849 -0.000780  0.003999)
 11:    303.69   0.000060    0.30  0.000061  ( 0.005153 -0.005850  0.000612)
 12:    334.75   0.001205    6.09  0.001123  (-0.001028  0.000793 -0.033491)
 13:    360.61   0.000225    1.14  0.000195  (-0.001043 -0.013897 -0.000672)
 14:    416.95   0.000056    0.29  0.000042  ( 0.000455 -0.000647  0.006454)
 15:    499.95   0.000196    0.99  0.000122  ( 0.010844  0.002192 -0.000265)
 16:    507.85   0.008016   40.51  0.004926  ( 0.003919 -0.000650  0.070070)
 17:    630.15   0.008263   41.76  0.004092  ( 0.061643 -0.016604 -0.004052)
 18:    645.02   0.004186   21.16  0.002025  ( 0.044775 -0.003869 -0.002351)
 19:    718.78   0.000166    0.84  0.000072  ( 0.000588  0.000072  0.008481)
 20:    809.39   0.002227   11.25  0.000859  (-0.003079  0.000772 -0.029130)
 21:    812.28   0.000719    3.63  0.000276  ( 0.009198 -0.013131 -0.004381)
 22:    825.36   0.021217  107.22  0.008022  (-0.005269  0.000693 -0.089407)
 23:    909.27   0.001877    9.49  0.000644  ( 0.004198  0.025032 -0.000288)
 24:    936.46   0.000032    0.16  0.000011  (-0.000535 -0.000138 -0.003202)
 25:    958.04   0.000019    0.09  0.000006  ( 0.000620  0.001307  0.002000)
 26:   1019.46   0.001419    7.17  0.000434  (-0.020457 -0.003743  0.001372)
 27:   1036.55   0.025704  129.90  0.007739  ( 0.070224  0.052844 -0.003812)
 28:   1109.09   0.005872   29.68  0.001652  ( 0.036986 -0.016665 -0.002554)
 29:   1130.99   0.003932   19.87  0.001085  ( 0.001198 -0.032917 -0.000316)
 30:   1161.03   0.000172    0.87  0.000046  ( 0.001122 -0.000407  0.006684)
 31:   1195.43   0.002055   10.38  0.000536  ( 0.023015  0.002125 -0.001465)
 32:   1200.57   0.011114   56.17  0.002889  ( 0.050065  0.019335 -0.002940)
 33:   1264.61   0.092929  469.62  0.022932  (-0.150740 -0.010781  0.009650)
 34:   1325.45   0.001218    6.15  0.000287  ( 0.008130 -0.014836 -0.000712)
 35:   1353.58   0.007282   36.80  0.001679  (-0.030897 -0.026872  0.001447)
 36:   1437.37   0.001065    5.38  0.000231  (-0.015118  0.001374  0.000918)
 37:   1459.92   0.006519   32.94  0.001393  ( 0.036105 -0.009273 -0.001970)
 38:   1468.39   0.002883   14.57  0.000613  ( 0.000525 -0.000069 -0.024747)
 39:   1479.03   0.006792   34.32  0.001433  (-0.037657  0.003492  0.001664)
 40:   1514.87   0.055031  278.10  0.011336  (-0.106239 -0.001278  0.006930)
 41:   1603.83   0.005483   27.71  0.001067  (-0.028088  0.016534  0.002119)
 42:   1628.35   0.007569   38.25  0.001451  ( 0.037506  0.006136 -0.002489)
 43:   2665.20   0.001883    9.52  0.000221  ( 0.008920  0.011869  0.000291)
 44:   3010.57   0.016651   84.15  0.001726  (-0.030513 -0.028148  0.001634)
 45:   3081.08   0.010703   54.09  0.001084  (-0.002394  0.000255 -0.032836)
 46:   3142.82   0.005425   27.42  0.000539  (-0.020618  0.010557  0.001457)
 47:   3165.02   0.002140   10.82  0.000211  ( 0.010447 -0.010076 -0.000615)
 48:   3166.83   0.001754    8.86  0.000173  (-0.012488 -0.004069  0.000567)
 49:   3182.60   0.001803    9.11  0.000177  (-0.002628  0.013030  0.000351)
 50:   3206.79   0.001033    5.22  0.000101  ( 0.007772  0.006319 -0.000453)

* The epsilon (eps) is given for a Dirac delta lineshape.
** The dipole moment derivative (T) already includes vibrational overlap.

The first frequency considered to be a vibration is 6
The total number of vibrations considered is 45


--------------------------
THERMOCHEMISTRY AT 298.15K
--------------------------

Temperature         ...   298.15 K
Pressure            ...     1.00 atm
Total Mass          ...   140.20 AMU
Quasi RRHO          ...     True
Cut-Off Frequency   ...     1.00 cm^-1

Throughout the following assumptions are being made:
  (1) The electronic state is orbitally nondegenerate
  (2) There are no thermally accessible electronically excited states
  (3) Hindered rotations indicated by low frequency modes are not
      treated as such but are treated as vibrations and this may
      cause some error
  (4) All equations used are the standard statistical mechanics
      equations for an ideal gas
  (5) All vibrations are strictly harmonic

freq.      74.83  E(vib)   ...       0.49 
freq.     103.63  E(vib)   ...       0.46 
freq.     137.22  E(vib)   ...       0.42 
freq.     197.58  E(vib)   ...       0.35 
freq.     240.11  E(vib)   ...       0.31 
freq.     303.69  E(vib)   ...       0.26 
freq.     334.75  E(vib)   ...       0.24 
freq.     360.61  E(vib)   ...       0.22 
freq.     416.95  E(vib)   ...       0.18 
freq.     499.95  E(vib)   ...       0.14 
freq.     507.85  E(vib)   ...       0.14 
freq.     630.15  E(vib)   ...       0.09 
freq.     645.02  E(vib)   ...       0.09 
freq.     718.78  E(vib)   ...       0.07 
freq.     809.39  E(vib)   ...       0.05 
freq.     812.28  E(vib)   ...       0.05 
freq.     825.36  E(vib)   ...       0.04 
freq.     909.27  E(vib)   ...       0.03 
freq.     936.46  E(vib)   ...       0.03 
freq.     958.04  E(vib)   ...       0.03 
freq.    1019.46  E(vib)   ...       0.02 
freq.    1036.55  E(vib)   ...       0.02 
freq.    1109.09  E(vib)   ...       0.02 
freq.    1130.99  E(vib)   ...       0.01 
freq.    1161.03  E(vib)   ...       0.01 
freq.    1195.43  E(vib)   ...       0.01 
freq.    1200.57  E(vib)   ...       0.01 
freq.    1264.61  E(vib)   ...       0.01 
freq.    1325.45  E(vib)   ...       0.01 
freq.    1353.58  E(vib)   ...       0.01 
freq.    1437.37  E(vib)   ...       0.00 
freq.    1459.92  E(vib)   ...       0.00 
freq.    1468.39  E(vib)   ...       0.00 
freq.    1479.03  E(vib)   ...       0.00 
freq.    1514.87  E(vib)   ...       0.00 
freq.    1603.83  E(vib)   ...       0.00 
freq.    1628.35  E(vib)   ...       0.00 
freq.    2665.20  E(vib)   ...       0.00 
freq.    3010.57  E(vib)   ...       0.00 
freq.    3081.08  E(vib)   ...       0.00 
freq.    3142.82  E(vib)   ...       0.00 
freq.    3165.02  E(vib)   ...       0.00 
freq.    3166.83  E(vib)   ...       0.00 
freq.    3182.60  E(vib)   ...       0.00 
freq.    3206.79  E(vib)   ...       0.00 

------------
INNER ENERGY
------------

The inner energy is: U= E(el) + E(ZPE) + E(vib) + E(rot) + E(trans)
    E(el)   - is the total energy from the electronic structure calculation
              = E(kin-el) + E(nuc-el) + E(el-el) + E(nuc-nuc)
    E(ZPE)  - the the zero temperature vibrational energy from the frequency calculation
    E(vib)  - the the finite temperature correction to E(ZPE) due to population
              of excited vibrational states
    E(rot)  - is the rotational thermal energy
    E(trans)- is the translational thermal energy

Summary of contributions to the inner energy U:
Electronic energy                ...   -744.90119916 Eh
Zero point energy                ...      0.13083822 Eh      82.10 kcal/mol
Thermal vibrational correction   ...      0.00610461 Eh       3.83 kcal/mol
Thermal rotational correction    ...      0.00141627 Eh       0.89 kcal/mol
Thermal translational correction ...      0.00141627 Eh       0.89 kcal/mol
-----------------------------------------------------------------------
Total thermal energy                   -744.76142379 Eh


Summary of corrections to the electronic energy:
(perhaps to be used in another calculation)
Total thermal correction                  0.00893715 Eh       5.61 kcal/mol
Non-thermal (ZPE) correction              0.13083822 Eh      82.10 kcal/mol
-----------------------------------------------------------------------
Total correction                          0.13977537 Eh      87.71 kcal/mol


--------
ENTHALPY
--------

The enthalpy is H = U + kB*T
                kB is Boltzmann's constant
Total thermal energy              ...   -744.76142379 Eh 
Thermal Enthalpy correction       ...      0.00094421 Eh       0.59 kcal/mol
-----------------------------------------------------------------------
Total Enthalpy                    ...   -744.76047958 Eh


Note: Only C1 symmetry has been detected, increase convergence thresholds 
      if your molecule has a higher symmetry. Symmetry factor of 1.0 is   
      used for the rotational entropy correction. 
 

Note: Rotational entropy computed according to Herzberg 
Infrared and Raman Spectra, Chapter V,1, Van Nostrand Reinhold, 1945 
Point Group:  C1, Symmetry Number:   1  
Rotational constants in cm-1:     0.158793     0.023135     0.020272 

Vibrational entropy computed according to the QRRHO of S. Grimme
Chem.Eur.J. 2012 18 9955 using a reference frequency of 100.0 cm-1


-------
ENTROPY
-------

The entropy contributions are T*S = T*(S(el)+S(vib)+S(rot)+S(trans))
     S(el)   - electronic entropy
     S(vib)  - vibrational entropy
     S(rot)  - rotational entropy
     S(trans)- translational entropy
The entropies will be listed as multiplied by the temperature to get
units of energy

Electronic entropy                ...      0.00000000 Eh      0.00 kcal/mol
Vibrational entropy               ...      0.01034449 Eh      6.49 kcal/mol
Rotational entropy                ...      0.01399807 Eh      8.78 kcal/mol
Translational entropy             ...      0.01934980 Eh     12.14 kcal/mol
-----------------------------------------------------------------------
Final entropy term                ...      0.04369236 Eh     27.42 kcal/mol

In case the symmetry of your molecule has not been determined correctly
or in case you have a reason to use a different symmetry number we print 
out the resulting rotational entropy values for sn=1,12:

 non-linear molecules -----------------------------------
|  sn= 1 | S(rot)=       0.01399807 Eh      8.78 kcal/mol|
|  sn= 2 | S(rot)=       0.01334361 Eh      8.37 kcal/mol|
|  sn= 3 | S(rot)=       0.01296078 Eh      8.13 kcal/mol|
|  sn= 4 | S(rot)=       0.01268915 Eh      7.96 kcal/mol|
|  sn= 5 | S(rot)=       0.01247847 Eh      7.83 kcal/mol|
|  sn= 6 | S(rot)=       0.01230632 Eh      7.72 kcal/mol|
|  sn= 7 | S(rot)=       0.01216077 Eh      7.63 kcal/mol|
|  sn= 8 | S(rot)=       0.01203470 Eh      7.55 kcal/mol|
|  sn= 9 | S(rot)=       0.01192349 Eh      7.48 kcal/mol|
|  sn=10 | S(rot)=       0.01182401 Eh      7.42 kcal/mol|
|  sn=11 | S(rot)=       0.01173402 Eh      7.36 kcal/mol|
|  sn=12 | S(rot)=       0.01165186 Eh      7.31 kcal/mol|
 linear molecules ---------------------------------------
|  Dinfh | S(rot)=       0.00900672 Eh      5.65 kcal/mol|
|  Cinfv | S(rot)=       0.00966118 Eh      6.06 kcal/mol|
 --------------------------------------------------------


-------------------
GIBBS FREE ENERGY
-------------------

The Gibbs free energy is G = H - T*S

Total enthalpy                    ...   -744.76047958 Eh 
Total entropy correction          ...     -0.04369236 Eh    -27.42 kcal/mol
-----------------------------------------------------------------------
Final Gibbs free energy         ...   -744.80417194 Eh

For completeness - the Gibbs free energy minus the electronic energy
G-E(el)                           ...      0.09702722 Eh     60.89 kcal/mol


Maximum memory used throughout the entire PROP-calculation: 115.3 MB

--------------------------------
SUGGESTED CITATIONS FOR THIS RUN
--------------------------------

Below you find a list of papers that are relevant to this ORCA run
We neither can nor want to force you to cite these papers, but we appreciate if you do
You receive ORCA, which is the product of decades of hard work by many enthusiastic individuals, for free
The only thing we kindly ask in return is that you cite our papers,
We deeply appreciate it, if you show your appreciation for ORCA by not just citing the generic ORCA reference.

Please note that relegating all ORCA citations to the supporting information does *not* help us.
SI sections are not indexed - citations you put there will not count into any citation statistics
But we need these citations in order to attract the funding resources that allow us to do what we are doing

Therefore, if you are a happy ORCA user, please consider citing a few of the papers listed below in the main body of your paper

In addition to the list printed below, the program has created the file cs_rporg_078_red_freq_06.bibtex that contains the list in bibtex format
You can import this file easily into all common literature databanks and citation aid programs


List of essential papers. We consider these as the minimum necessary citations

  1. Neese,F.
     Software update: the ORCA program system, version 5.0
     WIRES Comput. Molec. Sci., 2022 12(1)e1606
     doi.org/10.1002/wcms.1606

List of papers to cite with high priority. The work reported in these papers was absolutely
necessary for this run to complete.
Our perspective: the developers of density functionals and basis sets usually get cited in chemistry papers
Good! But without the algorithms to do something with them, the functionals or basis sets would not do anything.
Hence, in our opinion, the algorithm design and method developments papers are equally worthy of getting cited

  1. Neese,F.
     An improvement of the resolution of the identity approximation for the formation of the Coulomb matrix
     J. Comp. Chem., 2003 24(14)1740-1747
     doi.org/10.1002/jcc.10318
  2. Bykov,D.; Petrenko,T.; Izsak,R.; Kossmann,S.; Becker,U.; Valeev,E.; Neese,F.
     Efficient implementation of the analytic second derivatives of Hartree-Fock and hybrid DFT energies: a detailed analysis of different approximations
     Molec. Phys., 2015 113 1961-1977
     doi.org/10.1080/00268976.2015.1025114
  3. Garcia-Rates,M.; Neese,F.
     Efficient implementation of the analytical second derivatives of hartree-fock and hybrid DFT energies within the framework of the conductor-like polarizable continuum model
     J. Comput. Chem., 2019 40 1816-1828
     doi.org/10.1002/jcc.25833
  4. Garcia-Rates,M.; Neese,F.
     Effect of the Solute Cavity on the Solvation Energy and its Derivatives within the Framework of the Gaussian Charge Scheme
     J. Comput. Chem., 2020 41 922-939
     doi.org/10.1002/jcc.26139
  5. Neese,F.
     The SHARK Integral Generation and Digestion System
     J. Comp. Chem., 2022  1-16
     doi.org/10.1002/jcc.26942
  6. Lehtola,S.; Steigemann,C.; Oliveira,M.; Marques,M.
     Recent developments in Libxc - A comprehensive library of functionals for density functional theory
     Software X, 2018 7 
     doi.org/10.1016/j.softx.2017.11.002
  7. Grimme,S.; Antony,J.; Ehrlich,S.; Krieg,H.
     A consistent and accurate ab initio parametrization of density functional dispersion correction (DFT-D) for the 94 elements H-Pu
     J. Chem. Phys., 2010 132 154104-XXXX
     doi.org/10.1063/1.3382344
  8. Grimme,S.; Ehrlich,S.; Goerigk,L.
     Effect of the damping function in dispersion corrected density functional theory
     J. Comput. Chem., 2011 32(7)1456-1465
     doi.org/10.1002/jcc.21759

List of suggested additional citations. These are papers that are important in the 'surrounding' of 
of this run, or papers that preceded the highly important papers. If you like your results we are grateful for a citation.

  1. Neese,F.
     The ORCA program system
     WIRES Comput. Molec. Sci., 2012 2(1)73-78
     doi.org/10.1002/wcms.81
  2. Neese,F.
     Software update: the ORCA program system, version 4.0
     WIRES Comput. Molec. Sci., 2018 8(1)1-6
     doi.org/10.1002/wcms.1327
  3. Neese,F.; Wennmohs,F.; Becker,U.; Riplinger,C.
     The ORCA quantum chemistry program package
     J. Chem. Phys., 2020 152 Art. No. L224108
     doi.org/10.1063/5.0004608

List of optional additional citations

  1. Neese,F.
     Approximate second-order SCF convergence for spin unrestricted wavefunctions
     Chem. Phys. Lett., 2000 325(1-3)93-98
     doi.org/10.1016/s0009-2614(00)00662-x

Timings for individual modules:

Sum of individual times          ...     1054.302 sec (=  17.572 min)
Startup calculation              ...        6.418 sec (=   0.107 min)   0.6 %
SCF iterations                   ...       94.511 sec (=   1.575 min)   9.0 %
Property integrals               ...      492.694 sec (=   8.212 min)  46.7 %
SCF Response                     ...      353.120 sec (=   5.885 min)  33.5 %
Property calculations            ...      107.559 sec (=   1.793 min)  10.2 %
                             ****ORCA TERMINATED NORMALLY****
TOTAL RUN TIME: 0 days 0 hours 17 minutes 37 seconds 587 msec
