
                                 *****************
                                 * O   R   C   A *
                                 *****************

                                            #,                                       
                                            ###                                      
                                            ####                                     
                                            #####                                    
                                            ######                                   
                                           ########,                                 
                                     ,,################,,,,,                         
                               ,,#################################,,                 
                          ,,##########################################,,             
                       ,#########################################, ''#####,          
                    ,#############################################,,   '####,        
                  ,##################################################,,,,####,       
                ,###########''''           ''''###############################       
              ,#####''   ,,,,##########,,,,          '''####'''          '####       
            ,##' ,,,,###########################,,,                        '##       
           ' ,,###''''                  '''############,,,                           
         ,,##''                                '''############,,,,        ,,,,,,###''
      ,#''                                            '''#######################'''  
     '                                                          ''''####''''         
             ,#######,   #######,   ,#######,      ##                                
            ,#'     '#,  ##    ##  ,#'     '#,    #''#        ,####,   ,####,        
            ##       ##  ##   ,#'  ##            #'  '#       #'       #'  '#        
            ##       ##  #######   ##           ,######,      #####,   #    #        
            '#,     ,#'  ##    ##  '#,     ,#' ,#      #,     #,   #   #,  ,#        
             '#######'   ##     ##  '#######'  #'      '#     '####' # '####'        



                #########################################################
                #                        -***-                          #
                #          Department of theory and spectroscopy        #
                #                                                       #
                #                      Frank Neese                      #
                #                                                       #
                #     Directorship, Architecture, Infrastructure        #
                #                    SHARK, DRIVERS                     #
                #        Core code/Algorithms in most modules           #
                #                                                       #
                #        Max Planck Institute fuer Kohlenforschung      #
                #                Kaiser Wilhelm Platz 1                 #
                #                 D-45470 Muelheim/Ruhr                 #
                #                      Germany                          #
                #                                                       #
                #                  All rights reserved                  #
                #                        -***-                          #
                #########################################################


                         Program Version 6.0.0  -   RELEASE  -


 With contributions from (in alphabetic order):
   Daniel Aravena         : Magnetic Suceptibility
   Michael Atanasov       : Ab Initio Ligand Field Theory (pilot matlab implementation)
   Alexander A. Auer      : GIAO ZORA, VPT2 properties, NMR spectrum
   Ute Becker             : All parallelization in ORCA, NUMFREQ, NUMCALC
   Giovanni Bistoni       : ED, misc. LED, open-shell LED, HFLD
   Martin Brehm           : Molecular dynamics
   Dmytro Bykov           : pre 5.0 version of the SCF Hessian
   Marcos Casanova-Páez   : Triplet and SCS-CIS(D). UHF-(DLPNO)-IP/EA/STEOM-CCSD. UHF-CVS-IP/STEOM-CCSD
   Vijay G. Chilkuri      : MRCI spin determinant printing, contributions to CSF-ICE
   Pauline Colinet        : FMM embedding
   Dipayan Datta          : RHF DLPNO-CCSD density
   Achintya Kumar Dutta   : EOM-CC, STEOM-CC
   Nicolas Foglia         : Exact transition moments, OPA infrastructure, MCD improvements
   Dmitry Ganyushin       : Spin-Orbit,Spin-Spin,Magnetic field MRCI
   Miquel Garcia          : C-PCM and meta-GGA Hessian, CCSD/C-PCM, Gaussian charge scheme
   Tiago L. C. Gouveia    : GS-ROHF, GS-ROCIS
   Yang Guo               : DLPNO-NEVPT2, F12-NEVPT2, CIM, IAO-localization
   Andreas Hansen         : Spin unrestricted coupled pair/coupled cluster methods
   Ingolf Harden          : AUTO-CI MPn and infrastructure 
   Benjamin Helmich-Paris : MC-RPA, TRAH-(SCF,CASSCF), AVAS, COSX integrals, SCF dyn. polar.
   Lee Huntington         : MR-EOM, pCC
   Robert Izsak           : Overlap fitted RIJCOSX, COSX-SCS-MP3, EOM
   Riya Kayal             : Wick's Theorem for AUTO-CI, AUTO-CI UHF-CCSDT
   Emily Kempfer          : AUTO-CI, RHF CISDT and CCSDT
   Christian Kollmar      : KDIIS, OOCD, Brueckner-CCSD(T), CCSD density, CASPT2, CASPT2-K, improved NEVPT2
   Axel Koslowski         : Symmetry handling
   Simone Kossmann        : Meta GGA functionals, TD-DFT gradient, OOMP2, (MP2 Hessian; deprecated post 5.0)
   Lucas Lang             : DCDCAS
   Marvin Lechner         : AUTO-CI (C++ implementation), FIC-MRCC
   Spencer Leger          : CASSCF response
   Dagmar Lenk            : GEPOL surface, SMD, ORCA-2-JSON
   Dimitrios Liakos       : Extrapolation schemes; Compound Job, initial MDCI parallelization
   Dimitrios Manganas     : Further ROCIS development; embedding schemes. LFT, Crystal Embedding
   Dimitrios Pantazis     : SARC Basis sets
   Anastasios Papadopoulos: AUTO-CI, single reference methods and gradients
   Taras Petrenko         : pre 6.0 DFT Hessian and TD-DFT gradient, (ASA, deprecated), ECA, 1-Electron XAS/XES, NRVS
   Peter Pinski           : DLPNO-MP2, DLPNO-MP2 Gradient
   Christoph Reimann      : Effective Core Potentials
   Marius Retegan         : Local ZFS, SOC
   Christoph Riplinger    : Optimizer, TS searches, QM/MM, DLPNO-CCSD(T), (RO)-DLPNO pert. Triples
   Michael Roemelt        : Original ROCIS implementation
   Masaaki Saitow         : Open-shell DLPNO-CCSD energy and density
   Barbara Sandhoefer     : DKH picture change effects
   Kantharuban Sivalingam : CASSCF convergence/infrastructure, NEVPT2 and variants, FIC-MRCI
   Bernardo de Souza      : ESD, SOC TD-DFT
   Georgi Stoychev        : AutoAux, RI-MP2 NMR, DLPNO-MP2 response, X2C
   Van Anh Tran           : RI-MP2 g-tensors
   Willem Van den Heuvel  : Paramagnetic NMR
   Zikuan Wang            : NOTCH, Electric field optimization 
   Frank Wennmohs         : Technical directorship and infrastructure
   Hang Xu                : AUTO-CI-Response properties 


 We gratefully acknowledge several colleagues who have allowed us to
 interface, adapt or use parts of their codes:
   Stefan Grimme, W. Hujo, H. Kruse, P. Pracht,  : VdW corrections, initial TS optimization,
                  C. Bannwarth, S. Ehlert,         DFT functionals, gCP, sTDA/sTD-DF
                  L. Wittmann, M. Mueller
   Ed Valeev, F. Pavosevic, A. Kumar             : LibInt (2-el integral package), F12 methods
   Garnet Chan, S. Sharma, J. Yang, R. Olivares  : DMRG
   Ulf Ekstrom                                   : XCFun DFT Library
   Mihaly Kallay                                 : mrcc  (arbitrary order and MRCC methods)
   Frank Weinhold                                : gennbo (NPA and NBO analysis)
   Simon Mueller                                 : openCOSMO-RS
   Christopher J. Cramer and Donald G. Truhlar   : smd solvation model
   Lars Goerigk                                  : TD-DFT with DH, B97 family of functionals
   V. Asgeirsson, H. Jonsson                     : NEB implementation
   FAccTs GmbH                                   : IRC, NEB, NEB-TS, DLPNO-Multilevel, CI-OPT
                                                   MM, QMMM, 2- and 3-layer-ONIOM, Crystal-QMMM,
                                                   LR-CPCM, SF, NACMEs, symmetry and pop. for TD-DFT,
                                                   nearIR, NL-DFT gradient (VV10), updates on ESD,
                                                   ML-optimized integration grids, MBIS, APM,
                                                   GOAT, DOCKER, SOLVATOR, interface openCOSMO-RS
   S Lehtola, MJT Oliveira, MAL Marques          : LibXC Library
   Liviu Ungur et al                             : ANISO software


 Your calculation uses the libint2 library for the computation of 2-el integrals
 For citations please refer to: http://libint.valeyev.net

 Your ORCA version has been built with support for libXC version: 6.2.2
 For citations please refer to: https://libxc.gitlab.io

 This ORCA versions uses:
   CBLAS   interface :  Fast vector & matrix operations
   LAPACKE interface :  Fast linear algebra routines
   SCALAPACK package :  Parallel linear algebra routines
   Shared memory     :  Shared parallel matrices
   BLAS/LAPACK       :  OpenBLAS 0.3.27  USE64BITINT DYNAMIC_ARCH NO_AFFINITY SkylakeX SINGLE_THREADED
        Core in use  :  SkylakeX
   Copyright (c) 2011-2014, The OpenBLAS Project


NOTE: MaxCore=3000 MB was set to SCF,MP2,MDCI,CIPSI,MRCI and CIS
      => If you want to overwrite this, your respective input block should be placed after the MaxCore statement
Your calculation utilizes the atom-pairwise dispersion correction
with the Becke-Johnson damping scheme (D3BJ)


Your calculation utilizes the SMD solvation module
Please cite in your paper:
A.V. Marenich, C.J. Cramer, D.G. Truhlar J. Phys. Chem. B, 113, (2009), 6378 

Warning: RI is on but no J-basis has been assigned. Assigning Def2/J (nothing to worry about!)
================================================================================

----- Orbital basis set information -----
Your calculation utilizes the basis: aug-cc-pVTZ 
    H, B-Ne : Obtained from the ccRepo (grant-hill.group.shef.ac.uk/ccrepo) Feb. 2017
              R. A. Kendall, T. H. Dunning, Jr., R. J. Harrison, J. Chem. Phys. 96, 6796 (1992)
         He : Obtained from the ccRepo (grant-hill.group.shef.ac.uk/ccrepo) Feb. 2017
              D. E. Woon, T. H. Dunning, Jr., J. Chem. Phys. 100, 2975 (1994)
  Li-Be, Na : Obtained from the ccRepo (grant-hill.group.shef.ac.uk/ccrepo) Feb. 2017
              B. P. Prascher, D. E. Woon, K. A. Peterson, T. H. Dunning, Jr., A. K. Wilson, Theor. Chem. Acc. 128, 69 (2011)
         Mg : Obtained from the Peterson Research Group Website (tyr0.chem.wsu.edu/~kipeters) Feb. 2017
              B. P. Prascher, D. E. Woon, K. A. Peterson, T. H. Dunning, Jr., A. K. Wilson, Theor. Chem. Acc. 128, 69 (2011)
      Al-Ar : Obtained from the ccRepo (grant-hill.group.shef.ac.uk/ccrepo) Feb. 2017
              D. E. Woon, T. H. Dunning, Jr., J. Chem. Phys. 98, 1358 (1993)
      Sc-Zn : Obtained from the ccRepo (grant-hill.group.shef.ac.uk/ccrepo) Feb. 2017
              N. B. Balabanov, K. A. Peterson, J. Chem. Phys. 123, 064107 (2005)
              N. B. Balabanov, K. A. Peterson, J. Chem. Phys. 125, 074110 (2006)
      Ga-Kr : Obtained from the ccRepo (grant-hill.group.shef.ac.uk/ccrepo) Feb. 2017
              A. K. Wilson, D. E. Woon, K. A. Peterson, T. H. Dunning, Jr., J. Chem. Phys. 110, 7667 (1999)
     Ag, Au : Obtained from the Peterson Research Group Website (tyr0.chem.wsu.edu/~kipeters) Feb. 2017
              K. A. Peterson, C. Puzzarini, Theor. Chem. Acc. 114, 283 (2005)

----- AuxJ basis set information -----
Your calculation utilizes the auxiliary basis: def2/J
   F. Weigend, Phys. Chem. Chem. Phys. 8, 1057 (2006).

================================================================================
                                        WARNINGS
                       Please study these warnings very carefully!
================================================================================


================================================================================
                                       INPUT FILE
================================================================================
NAME = cs_rporg_061_red_solv_01.inp
|  1> !TPSSh aug-cc-pVTZ d3 TightSCF SlowConv RIJCOSX defgrid2
|  2>  
|  3> %pal
|  4> nprocs 4
|  5> end
|  6>  
|  7> %scf
|  8> MaxIter 1500
|  9> end
| 10>  
| 11> %maxcore 3000
| 12>  
| 13> !CPCM
| 14> %cpcm smd true
| 15> SMDsolvent "MeCN"
| 16> surfacetype gepol_ses
| 17> rsolv 2.19
| 18> end 
| 19>  
| 20> * xyz 0 1
| 21> C           1.36094883267894     -0.66831836744035      0.79166505304401
| 22> C           2.61668489634387     -1.26993624441883      0.83762450630671
| 23> C           3.69751463551123     -0.71498852855237      0.15220113395429
| 24> C           3.51411500210824      0.45521897470958     -0.58452696169930
| 25> C           2.26200602044100      1.06208181225052     -0.64510108123094
| 26> C           1.18681200151517      0.49836983896063      0.04263488062587
| 27> O          -0.00001482572359      1.16979071588351      0.00005454238981
| 28> C          -1.18682038085230      0.49834069380338     -0.04260530375666
| 29> C          -2.26210069770780      1.06211241497205      0.64495038697290
| 30> C          -3.51419441314783      0.45522857582203      0.58430306316011
| 31> C          -3.69749941395526     -0.71506183581738     -0.15231803955518
| 32> C          -2.61658550079969     -1.27006941979564     -0.83755825340367
| 33> C          -1.36085917884001     -0.66843361449673     -0.79152524362506
| 34> H          -0.51558365320611     -1.09715909206061     -1.33585483016717
| 35> H          -2.75062021450227     -2.18281812892327     -1.42596293506599
| 36> H          -4.68044516686291     -1.19217947086648     -0.19470697547587
| 37> H          -4.35472302990288      0.90118829684160      1.12448028512422
| 38> H          -2.09557313650778      1.97752399950586      1.21789909020225
| 39> H           2.09540249638844      1.97742680661202     -1.21813253528145
| 40> H           4.35457955862348      0.90113009122578     -1.12484535245104
| 41> H           4.68047118965145     -1.19208889118135      0.19453111833043
| 42> H           2.75079772312689     -2.18261728806241      1.42611640363857
| 43> H           0.51573555561975     -1.09698553897151      1.33613674796315
| 44> *
| 45> 
| 46>                          ****END OF INPUT****
================================================================================

                       ****************************
                       * Single Point Calculation *
                       ****************************

---------------------------------
CARTESIAN COORDINATES (ANGSTROEM)
---------------------------------
  C      1.360949   -0.668318    0.791665
  C      2.616685   -1.269936    0.837625
  C      3.697515   -0.714989    0.152201
  C      3.514115    0.455219   -0.584527
  C      2.262006    1.062082   -0.645101
  C      1.186812    0.498370    0.042635
  O     -0.000015    1.169791    0.000055
  C     -1.186820    0.498341   -0.042605
  C     -2.262101    1.062112    0.644950
  C     -3.514194    0.455229    0.584303
  C     -3.697499   -0.715062   -0.152318
  C     -2.616586   -1.270069   -0.837558
  C     -1.360859   -0.668434   -0.791525
  H     -0.515584   -1.097159   -1.335855
  H     -2.750620   -2.182818   -1.425963
  H     -4.680445   -1.192179   -0.194707
  H     -4.354723    0.901188    1.124480
  H     -2.095573    1.977524    1.217899
  H      2.095402    1.977427   -1.218133
  H      4.354580    0.901130   -1.124845
  H      4.680471   -1.192089    0.194531
  H      2.750798   -2.182617    1.426116
  H      0.515736   -1.096986    1.336137

----------------------------
CARTESIAN COORDINATES (A.U.)
----------------------------
  NO LB      ZA    FRAG     MASS         X           Y           Z
   0 C     6.0000    0    12.011    2.571821   -1.262939    1.496030
   1 C     6.0000    0    12.011    4.944818   -2.399832    1.582881
   2 C     6.0000    0    12.011    6.987290   -1.351133    0.287618
   3 C     6.0000    0    12.011    6.640715    0.860239   -1.104596
   4 C     6.0000    0    12.011    4.274572    2.007044   -1.219064
   5 C     6.0000    0    12.011    2.242750    0.941783    0.080568
   6 O     8.0000    0    15.999   -0.000028    2.210584    0.000103
   7 C     6.0000    0    12.011   -2.242765    0.941727   -0.080512
   8 C     6.0000    0    12.011   -4.274751    2.007102    1.218780
   9 C     6.0000    0    12.011   -6.640865    0.860257    1.104173
  10 C     6.0000    0    12.011   -6.987261   -1.351271   -0.287839
  11 C     6.0000    0    12.011   -4.944630   -2.400083   -1.582756
  12 C     6.0000    0    12.011   -2.571651   -1.263156   -1.495766
  13 H     1.0000    0     1.008   -0.974312   -2.073330   -2.524400
  14 H     1.0000    0     1.008   -5.197919   -4.124928   -2.694679
  15 H     1.0000    0     1.008   -8.844760   -2.252893   -0.367943
  16 H     1.0000    0     1.008   -8.229234    1.702999    2.124960
  17 H     1.0000    0     1.008   -3.960059    3.736979    2.301496
  18 H     1.0000    0     1.008    3.959737    3.736795   -2.301937
  19 H     1.0000    0     1.008    8.228963    1.702889   -2.125650
  20 H     1.0000    0     1.008    8.844809   -2.252722    0.367611
  21 H     1.0000    0     1.008    5.198254   -4.124549    2.694969
  22 H     1.0000    0     1.008    0.974599   -2.073002    2.524933

--------------------------------
INTERNAL COORDINATES (ANGSTROEM)
--------------------------------
 C      0   0   0     0.000000000000     0.00000000     0.00000000
 C      1   0   0     1.393172423942     0.00000000     0.00000000
 C      2   1   0     1.394978527355   120.68821761     0.00000000
 C      3   2   1     1.394915521868   119.43084262     0.05454619
 C      4   3   2     1.392741407985   120.44507658   359.55954640
 C      5   4   3     1.395275643160   119.68985609     0.36426932
 O      6   5   4     1.364249609502   117.13941253   176.94418840
 C      7   6   5     1.364247932126   121.03404371   144.22287576
 C      8   7   6     1.395277442397   117.13859933   144.23712952
 C      9   8   7     1.392740020374   119.68998661   176.94462770
 C     10   9   8     1.394916133630   120.44513114     0.36432170
 C     11  10   9     1.394977582831   119.43067018   359.55960977
 C     12  11  10     1.393173813948   120.68845410     0.05453994
 H     13  12  11     1.092973443471   120.74535928   180.59229665
 H     12  11  10     1.094210025495   120.07378903   180.55240153
 H     11  10   9     1.093444288806   120.31010710   179.72103080
 H     10   9   8     1.094148006206   119.44075403   180.04187545
 H      9   8   7     1.092693925246   118.64857315   357.14412477
 H      5   4   3     1.092693113486   121.66116843   180.15880902
 H      4   3   2     1.094148690981   120.11332781   179.88409909
 H      3   2   1     1.093444178239   120.25899370   179.89318534
 H      2   1   3     1.094210057968   119.23607457   179.50604792
 H      1   2   3     1.092973217528   120.74567785   180.59255996

---------------------------
INTERNAL COORDINATES (A.U.)
---------------------------
 C      0   0   0     0.000000000000     0.00000000     0.00000000
 C      1   0   0     2.632714338582     0.00000000     0.00000000
 C      2   1   0     2.636127379401   120.68821761     0.00000000
 C      3   2   1     2.636008316286   119.43084262     0.05454619
 C      4   3   2     2.631899836464   120.44507658   359.55954640
 C      5   4   3     2.636688846903   119.68985609     0.36426932
 O      6   5   4     2.578058140267   117.13941253   176.94418840
 C      7   6   5     2.578054970486   121.03404371   144.22287576
 C      8   7   6     2.636692246968   117.13859933   144.23712952
 C      9   8   7     2.631897214259   119.68998661   176.94462770
 C     10   9   8     2.636009472349   120.44513114     0.36432170
 C     11  10   9     2.636125594511   119.43067018   359.55960977
 C     12  11  10     2.632716965312   120.68845410     0.05453994
 H     13  12  11     2.065420479809   120.74535928   180.59229665
 H     12  11  10     2.067757281176   120.07378903   180.55240153
 H     11  10   9     2.066310248544   120.31010710   179.72103080
 H     10   9   8     2.067640081706   119.44075403   180.04187545
 H      9   8   7     2.064892266915   118.64857315   357.14412477
 H      5   4   3     2.064890732911   121.66116843   180.15880902
 H      4   3   2     2.067641375743   120.11332781   179.88409909
 H      3   2   1     2.066310039603   120.25899370   179.89318534
 H      2   1   3     2.067757342542   119.23607457   179.50604792
 H      1   2   3     2.065420052839   120.74567785   180.59255996

---------------------
BASIS SET INFORMATION
---------------------
There are 3 groups of distinct atoms

 Group   1 Type C   : 19s6p3d2f contracted to 5s4p3d2f pattern {88111/3111/111/11}
 Group   2 Type O   : 19s6p3d2f contracted to 5s4p3d2f pattern {88111/3111/111/11}
 Group   3 Type H   : 6s3p2d contracted to 4s3p2d pattern {3111/111/11}

Atom   0C    basis set group =>   1
Atom   1C    basis set group =>   1
Atom   2C    basis set group =>   1
Atom   3C    basis set group =>   1
Atom   4C    basis set group =>   1
Atom   5C    basis set group =>   1
Atom   6O    basis set group =>   2
Atom   7C    basis set group =>   1
Atom   8C    basis set group =>   1
Atom   9C    basis set group =>   1
Atom  10C    basis set group =>   1
Atom  11C    basis set group =>   1
Atom  12C    basis set group =>   1
Atom  13H    basis set group =>   3
Atom  14H    basis set group =>   3
Atom  15H    basis set group =>   3
Atom  16H    basis set group =>   3
Atom  17H    basis set group =>   3
Atom  18H    basis set group =>   3
Atom  19H    basis set group =>   3
Atom  20H    basis set group =>   3
Atom  21H    basis set group =>   3
Atom  22H    basis set group =>   3
---------------------------------
AUXILIARY/J BASIS SET INFORMATION
---------------------------------
There are 3 groups of distinct atoms

 Group   1 Type C   : 12s5p4d2f1g contracted to 6s4p3d1f1g pattern {711111/2111/211/2/1}
 Group   2 Type O   : 12s5p4d2f1g contracted to 6s4p3d1f1g pattern {711111/2111/211/2/1}
 Group   3 Type H   : 5s2p1d contracted to 3s1p1d pattern {311/2/1}

Atom   0C    basis set group =>   1
Atom   1C    basis set group =>   1
Atom   2C    basis set group =>   1
Atom   3C    basis set group =>   1
Atom   4C    basis set group =>   1
Atom   5C    basis set group =>   1
Atom   6O    basis set group =>   2
Atom   7C    basis set group =>   1
Atom   8C    basis set group =>   1
Atom   9C    basis set group =>   1
Atom  10C    basis set group =>   1
Atom  11C    basis set group =>   1
Atom  12C    basis set group =>   1
Atom  13H    basis set group =>   3
Atom  14H    basis set group =>   3
Atom  15H    basis set group =>   3
Atom  16H    basis set group =>   3
Atom  17H    basis set group =>   3
Atom  18H    basis set group =>   3
Atom  19H    basis set group =>   3
Atom  20H    basis set group =>   3
Atom  21H    basis set group =>   3
Atom  22H    basis set group =>   3


           ************************************************************
           *        Program running with 4 parallel MPI-processes     *
           *              working on a common directory               *
           ************************************************************
------------------------------------------------------------------------------
                             ORCA STARTUP CALCULATIONS
                           -- RI-GTO INTEGRALS CHOSEN --
------------------------------------------------------------------------------
------------------------------------------------------------------------------
                   ___                                                        
                  /   \      - P O W E R E D   B Y -                         
                 /     \                                                     
                 |  |  |   _    _      __       _____    __    __             
                 |  |  |  | |  | |    /  \     |  _  \  |  |  /  |          
                  \  \/   | |  | |   /    \    | | | |  |  | /  /          
                 / \  \   | |__| |  /  /\  \   | |_| |  |  |/  /          
                |  |  |   |  __  | /  /__\  \  |    /   |      \           
                |  |  |   | |  | | |   __   |  |    \   |  |\   \          
                \     /   | |  | | |  |  |  |  | |\  \  |  | \   \       
                 \___/    |_|  |_| |__|  |__|  |_| \__\ |__|  \__/        
                                                                              
                      - O R C A' S   B I G   F R I E N D -                    
                                      &                                       
                       - I N T E G R A L  F E E D E R -                       
                                                                              
 v1 FN, 2020, v2 2021, v3 2022-2024                                           
------------------------------------------------------------------------------


----------------------
SHARK INTEGRAL PACKAGE
----------------------

Number of atoms                             ...     23
Number of basis functions                   ...    906
Number of shells                            ...    350
Maximum angular momentum                    ...      3
Integral batch strategy                     ... SHARK/LIBINT Hybrid
RI-J (if used) integral strategy            ... SPLIT-RIJ (Revised 2003 algorithm where possible)
Printlevel                                  ...      1
Contraction scheme used                     ... PARTIAL GENERAL contraction
Prescreening option                         ... SCHWARTZ
   Thresh                                   ... 2.500e-11
   Tcut                                     ... 2.500e-12
   Tpresel                                  ... 2.500e-12 
Coulomb Range Separation                    ... NOT USED
Exchange Range Separation                   ... NOT USED
Multipole approximations                    ... NOT USED
Finite Nucleus Model                        ... NOT USED
CABS basis                                  ... NOT available
Auxiliary Coulomb fitting basis             ... AVAILABLE
   # of basis functions in Aux-J            ...    747
   # of shells in Aux-J                     ...    245
   Maximum angular momentum in Aux-J        ...      4
Auxiliary J/K fitting basis                 ... NOT available
Auxiliary Correlation fitting basis         ... NOT available
Auxiliary 'external' fitting basis          ... NOT available

Checking pre-screening integrals            ... done (  0.1 sec) Dimension = 350
Save PGC pre-screening integrals            ... done (  0.1 sec) Dimension = 350
Calculate PGC overlap integrals             ... done (  0.2 sec) Dimension = 272
Calculating pre-screening integrals (ORCA)  ... done (  0.3 sec) Dimension = 272
Check shell pair data                       ... done (  0.0 sec)
Shell pair information
Shell pair cut-off parameter TPreSel        ...   2.5e-12
Total number of shell pairs                 ...     61425
Shell pairs after pre-screening             ...     47746
Total number of primitive shell pairs       ...     78675
Primitive shell pairs kept                  ...     56378
          la=0 lb=0:  10728 shell pairs
          la=1 lb=0:  12204 shell pairs
          la=1 lb=1:   3071 shell pairs
          la=2 lb=0:   8411 shell pairs
          la=2 lb=1:   4290 shell pairs
          la=2 lb=2:   1546 shell pairs
          la=3 lb=0:   3852 shell pairs
          la=3 lb=1:   1934 shell pairs
          la=3 lb=2:   1382 shell pairs
          la=3 lb=3:    328 shell pairs

Calculating one electron integrals          ... done (  0.1 sec)
Calculating RI/J V-Matrix + Cholesky decomp.... done (  0.1 sec)
Calculating Nuclear repulsion               ... done (  0.0 sec) ENN=    702.695371263420 Eh

Diagonalization of the overlap matrix:
Smallest eigenvalue                        ... 5.507e-07
Time for diagonalization                   ...    0.131 sec
Threshold for overlap eigenvalues          ... 1.000e-07
Number of eigenvalues below threshold      ... 0

IMPORTANT:
Smallest eigenvalue of S below the DiffSThresh (1.000e-06) while
Thresh>1e-12 and/or TCut>1e-13! In order to avoid SCF convergence issues,
Thresh will be set to at least 1e-12 and TCut to at least 1e-13.
This can be turned off by adding %SCF DiffSThresh -1 END to the input.

Time for construction of square roots      ...    0.080 sec
Total time needed                          ...    0.245 sec

-------------------
DFT GRID GENERATION
-------------------

General Integration Accuracy     IntAcc      ... 4.388
Radial Grid Type                 RadialGrid  ... OptM3 with GC (2021)
Angular Grid (max. ang.)         AngularGrid ... 4 (Lebedev-302)
Angular grid pruning method      GridPruning ... 4 (adaptive)
Weight generation scheme         WeightScheme... mBecke (2022)
Basis function cutoff            BFCut       ... 1.0000e-11
Integration weight cutoff        WCut        ... 1.0000e-14
Partially contracted basis set               ... off
Rotationally invariant grid construction     ... off
Angular grids for H and He will be reduced by one unit
Diffuse basis detected: some atoms will have their outermost
                        angular grid increased by 1.

Total number of grid points                  ...   115450
Total number of batches                      ...     1816
Average number of points per batch           ...       63
Average number of grid points per atom       ...     5020

---------------------
SHARK GRID GENERATION
---------------------

General Integration Accuracy     IntAcc      ... 4.388
Radial Grid Type                 RadialGrid  ... OptM3 with GC (2021)
Angular Grid (max. ang.)         AngularGrid ... 4 (Lebedev-302)
Angular grid pruning method      GridPruning ... 4 (adaptive)
Weight generation scheme         WeightScheme... mBecke (2022)
Basis function cutoff            BFCut       ... 1.0000e-11
Integration weight cutoff        WCut        ... 1.0000e-14
Partially contracted basis set               ... off
Rotationally invariant grid construction     ... off
Angular grids for H and He will be reduced by one unit
Diffuse basis detected: some atoms will have their outermost
                        angular grid increased by 1.
Steep s-basis detected: some atoms will have their radial
                        grid points doubled.

Total number of grid points                  ...   197309
Total number of batches                      ...     3097
Average number of points per batch           ...       63
Average number of grid points per atom       ...     8579

--------------------
COSX GRID GENERATION
--------------------

GRIDX 1
-------
General Integration Accuracy     IntAcc      ... 3.816
Radial Grid Type                 RadialGrid  ... OptM3 with GC (2021)
Angular Grid (max. ang.)         AngularGrid ... 1 (Lebedev-50)
Angular grid pruning method      GridPruning ... 4 (adaptive)
Weight generation scheme         WeightScheme... mBecke (2022)
Basis function cutoff            BFCut       ... 1.0000e-11
Integration weight cutoff        WCut        ... 1.0000e-14
Partially contracted basis set               ... on
Rotationally invariant grid construction     ... off
Angular grids for H and He will be reduced by one unit
Diffuse basis detected: some atoms will have their outermost
                        angular grid increased by 1.

Total number of grid points                  ...    14538
Total number of batches                      ...      121
Average number of points per batch           ...      120
Average number of grid points per atom       ...      632
UseSFitting                                  ... on

GRIDX 2
-------
General Integration Accuracy     IntAcc      ... 4.020
Radial Grid Type                 RadialGrid  ... OptM3 with GC (2021)
Angular Grid (max. ang.)         AngularGrid ... 2 (Lebedev-110)
Angular grid pruning method      GridPruning ... 4 (adaptive)
Weight generation scheme         WeightScheme... mBecke (2022)
Basis function cutoff            BFCut       ... 1.0000e-11
Integration weight cutoff        WCut        ... 1.0000e-14
Partially contracted basis set               ... on
Rotationally invariant grid construction     ... off
Angular grids for H and He will be reduced by one unit
Diffuse basis detected: some atoms will have their outermost
                        angular grid increased by 1.

Total number of grid points                  ...    35274
Total number of batches                      ...      284
Average number of points per batch           ...      124
Average number of grid points per atom       ...     1534
UseSFitting                                  ... on

GRIDX 3
-------
General Integration Accuracy     IntAcc      ... 4.338
Radial Grid Type                 RadialGrid  ... OptM3 with GC (2021)
Angular Grid (max. ang.)         AngularGrid ... 3 (Lebedev-194)
Angular grid pruning method      GridPruning ... 4 (adaptive)
Weight generation scheme         WeightScheme... mBecke (2022)
Basis function cutoff            BFCut       ... 1.0000e-11
Integration weight cutoff        WCut        ... 1.0000e-14
Partially contracted basis set               ... on
Rotationally invariant grid construction     ... off
Angular grids for H and He will be reduced by one unit
Diffuse basis detected: some atoms will have their outermost
                        angular grid increased by 1.

Total number of grid points                  ...    78001
Total number of batches                      ...      619
Average number of points per batch           ...      126
Average number of grid points per atom       ...     3391
UseSFitting                                  ... on
Initializing property integral containers    ... done (  0.0 sec)

SHARK setup successfully completed in  10.2 seconds

Maximum memory used throughout the entire STARTUP-calculation: 111.2 MB


           ************************************************************
           *        Program running with 4 parallel MPI-processes     *
           *              working on a common directory               *
           ************************************************************
-------------------------------------------------------------------------------
                                 ORCA GUESS
                   Start orbitals & Density for SCF / CASSCF
-------------------------------------------------------------------------------

------------
SCF SETTINGS
------------
Hamiltonian:
 Density Functional     Method          .... DFT(GTOs)
 Exchange Functional    Exchange        .... TPSS
 Correlation Functional Correlation     .... TPSS
 LDA part of GGA corr.  LDAOpt          .... PW91-LDA
 Gradients option       PostSCFGGA      .... off
 Hybrid DFT is turned on
   Fraction HF Exchange ScalHFX         ....  0.100000
   Scaling of DF-GGA-X  ScalDFX         ....  0.900000
   Scaling of DF-GGA-C  ScalDFC         ....  1.000000
   Scaling of DF-LDA-C  ScalLDAC        ....  1.000000
   Perturbative correction              ....  0.000000
   NL short-range parameter             ....  5.200000
 RI-approximation to the Coulomb term is turned on
   Number of AuxJ basis functions       .... 747
   RIJ-COSX (HFX calculated with COS-X)).... on


General Settings:
 Integral files         IntName         .... cs_rporg_061_red_solv_01
 Hartree-Fock type      HFTyp           .... RHF
 Total Charge           Charge          ....    0
 Multiplicity           Mult            ....    1
 Number of Electrons    NEL             ....   90
 Basis Dimension        Dim             ....  828
 Nuclear Repulsion      ENuc            ....    702.6953712634 Eh

Convergence Acceleration:
 AO-DIIS                CNVDIIS         .... on
   Start iteration      DIISMaxIt       ....     0
   Startup error        DIISStart       ....  0.200000
   # of expansion vecs  DIISMaxEq       ....     5
   Bias factor          DIISBfac        ....   1.050
   Max. coefficient     DIISMaxC        ....  10.000
 MO-DIIS                CNVKDIIS        .... off
 Trust-Rad. Augm. Hess. CNVTRAH         .... auto
   Auto Start mean grad. ratio tolernc. ....  1.125000
   Auto Start start iteration           ....    50
   Auto Start num. interpolation iter.  ....    10
   Max. Number of Micro iterations      ....    24
   Max. Number of Macro iterations      .... Maxiter - #DIIS iter
   Number of Davidson start vectors     ....     2
   Converg. threshold    (grad. norm)   ....   1.000e-05
   Grad. Scal. Fac. for Micro threshold ....   0.100
   Minimum threshold for Micro iter.    ....   1.000e-02
   NR start threshold (gradient norm)   ....   1.000e-04
   Initial trust radius                 ....   0.400
   Minimum AH scaling param. (alpha)    ....   1.000
   Maximum AH scaling param. (alpha)    .... 1000.000
   Quad. conv. algorithm                .... NR
   White noise on init. David. guess    .... on
   Maximum white noise                  ....   0.010
   Pseudo random numbers                .... off
   Inactive MOs                         .... canonical
   Orbital update algorithm             .... Taylor
   Preconditioner                       .... Diag
   Full preconditioner red. dimension   ....   250
 SOSCF                  CNVSOSCF        .... on
   Start iteration      SOSCFMaxIt      ....   150
   Startup grad/error   SOSCFStart      ....  0.001000
   Hessian update       SOSCFHessUp     .... L-BFGS
 Level Shifting         CNVShift        .... on
   Level shift para.    LevelShift      ....    0.2500
   Turn off err/grad.   ShiftErr        ....    0.0000
 Zerner damping         CNVZerner       .... off
 Static damping         CNVDamp         .... on
   Fraction old density DampFac         ....    0.8500
   Max. Damping (<1)    DampMax         ....    0.9800
   Min. Damping (>=0)   DampMin         ....    0.0000
   Turn off err/grad.   DampErr         ....    0.0300

SCF Procedure:
 Maximum # iterations   MaxIter         ....  1500
 SCF integral mode      SCFMode         .... Direct
   Integral package                     .... SHARK and LIBINT hybrid scheme
 Reset frequency        DirectResetFreq ....    20
 Integral Threshold     Thresh          ....  1.000e-12 Eh
 Primitive CutOff       TCut            ....  1.000e-13 Eh

Convergence Tolerance:
 Convergence Check Mode ConvCheckMode   .... Total+1el-Energy
 Convergence forced     ConvForced      .... 0
 Energy Change          TolE            ....  1.000e-08 Eh
 1-El. energy change                    ....  1.000e-05 Eh
 Orbital Gradient       TolG            ....  1.000e-05
 Orbital Rotation angle TolX            ....  1.000e-05
 DIIS Error             TolErr          ....  5.000e-07

------------------------------
INITIAL GUESS: MODEL POTENTIAL
------------------------------
Loading Hartree-Fock densities                     ... done
Calculating cut-offs                               ... done
Initializing the effective Hamiltonian             ... done
Setting up the integral package (SHARK)            ... done
Starting the Coulomb interaction                   ... done (   0.8 sec)
Making the grid                                    ... done (   0.5 sec)
Mapping shells                                     ... done
Starting the XC term evaluation                    ... done (   1.2 sec)
  promolecular density results
     # of electrons  =     89.998912133
     EX              =    -72.468199834
     EC              =     -2.990762636
     EX+EC           =    -75.458962470
Transforming the Hamiltonian                       ... done (   0.1 sec)
Diagonalizing the Hamiltonian                      ... done (   0.1 sec)
Back transforming the eigenvectors                 ... done (   0.1 sec)
Now organizing SCF variables                       ... done
                      ------------------
                      INITIAL GUESS DONE (   3.0 sec)
                      ------------------
             **** ENERGY FILE WAS UPDATED (cs_rporg_061_red_solv_01.en.tmp) ****
Finished Guess after   4.0 sec
Maximum memory used throughout the entire GUESS-calculation: 85.8 MB


           ************************************************************
           *        Program running with 4 parallel MPI-processes     *
           *              working on a common directory               *
           ************************************************************

-------------------------------------------------------------------------------------------
                                      ORCA LEAN-SCF
                              memory conserving SCF solver
-------------------------------------------------------------------------------------------

--------------------
CPCM SOLVATION MODEL
--------------------
CPCM parameters:
  Epsilon                                         ...      35.6880
  Refrac                                          ...       1.3442
  Rsolv                                           ...       2.1900
  Surface type                                    ...    GEPOL SES
  Discretization scheme                           ... Constant num. charges
  Epsilon function type                           ...         CPCM
Solvent:                                          ... ACETONITRILE
SMD-CDS solvent descriptors:
  Soln                                            ...       1.3442
  Soln25                                          ...       1.3416
  Sola                                            ...       0.0700
  Solb                                            ...       0.3200
  Solg                                            ...      41.2500
  Solc                                            ...       0.0000
  Solh                                            ...       0.0000
Radii:
  Scheme                                          ... Element-dependent radii
  Radius for C  used is    3.4960 Bohr (=   1.8500 Ang.)
  Radius for O  used is    4.0969 Bohr (=   2.1680 Ang.)
  Radius for H  used is    2.2677 Bohr (=   1.2000 Ang.)
Calculating surface                               ...        done! (  0.0s)
Cavity surface points                             ...          773
Cavity Volume                                     ...    1320.7258
Cavity Surface-area                               ...     726.5526
Calculating surface distance matrix               ...        done! (  0.0s)
Performing Cholesky decomposition & store         ...        done! (  0.0s)
Overall time for CPCM initialization              ...                 0.1s

----------------------------------------D-I-I-S--------------------------------------------
Iteration    Energy (Eh)           Delta-E    RMSDP     MaxDP     DIISErr   Damp  Time(sec)
-------------------------------------------------------------------------------------------
               ***  Starting incremental Fock matrix formation  ***
    1    -538.4848027589019921     0.00e+00  9.94e-04  5.35e-02  1.35e-01  0.850  38.3
    2    -538.5499203430223361    -6.51e-02  9.76e-04  7.77e-02  1.05e-01  0.850  21.8
                               ***Turning on AO-DIIS***
    3    -538.5946967918854398    -4.48e-02  8.13e-04  6.80e-02  7.82e-02  0.850  21.7
    4    -538.6240242990016895    -2.93e-02  7.01e-04  5.05e-02  6.25e-02  0.850  21.0
    5    -538.6452811287064151    -2.13e-02  6.05e-04  4.41e-02  5.09e-02  0.850  20.1
    6    -538.6619472556686787    -1.67e-02  5.15e-04  4.02e-02  4.24e-02  0.850  20.1
    7    -538.6755785266988141    -1.36e-02  4.35e-04  3.44e-02  3.59e-02  0.850  19.8
    8    -538.6868491335197859    -1.13e-02  3.66e-04  2.85e-02  3.07e-02  0.850  19.6
    9    -538.6961239529524619    -9.27e-03  3.09e-04  2.35e-02  2.60e-02  0.850  19.9
   10    -538.7037681209386619    -7.64e-03  1.74e-03  1.31e-01  2.17e-02  0.000  19.5
   11    -538.7435049634224242    -3.97e-02  5.37e-05  5.12e-03  2.51e-03  0.000  20.9
   12    -538.7435312950848356    -2.63e-05  1.81e-05  1.41e-03  1.16e-03  0.000  18.3
                              *** Initializing SOSCF ***
---------------------------------------S-O-S-C-F--------------------------------------
Iteration    Energy (Eh)           Delta-E    RMSDP     MaxDP     MaxGrad    Time(sec)
--------------------------------------------------------------------------------------
   13    -538.7435372811058869    -5.99e-06  6.32e-06  3.15e-04  1.46e-04    17.3
               *** Restarting incremental Fock matrix formation ***
   14    -538.7435345292429929     2.75e-06  7.05e-04  4.45e-02  4.30e-05    36.6
   15    -538.7435345263992303     2.84e-09  1.80e-04  1.15e-02  7.88e-05    29.8
                 **** Energy Check signals convergence ****

               *****************************************************
               *                     SUCCESS                       *
               *           SCF CONVERGED AFTER  15 CYCLES          *
               *****************************************************

Recomputing exchange energy using gridx3       ... done (   50.659 sec)
Old exchange energy                            :     -7.404106823 Eh
New exchange energy                            :     -7.404112603 Eh
Exchange energy change after final integration :     -0.000005781 Eh
Total energy after final integration           :   -538.743540307 Eh

SMD CDS free energy correction energy :                -3.04100     Kcal/mol
Total Energy after SMD CDS correction =              -538.748386450 Eh
             **** ENERGY FILE WAS UPDATED (cs_rporg_061_red_solv_01.en.tmp) ****

----------------
TOTAL SCF ENERGY
----------------

Total Energy       :       -538.74838645032389 Eh          -14660.08890 eV

Components:
Nuclear Repulsion  :        702.69537126341982 Eh           19121.31316 eV
Electronic Energy  :      -1241.42823662994670 Eh          -33780.97971 eV
One Electron Energy:      -2122.01466238711191 Eh          -57742.95456 eV
Two Electron Energy:        880.58642575716522 Eh           23961.97485 eV
CPCM Dielectric    :         -0.01066915987234 Eh              -0.29032 eV
SMD CDS (Gcds)     :         -0.00484614316006 Eh              -0.13187 eV

Virial components:
Potential Energy   :      -1074.47196376001239 Eh          -29237.86856 eV
Kinetic Energy     :        535.72357730968861 Eh           14577.77966 eV
Virial Ratio       :          2.00564621246619

DFT components:
N(Alpha)           :       44.999981775864 electrons
N(Beta)            :       44.999981775864 electrons
N(Total)           :       89.999963551728 electrons
E(X)               :      -67.160563293655 Eh       
E(C)               :       -3.003279428660 Eh       
E(XC)              :      -70.163842722315 Eh       

CPCM Solvation Model Properties:
Surface-charge          :         -0.04995074833271
Corrected charge        :          0.00000000000000
Outlying charge corr.   :          0.00016249644372 Eh               0.00442 eV
Free-energy (cav+disp)  :         -0.00484614316006 Eh              -0.13187 eV

---------------
SCF CONVERGENCE
---------------

  Last Energy change         ...   -2.8438e-09  Tolerance :   1.0000e-08
  Last MAX-Density change    ...    1.1457e-02  Tolerance :   1.0000e-07
  Last RMS-Density change    ...    1.8032e-04  Tolerance :   5.0000e-09
  Last DIIS Error            ...    1.4583e-04  Tolerance :   5.0000e-07
  Last Orbital Gradient      ...    7.8818e-05  Tolerance :   1.0000e-05
  Last Orbital Rotation      ...    9.5977e-05  Tolerance :   1.0000e-05


----------------
ORBITAL ENERGIES
----------------

  NO   OCC          E(Eh)            E(eV) 
   0   2.0000     -19.101063      -519.7663 
   1   2.0000     -10.180386      -277.0224 
   2   2.0000     -10.180370      -277.0220 
   3   2.0000     -10.121140      -275.4102 
   4   2.0000     -10.121127      -275.4099 
   5   2.0000     -10.120947      -275.4050 
   6   2.0000     -10.120933      -275.4046 
   7   2.0000     -10.119320      -275.3607 
   8   2.0000     -10.119306      -275.3603 
   9   2.0000     -10.117785      -275.3189 
  10   2.0000     -10.117773      -275.3186 
  11   2.0000     -10.114569      -275.2314 
  12   2.0000     -10.114558      -275.2311 
  13   2.0000      -1.070786       -29.1376 
  14   2.0000      -0.844569       -22.9819 
  15   2.0000      -0.830094       -22.5880 
  16   2.0000      -0.748899       -20.3786 
  17   2.0000      -0.733275       -19.9534 
  18   2.0000      -0.729209       -19.8428 
  19   2.0000      -0.706427       -19.2229 
  20   2.0000      -0.620973       -16.8975 
  21   2.0000      -0.600658       -16.3447 
  22   2.0000      -0.588631       -16.0175 
  23   2.0000      -0.561717       -15.2851 
  24   2.0000      -0.529755       -14.4154 
  25   2.0000      -0.491078       -13.3629 
  26   2.0000      -0.469663       -12.7802 
  27   2.0000      -0.461086       -12.5468 
  28   2.0000      -0.452711       -12.3189 
  29   2.0000      -0.426706       -11.6113 
  30   2.0000      -0.422502       -11.4969 
  31   2.0000      -0.405702       -11.0397 
  32   2.0000      -0.405079       -11.0228 
  33   2.0000      -0.389622       -10.6021 
  34   2.0000      -0.384798       -10.4709 
  35   2.0000      -0.355651        -9.6778 
  36   2.0000      -0.348227        -9.4757 
  37   2.0000      -0.342922        -9.3314 
  38   2.0000      -0.339915        -9.2496 
  39   2.0000      -0.320531        -8.7221 
  40   2.0000      -0.315296        -8.5796 
  41   2.0000      -0.254153        -6.9159 
  42   2.0000      -0.248082        -6.7507 
  43   2.0000      -0.245755        -6.6873 
  44   2.0000      -0.213621        -5.8129 
  45   0.0000      -0.035755        -0.9730 
  46   0.0000      -0.029431        -0.8009 
  47   0.0000      -0.020893        -0.5685 
  48   0.0000      -0.010453        -0.2845 
  49   0.0000      -0.004342        -0.1181 
  50   0.0000       0.004975         0.1354 
  51   0.0000       0.012225         0.3326 
  52   0.0000       0.015028         0.4089 
  53   0.0000       0.021037         0.5724 
  54   0.0000       0.027473         0.7476 
  55   0.0000       0.033356         0.9077 
*Only the first 10 virtual orbitals were printed.

                    ********************************
                    * MULLIKEN POPULATION ANALYSIS *
                    ********************************

-----------------------
MULLIKEN ATOMIC CHARGES
-----------------------
   0 C :   -0.382512
   1 C :   -0.460090
   2 C :   -0.456120
   3 C :   -0.284900
   4 C :   -1.053486
   5 C :    1.235071
   6 O :   -0.934799
   7 C :    1.231907
   8 C :   -1.052186
   9 C :   -0.289441
  10 C :   -0.458253
  11 C :   -0.459799
  12 C :   -0.381713
  13 H :    0.436162
  14 H :    0.350460
  15 H :    0.404377
  16 H :    0.334083
  17 H :    0.350395
  18 H :    0.352616
  19 H :    0.327135
  20 H :    0.405075
  21 H :    0.348306
  22 H :    0.437709
Sum of atomic charges:   -0.0000000

--------------------------------
MULLIKEN REDUCED ORBITAL CHARGES
--------------------------------
  0 C s       :     3.707017  s :     3.707017
      pz      :     0.887090  p :     2.519258
      px      :     0.771655
      py      :     0.860513
      dz2     :     0.003385  d :     0.174647
      dxz     :     0.022989
      dyz     :    -0.023395
      dx2y2   :    -0.004377
      dxy     :     0.176046
      f0      :     0.000251  f :    -0.018411
      f+1     :    -0.001699
      f-1     :    -0.002450
      f+2     :     0.001113
      f-2     :    -0.003588
      f+3     :    -0.013289
      f-3     :     0.001252

  1 C s       :     3.562485  s :     3.562485
      pz      :     0.956556  p :     2.824084
      px      :     0.990288
      py      :     0.877241
      dz2     :     0.020076  d :     0.087154
      dxz     :     0.032638
      dyz     :     0.032718
      dx2y2   :     0.009826
      dxy     :    -0.008104
      f0      :     0.000211  f :    -0.013634
      f+1     :    -0.001100
      f-1     :    -0.000010
      f+2     :     0.001432
      f-2     :    -0.004785
      f+3     :    -0.007208
      f-3     :    -0.002174

  2 C s       :     3.420263  s :     3.420263
      pz      :     0.986289  p :     2.793241
      px      :     0.835460
      py      :     0.971493
      dz2     :     0.048768  d :     0.255858
      dxz     :    -0.007022
      dyz     :     0.042723
      dx2y2   :     0.025891
      dxy     :     0.145497
      f0      :    -0.000262  f :    -0.013242
      f+1     :     0.001401
      f-1     :    -0.000150
      f+2     :    -0.003036
      f-2     :    -0.003945
      f+3     :    -0.008110
      f-3     :     0.000860

  3 C s       :     3.360209  s :     3.360209
      pz      :     0.881246  p :     2.841850
      px      :     0.958617
      py      :     1.001987
      dz2     :     0.008798  d :     0.095007
      dxz     :    -0.034583
      dyz     :     0.006883
      dx2y2   :     0.003982
      dxy     :     0.109926
      f0      :     0.000333  f :    -0.012166
      f+1     :    -0.000566
      f-1     :    -0.000597
      f+2     :    -0.002118
      f-2     :    -0.001635
      f+3     :    -0.007287
      f-3     :    -0.000296

  4 C s       :     4.067043  s :     4.067043
      pz      :     1.039956  p :     2.815293
      px      :     0.834776
      py      :     0.940561
      dz2     :     0.033211  d :     0.193164
      dxz     :     0.021141
      dyz     :     0.054353
      dx2y2   :     0.049691
      dxy     :     0.034769
      f0      :    -0.000385  f :    -0.022014
      f+1     :    -0.002848
      f-1     :    -0.000646
      f+2     :     0.001909
      f-2     :    -0.005907
      f+3     :    -0.012518
      f-3     :    -0.001619

  5 C s       :     3.017669  s :     3.017669
      pz      :     0.756910  p :     1.799401
      px      :     0.247481
      py      :     0.795010
      dz2     :    -0.043774  d :    -0.064598
      dxz     :     0.009415
      dyz     :     0.035921
      dx2y2   :    -0.041082
      dxy     :    -0.025079
      f0      :     0.006149  f :     0.012458
      f+1     :     0.002173
      f-1     :     0.001916
      f+2     :    -0.002755
      f-2     :     0.006147
      f+3     :    -0.000920
      f-3     :    -0.000252

  6 O s       :     4.373216  s :     4.373216
      pz      :     1.761797  p :     4.473816
      px      :     1.138049
      py      :     1.573970
      dz2     :    -0.001769  d :     0.080158
      dxz     :     0.030805
      dyz     :     0.013624
      dx2y2   :     0.016139
      dxy     :     0.021361
      f0      :     0.000941  f :     0.007608
      f+1     :     0.000386
      f-1     :     0.000125
      f+2     :     0.000500
      f-2     :     0.001928
      f+3     :     0.003714
      f-3     :     0.000013

  7 C s       :     3.019714  s :     3.019714
      pz      :     0.756117  p :     1.799140
      px      :     0.246842
      py      :     0.796181
      dz2     :    -0.043362  d :    -0.063173
      dxz     :     0.009257
      dyz     :     0.035932
      dx2y2   :    -0.039571
      dxy     :    -0.025428
      f0      :     0.006140  f :     0.012411
      f+1     :     0.002188
      f-1     :     0.001905
      f+2     :    -0.002750
      f-2     :     0.006142
      f+3     :    -0.000963
      f-3     :    -0.000251

  8 C s       :     4.066694  s :     4.066694
      pz      :     1.039977  p :     2.813246
      px      :     0.832990
      py      :     0.940280
      dz2     :     0.033444  d :     0.194313
      dxz     :     0.021201
      dyz     :     0.054461
      dx2y2   :     0.050298
      dxy     :     0.034909
      f0      :    -0.000384  f :    -0.022067
      f+1     :    -0.002854
      f-1     :    -0.000645
      f+2     :     0.001905
      f-2     :    -0.005905
      f+3     :    -0.012570
      f-3     :    -0.001614

  9 C s       :     3.363608  s :     3.363608
      pz      :     0.880801  p :     2.841810
      px      :     0.958796
      py      :     1.002213
      dz2     :     0.008779  d :     0.096176
      dxz     :    -0.034220
      dyz     :     0.006875
      dx2y2   :     0.003909
      dxy     :     0.110834
      f0      :     0.000334  f :    -0.012154
      f+1     :    -0.000565
      f-1     :    -0.000585
      f+2     :    -0.002108
      f-2     :    -0.001641
      f+3     :    -0.007297
      f-3     :    -0.000291

 10 C s       :     3.420918  s :     3.420918
      pz      :     0.985785  p :     2.792123
      px      :     0.835482
      py      :     0.970856
      dz2     :     0.048625  d :     0.258450
      dxz     :    -0.006886
      dyz     :     0.043251
      dx2y2   :     0.026591
      dxy     :     0.146869
      f0      :    -0.000261  f :    -0.013238
      f+1     :     0.001407
      f-1     :    -0.000146
      f+2     :    -0.003043
      f-2     :    -0.003931
      f+3     :    -0.008115
      f-3     :     0.000851

 11 C s       :     3.561340  s :     3.561340
      pz      :     0.957000  p :     2.824630
      px      :     0.990182
      py      :     0.877448
      dz2     :     0.020048  d :     0.087471
      dxz     :     0.032649
      dyz     :     0.033185
      dx2y2   :     0.010149
      dxy     :    -0.008560
      f0      :     0.000209  f :    -0.013641
      f+1     :    -0.001095
      f-1     :    -0.000006
      f+2     :     0.001423
      f-2     :    -0.004781
      f+3     :    -0.007213
      f-3     :    -0.002179

 12 C s       :     3.708146  s :     3.708146
      pz      :     0.886682  p :     2.518921
      px      :     0.771700
      py      :     0.860539
      dz2     :     0.002931  d :     0.173089
      dxz     :     0.022754
      dyz     :    -0.023415
      dx2y2   :    -0.004920
      dxy     :     0.175739
      f0      :     0.000248  f :    -0.018443
      f+1     :    -0.001704
      f-1     :    -0.002454
      f+2     :     0.001117
      f-2     :    -0.003593
      f+3     :    -0.013326
      f-3     :     0.001269

 13 H s       :     0.584356  s :     0.584356
      pz      :    -0.006961  p :    -0.026511
      px      :     0.000534
      py      :    -0.020083
      dz2     :     0.002425  d :     0.005992
      dxz     :     0.001602
      dyz     :    -0.000317
      dx2y2   :     0.001205
      dxy     :     0.001077

 14 H s       :     0.612106  s :     0.612106
      pz      :     0.011524  p :     0.030169
      px      :    -0.002490
      py      :     0.021135
      dz2     :     0.003046  d :     0.007265
      dxz     :     0.000687
      dyz     :     0.000269
      dx2y2   :     0.001594
      dxy     :     0.001669

 15 H s       :     0.601486  s :     0.601486
      pz      :     0.012592  p :    -0.012456
      px      :    -0.019967
      py      :    -0.005082
      dz2     :    -0.000297  d :     0.006593
      dxz     :     0.003461
      dyz     :     0.000583
      dx2y2   :     0.001594
      dxy     :     0.001252

 16 H s       :     0.638510  s :     0.638510
      pz      :     0.022122  p :     0.020330
      px      :    -0.003032
      py      :     0.001240
      dz2     :     0.002629  d :     0.007077
      dxz     :     0.001070
      dyz     :    -0.000057
      dx2y2   :     0.001644
      dxy     :     0.001791

 17 H s       :     0.671183  s :     0.671183
      pz      :    -0.012589  p :    -0.025979
      px      :    -0.011025
      py      :    -0.002365
      dz2     :     0.002061  d :     0.004401
      dxz     :     0.000463
      dyz     :     0.000480
      dx2y2   :     0.001419
      dxy     :    -0.000022

 18 H s       :     0.669242  s :     0.669242
      pz      :    -0.012677  p :    -0.026264
      px      :    -0.011084
      py      :    -0.002504
      dz2     :     0.002065  d :     0.004406
      dxz     :     0.000463
      dyz     :     0.000480
      dx2y2   :     0.001416
      dxy     :    -0.000017

 19 H s       :     0.645250  s :     0.645250
      pz      :     0.022185  p :     0.020544
      px      :    -0.002773
      py      :     0.001133
      dz2     :     0.002634  d :     0.007071
      dxz     :     0.001063
      dyz     :    -0.000058
      dx2y2   :     0.001642
      dxy     :     0.001790

 20 H s       :     0.601048  s :     0.601048
      pz      :     0.012652  p :    -0.012726
      px      :    -0.020309
      py      :    -0.005068
      dz2     :    -0.000293  d :     0.006603
      dxz     :     0.003459
      dyz     :     0.000586
      dx2y2   :     0.001591
      dxy     :     0.001260

 21 H s       :     0.613969  s :     0.613969
      pz      :     0.011678  p :     0.030455
      px      :    -0.002459
      py      :     0.021236
      dz2     :     0.003049  d :     0.007270
      dxz     :     0.000687
      dyz     :     0.000268
      dx2y2   :     0.001595
      dxy     :     0.001671

 22 H s       :     0.583315  s :     0.583315
      pz      :    -0.007153  p :    -0.027019
      px      :     0.000173
      py      :    -0.020038
      dz2     :     0.002426  d :     0.005994
      dxz     :     0.001599
      dyz     :    -0.000316
      dx2y2   :     0.001209
      dxy     :     0.001076



                     *******************************
                     * LOEWDIN POPULATION ANALYSIS *
                     *******************************

----------------------
LOEWDIN ATOMIC CHARGES
----------------------
   0 C :    0.196847
   1 C :    0.184803
   2 C :    0.179609
   3 C :    0.178319
   4 C :    0.201721
   5 C :   -0.404086
   6 O :    0.623638
   7 C :   -0.404129
   8 C :    0.201687
   9 C :    0.178314
  10 C :    0.179620
  11 C :    0.184808
  12 C :    0.196832
  13 H :   -0.165570
  14 H :   -0.168796
  15 H :   -0.175692
  16 H :   -0.170105
  17 H :   -0.168813
  18 H :   -0.168816
  19 H :   -0.170118
  20 H :   -0.175701
  21 H :   -0.168806
  22 H :   -0.165567

-------------------------------
LOEWDIN REDUCED ORBITAL CHARGES
-------------------------------
  0 C s       :     2.478810  s :     2.478810
      pz      :     0.693300  p :     2.292930
      px      :     0.826790
      py      :     0.772839
      dz2     :     0.083077  d :     0.692125
      dxz     :     0.145166
      dyz     :     0.105872
      dx2y2   :     0.172211
      dxy     :     0.185798
      f0      :     0.038410  f :     0.339288
      f+1     :     0.021449
      f-1     :     0.041798
      f+2     :     0.044236
      f-2     :     0.053961
      f+3     :     0.086729
      f-3     :     0.052703

  1 C s       :     2.491423  s :     2.491423
      pz      :     0.685511  p :     2.284025
      px      :     0.837359
      py      :     0.761155
      dz2     :     0.079206  d :     0.702291
      dxz     :     0.152491
      dyz     :     0.094126
      dx2y2   :     0.221606
      dxy     :     0.154862
      f0      :     0.034592  f :     0.337457
      f+1     :     0.046904
      f-1     :     0.015905
      f+2     :     0.042610
      f-2     :     0.052303
      f+3     :     0.100678
      f-3     :     0.044465

  2 C s       :     2.492633  s :     2.492633
      pz      :     0.700712  p :     2.301582
      px      :     0.821822
      py      :     0.779047
      dz2     :     0.114119  d :     0.694573
      dxz     :     0.102684
      dyz     :     0.133952
      dx2y2   :     0.159878
      dxy     :     0.183939
      f0      :     0.022486  f :     0.331603
      f+1     :     0.040982
      f-1     :     0.036998
      f+2     :     0.051359
      f-2     :     0.061141
      f+3     :     0.071832
      f-3     :     0.046805

  3 C s       :     2.492911  s :     2.492911
      pz      :     0.684986  p :     2.286954
      px      :     0.823980
      py      :     0.777988
      dz2     :     0.081915  d :     0.704922
      dxz     :     0.142671
      dyz     :     0.106873
      dx2y2   :     0.163054
      dxy     :     0.210409
      f0      :     0.037655  f :     0.336894
      f+1     :     0.019279
      f-1     :     0.039488
      f+2     :     0.042651
      f-2     :     0.055816
      f+3     :     0.090806
      f-3     :     0.051199

  4 C s       :     2.489223  s :     2.489223
      pz      :     0.690586  p :     2.295852
      px      :     0.834930
      py      :     0.770336
      dz2     :     0.077924  d :     0.671640
      dxz     :     0.147555
      dyz     :     0.088962
      dx2y2   :     0.201068
      dxy     :     0.156131
      f0      :     0.035413  f :     0.341564
      f+1     :     0.049771
      f-1     :     0.016188
      f+2     :     0.042105
      f-2     :     0.052523
      f+3     :     0.097373
      f-3     :     0.048190

  5 C s       :     2.456399  s :     2.456399
      pz      :     0.717774  p :     2.223339
      px      :     0.726876
      py      :     0.778689
      dz2     :     0.151884  d :     1.081751
      dxz     :     0.216809
      dyz     :     0.171167
      dx2y2   :     0.247725
      dxy     :     0.294166
      f0      :     0.062941  f :     0.642597
      f+1     :     0.069603
      f-1     :     0.051074
      f+2     :     0.070770
      f-2     :     0.112697
      f+3     :     0.176186
      f-3     :     0.099324

  6 O s       :     2.955906  s :     2.955906
      pz      :     1.359527  p :     3.828323
      px      :     1.152447
      py      :     1.316348
      dz2     :     0.040496  d :     0.460600
      dxz     :     0.109512
      dyz     :     0.032842
      dx2y2   :     0.141784
      dxy     :     0.135966
      f0      :     0.015156  f :     0.131534
      f+1     :     0.012074
      f-1     :     0.004856
      f+2     :     0.007978
      f-2     :     0.021859
      f+3     :     0.047968
      f-3     :     0.021642

  7 C s       :     2.456403  s :     2.456403
      pz      :     0.717743  p :     2.223359
      px      :     0.726898
      py      :     0.778718
      dz2     :     0.151863  d :     1.081770
      dxz     :     0.216806
      dyz     :     0.171162
      dx2y2   :     0.247752
      dxy     :     0.294188
      f0      :     0.062929  f :     0.642597
      f+1     :     0.069604
      f-1     :     0.051059
      f+2     :     0.070761
      f-2     :     0.112701
      f+3     :     0.176214
      f-3     :     0.099328

  8 C s       :     2.489226  s :     2.489226
      pz      :     0.690570  p :     2.295869
      px      :     0.834935
      py      :     0.770364
      dz2     :     0.077917  d :     0.671649
      dxz     :     0.147540
      dyz     :     0.088951
      dx2y2   :     0.201093
      dxy     :     0.156148
      f0      :     0.035405  f :     0.341569
      f+1     :     0.049776
      f-1     :     0.016185
      f+2     :     0.042094
      f-2     :     0.052526
      f+3     :     0.097391
      f-3     :     0.048193

  9 C s       :     2.492911  s :     2.492911
      pz      :     0.684947  p :     2.286948
      px      :     0.823988
      py      :     0.778013
      dz2     :     0.081909  d :     0.704925
      dxz     :     0.142647
      dyz     :     0.106873
      dx2y2   :     0.163067
      dxy     :     0.210429
      f0      :     0.037651  f :     0.336902
      f+1     :     0.019277
      f-1     :     0.039485
      f+2     :     0.042653
      f-2     :     0.055814
      f+3     :     0.090823
      f-3     :     0.051201

 10 C s       :     2.492633  s :     2.492633
      pz      :     0.700674  p :     2.301577
      px      :     0.821834
      py      :     0.779068
      dz2     :     0.114088  d :     0.694563
      dxz     :     0.102675
      dyz     :     0.133938
      dx2y2   :     0.159896
      dxy     :     0.183967
      f0      :     0.022486  f :     0.331607
      f+1     :     0.040974
      f-1     :     0.036990
      f+2     :     0.051353
      f-2     :     0.061140
      f+3     :     0.071855
      f-3     :     0.046809

 11 C s       :     2.491423  s :     2.491423
      pz      :     0.685473  p :     2.284018
      px      :     0.837367
      py      :     0.761178
      dz2     :     0.079194  d :     0.702290
      dxz     :     0.152479
      dyz     :     0.094112
      dx2y2   :     0.221635
      dxy     :     0.154869
      f0      :     0.034582  f :     0.337462
      f+1     :     0.046907
      f-1     :     0.015901
      f+2     :     0.042599
      f-2     :     0.052307
      f+3     :     0.100695
      f-3     :     0.044470

 12 C s       :     2.478811  s :     2.478811
      pz      :     0.693274  p :     2.292938
      px      :     0.826798
      py      :     0.772865
      dz2     :     0.083080  d :     0.692127
      dxz     :     0.145143
      dyz     :     0.105872
      dx2y2   :     0.172224
      dxy     :     0.185808
      f0      :     0.038405  f :     0.339292
      f+1     :     0.021448
      f-1     :     0.041797
      f+2     :     0.044236
      f-2     :     0.053959
      f+3     :     0.086742
      f-3     :     0.052705

 13 H s       :     0.643604  s :     0.643604
      pz      :     0.094246  p :     0.302615
      px      :     0.124001
      py      :     0.084368
      dz2     :     0.037719  d :     0.219351
      dxz     :     0.048813
      dyz     :     0.031837
      dx2y2   :     0.055260
      dxy     :     0.045722

 14 H s       :     0.663941  s :     0.663941
      pz      :     0.096800  p :     0.294907
      px      :     0.076325
      py      :     0.121781
      dz2     :     0.039565  d :     0.209948
      dxz     :     0.025514
      dyz     :     0.051859
      dx2y2   :     0.035847
      dxy     :     0.057163

 15 H s       :     0.667405  s :     0.667405
      pz      :     0.080635  p :     0.298255
      px      :     0.127673
      py      :     0.089946
      dz2     :     0.018867  d :     0.210032
      dxz     :     0.054759
      dyz     :     0.017580
      dx2y2   :     0.063072
      dxy     :     0.055755

 16 H s       :     0.665027  s :     0.665027
      pz      :     0.093999  p :     0.295356
      px      :     0.113716
      py      :     0.087641
      dz2     :     0.037448  d :     0.209721
      dxz     :     0.042811
      dyz     :     0.032043
      dx2y2   :     0.055999
      dxy     :     0.041420

 17 H s       :     0.660476  s :     0.660476
      pz      :     0.096022  p :     0.294573
      px      :     0.076239
      py      :     0.122312
      dz2     :     0.039358  d :     0.213763
      dxz     :     0.025516
      dyz     :     0.052843
      dx2y2   :     0.039852
      dxy     :     0.056194

 18 H s       :     0.660480  s :     0.660480
      pz      :     0.096029  p :     0.294576
      px      :     0.076242
      py      :     0.122305
      dz2     :     0.039363  d :     0.213760
      dxz     :     0.025523
      dyz     :     0.052841
      dx2y2   :     0.039847
      dxy     :     0.056186

 19 H s       :     0.665034  s :     0.665034
      pz      :     0.094011  p :     0.295363
      px      :     0.113712
      py      :     0.087641
      dz2     :     0.037457  d :     0.209721
      dxz     :     0.042810
      dyz     :     0.032049
      dx2y2   :     0.055991
      dxy     :     0.041413

 20 H s       :     0.667409  s :     0.667409
      pz      :     0.080637  p :     0.298260
      px      :     0.127675
      py      :     0.089948
      dz2     :     0.018865  d :     0.210033
      dxz     :     0.054763
      dyz     :     0.017579
      dx2y2   :     0.063069
      dxy     :     0.055756

 21 H s       :     0.663946  s :     0.663946
      pz      :     0.096808  p :     0.294911
      px      :     0.076327
      py      :     0.121776
      dz2     :     0.039571  d :     0.209948
      dxz     :     0.025520
      dyz     :     0.051858
      dx2y2   :     0.035845
      dxy     :     0.057155

 22 H s       :     0.643615  s :     0.643615
      pz      :     0.094253  p :     0.302603
      px      :     0.123988
      py      :     0.084362
      dz2     :     0.037724  d :     0.219349
      dxz     :     0.048814
      dyz     :     0.031843
      dx2y2   :     0.055252
      dxy     :     0.045716



                      *****************************
                      * MAYER POPULATION ANALYSIS *
                      *****************************

  NA   - Mulliken gross atomic population
  ZA   - Total nuclear charge
  QA   - Mulliken gross atomic charge
  VA   - Mayer's total valence
  BVA  - Mayer's bonded valence
  FA   - Mayer's free valence

  ATOM       NA         ZA         QA         VA         BVA        FA
  0 C      6.3825     6.0000    -0.3825     3.5862     3.5862     0.0000
  1 C      6.4601     6.0000    -0.4601     3.2425     3.2425    -0.0000
  2 C      6.4561     6.0000    -0.4561     3.9441     3.9441    -0.0000
  3 C      6.2849     6.0000    -0.2849     3.3347     3.3347    -0.0000
  4 C      7.0535     6.0000    -1.0535     3.3407     3.3407    -0.0000
  5 C      4.7649     6.0000     1.2351     1.3326     1.3326     0.0000
  6 O      8.9348     8.0000    -0.9348     1.3835     1.3835     0.0000
  7 C      4.7681     6.0000     1.2319     1.3395     1.3395    -0.0000
  8 C      7.0522     6.0000    -1.0522     3.3337     3.3337     0.0000
  9 C      6.2894     6.0000    -0.2894     3.3337     3.3337     0.0000
 10 C      6.4583     6.0000    -0.4583     3.9490     3.9490     0.0000
 11 C      6.4598     6.0000    -0.4598     3.2426     3.2426    -0.0000
 12 C      6.3817     6.0000    -0.3817     3.5840     3.5840    -0.0000
 13 H      0.5638     1.0000     0.4362     0.4690     0.4690    -0.0000
 14 H      0.6495     1.0000     0.3505     0.9048     0.9048    -0.0000
 15 H      0.5956     1.0000     0.4044     0.6983     0.6983    -0.0000
 16 H      0.6659     1.0000     0.3341     0.8861     0.8861     0.0000
 17 H      0.6496     1.0000     0.3504     0.6349     0.6349     0.0000
 18 H      0.6474     1.0000     0.3526     0.6309     0.6309    -0.0000
 19 H      0.6729     1.0000     0.3271     0.8930     0.8930    -0.0000
 20 H      0.5949     1.0000     0.4051     0.6938     0.6938    -0.0000
 21 H      0.6517     1.0000     0.3483     0.9076     0.9076    -0.0000
 22 H      0.5623     1.0000     0.4377     0.4667     0.4667     0.0000

  Mayer bond orders larger than 0.100000
B(  0-C ,  1-C ) :   1.3558 B(  0-C ,  4-C ) :   0.3310 B(  0-C ,  5-C ) :   1.0603 
B(  0-C ,  7-C ) :  -0.1137 B(  0-C , 12-C ) :   0.3104 B(  0-C , 22-H ) :   0.4709 
B(  1-C ,  2-C ) :   1.4360 B(  1-C ,  4-C ) :  -0.1053 B(  1-C ,  5-C ) :  -0.2902 
B(  1-C , 21-H ) :   0.7443 B(  2-C ,  3-C ) :   1.4491 B(  2-C ,  4-C ) :   0.3894 
B(  2-C , 20-H ) :   0.5528 B(  3-C ,  4-C ) :   1.4708 B(  3-C ,  5-C ) :  -0.3335 
B(  3-C , 19-H ) :   0.7386 B(  4-C ,  5-C ) :   0.5251 B(  4-C ,  6-O ) :   0.2742 
B(  4-C , 18-H ) :   0.4069 B(  4-C , 19-H ) :   0.1286 B(  5-C ,  6-O ) :   0.3145 
B(  5-C , 12-C ) :  -0.1117 B(  5-C , 18-H ) :   0.1133 B(  6-O ,  7-C ) :   0.3122 
B(  6-O ,  8-C ) :   0.2747 B(  7-C ,  8-C ) :   0.5252 B(  7-C ,  9-C ) :  -0.3335 
B(  7-C , 11-C ) :  -0.2887 B(  7-C , 12-C ) :   1.0602 B(  7-C , 17-H ) :   0.1127 
B(  8-C ,  9-C ) :   1.4698 B(  8-C , 10-C ) :   0.3888 B(  8-C , 11-C ) :  -0.1065 
B(  8-C , 12-C ) :   0.3291 B(  8-C , 16-H ) :   0.1265 B(  8-C , 17-H ) :   0.4096 
B(  9-C , 10-C ) :   1.4506 B(  9-C , 16-H ) :   0.7312 B( 10-C , 11-C ) :   1.4365 
B( 10-C , 15-H ) :   0.5538 B( 11-C , 12-C ) :   1.3554 B( 11-C , 14-H ) :   0.7402 
B( 12-C , 13-H ) :   0.4726 

-------
TIMINGS
-------

Total SCF time: 0 days 0 hours 6 min 37 sec 

Total time                  ....     397.344 sec
Sum of individual times     ....     396.846 sec  ( 99.9%)

SCF preparation             ....       1.116 sec  (  0.3%)
Fock matrix formation       ....     384.850 sec  ( 96.9%)
  Startup                   ....       0.677 sec  (  0.2% of F)
  Split-RI-J                ....      21.910 sec  (  5.7% of F)
  Chain of spheres X        ....     229.477 sec  ( 59.6% of F)
  XC integration            ....     120.906 sec  ( 31.4% of F)
    XC Preparation          ....       0.000 sec  (  0.0% of XC)
    Basis function eval.    ....      10.018 sec  (  8.3% of XC)
    Density eval.           ....      40.148 sec  ( 33.2% of XC)
    XC-Functional eval.     ....       1.050 sec  (  0.9% of XC)
    XC-Potential eval.      ....      64.183 sec  ( 53.1% of XC)
  CPCM terms                ....      10.074 sec  (  2.6% of F)
Diagonalization             ....       0.000 sec  (  0.0%)
Density matrix formation    ....       1.580 sec  (  0.4%)
Total Energy calculation    ....       0.740 sec  (  0.2%)
Population analysis         ....       0.301 sec  (  0.1%)
Orbital Transformation      ....       0.679 sec  (  0.2%)
Orbital Orthonormalization  ....       0.000 sec  (  0.0%)
DIIS solution               ....       6.765 sec  (  1.7%)
SOSCF solution              ....       0.815 sec  (  0.2%)
Finished LeanSCF after 397.5 sec

Maximum memory used throughout the entire LEANSCF-calculation: 147.3 MB


-------------------------------------------------------------------------------
                          DFT DISPERSION CORRECTION                            
                                                                               
                              DFTD3 V3.1  Rev 1                                
                          USING Becke-Johnson damping                          
-------------------------------------------------------------------------------
The TPSSH functional is recognized
Active option DFTDOPT                   ...         4   

molecular C6(AA) [au] = 6554.502281 


            DFT-D V3
 parameters
 s6 scaling factor         :     1.0000 
 a1 scaling factor         :     0.4529 
 s8 scaling factor         :     2.2382 
 a2 scaling factor         :     4.6550 
 ad hoc parameters k1-k3   :    16.0000     1.3333    -4.0000 

 Edisp/kcal,au: -19.712954906291  -0.031414589928 
 E6   /kcal   :  -9.323306917 
 E8   /kcal   : -10.389647989 
 % E8         :  52.704670804 

-------------------------   ----------------
Dispersion correction           -0.031414590
-------------------------   ----------------


-------------------------   --------------------
FINAL SINGLE POINT ENERGY      -538.779801040252
-------------------------   --------------------



           ************************************************************
           *        Program running with 4 parallel MPI-processes     *
           *              working on a common directory               *
           ************************************************************

------------------------------------------------------------------------------
                              ORCA PROPERTY CALCULATIONS
------------------------------------------------------------------------------

GBWName                                 ... cs_rporg_061_red_solv_01.gbw
Number of atoms                         ...     23
Number of basis functions               ...    906
Max core memory                         ...   3000 MB

Electric properties:
Dipole moment                           ... YES
Quadrupole moment                       ...  NO
Static polarizability (Dipole/Dipole)   ...  NO
Static polarizability (Dipole/Quad.)    ...  NO
Static polarizability (Quad./Quad.)     ...  NO
Static polarizability (Velocity)        ...  NO

Atomic electric properties:
Dipole moment                           ...  NO
Quadrupole moment                       ...  NO
Static polarizability                   ...  NO

Choice of electric origin               ... Center of mass
Position of electric origin             ...     0.000001     0.002042    -0.000028

General magnetic properties:
Magnetizability                         ...  NO

EPR properties:
g-Tensor (aka g-matrix)                 ...  NO
Zero-Field splitting spin-orbit         ...  NO
Zero-field splitting spin-spin          ...  NO
Hyperfine couplings                     ...  NO (   0 nuclei)
Quadrupole couplings                    ...  NO (   0 nuclei)
Contact density                         ...  NO (   0 nuclei)

NMR properties:
Chemical shifts                         ...  NO (   0 nuclei)
Spin-rotation constants                 ...  NO (   0 nuclei)
Spin-spin couplings                     ...  NO (   0 nuclei,    0 pairs)

Choice of magnetic origin               ... GIAO
Position of magnetic origin             ...     0.000000     0.000000     0.000000

Properties with geometric perturbations:
SCF Hessian                             ...  NO
IR spectrum                             ...  NO
VCD spectrum                            ...  NO
X-ray spectroscopy properties:
SCF XES/XAS/RIXS spectra                ...  NO


-------------
DIPOLE MOMENT
-------------

Method             : SCF
Type of density    : Electron Density
Multiplicity       :   1
Irrep              :   0
Energy             :  -538.7483864503238919 Eh
Relativity type    : 
Basis              : AO
                                X                 Y                 Z
Electronic contribution:     -0.000185989       2.491799804      -0.000060589
Nuclear contribution   :      0.000034886      -2.982425974      -0.000176877
                        -----------------------------------------
Total Dipole Moment    :     -0.000151103      -0.490626170      -0.000237465
                        -----------------------------------------
Magnitude (a.u.)       :      0.490626251
Magnitude (Debye)      :      1.247072823



--------------------
Rotational spectrum 
--------------------
 
Rotational constants in cm-1:             0.080234             0.014509             0.013552 
Rotational constants in MHz :          2405.352266           434.979833           406.266844 

Dipole components along the rotational axes: 
x,y,z [a.u.] :     0.000154    -0.490626    -0.000241 
x,y,z [Debye]:     0.000392    -1.247073    -0.000613 

 

Dipole moment calculation done in   0.1 sec 

Maximum memory used throughout the entire PROP-calculation: 88.2 MB

--------------------------------
SUGGESTED CITATIONS FOR THIS RUN
--------------------------------

Below you find a list of papers that are relevant to this ORCA run
We neither can nor want to force you to cite these papers, but we appreciate if you do
You receive ORCA, which is the product of decades of hard work by many enthusiastic individuals, for free
The only thing we kindly ask in return is that you cite our papers,
We deeply appreciate it, if you show your appreciation for ORCA by not just citing the generic ORCA reference.

Please note that relegating all ORCA citations to the supporting information does *not* help us.
SI sections are not indexed - citations you put there will not count into any citation statistics
But we need these citations in order to attract the funding resources that allow us to do what we are doing

Therefore, if you are a happy ORCA user, please consider citing a few of the papers listed below in the main body of your paper

In addition to the list printed below, the program has created the file cs_rporg_061_red_solv_01.bibtex that contains the list in bibtex format
You can import this file easily into all common literature databanks and citation aid programs


List of essential papers. We consider these as the minimum necessary citations

  1. Neese,F.
     Software update: the ORCA program system, version 5.0
     WIRES Comput. Molec. Sci., 2022 12(1)e1606
     doi.org/10.1002/wcms.1606

List of papers to cite with high priority. The work reported in these papers was absolutely
necessary for this run to complete.
Our perspective: the developers of density functionals and basis sets usually get cited in chemistry papers
Good! But without the algorithms to do something with them, the functionals or basis sets would not do anything.
Hence, in our opinion, the algorithm design and method developments papers are equally worthy of getting cited

  1. Neese,F.
     An improvement of the resolution of the identity approximation for the formation of the Coulomb matrix
     J. Comp. Chem., 2003 24(14)1740-1747
     doi.org/10.1002/jcc.10318
  2. Neese,F.; Wennmohs,F.; Hansen,A.; Becker,U.
     Efficient, approximate and parallel Hartree-Fock and hybrid DFT calculations. A 'chain-of-spheres' algorithm for the Hartree-Fock exchange
     Chem. Phys., 2009 356(1-3)98-109
     doi.org/10.1016/j.chemphys.2008.10.036
  3. Garcia-Rates,M.; Neese,F.
     Effect of the Solute Cavity on the Solvation Energy and its Derivatives within the Framework of the Gaussian Charge Scheme
     J. Comput. Chem., 2020 41 922-939
     doi.org/10.1002/jcc.26139
  4. Helmich-Paris,B.; de Souza,B.; Neese,F.; Izsák,R.
     An improved chain of spheres for exchange algorithm
     J. Chem. Phys., 2021 155 104109
     doi.org/doi: 10.1063/5.0058766.
  5. Neese,F.
     The SHARK Integral Generation and Digestion System
     J. Comp. Chem., 2022  1-16
     doi.org/10.1002/jcc.26942
  6. Grimme,S.; Antony,J.; Ehrlich,S.; Krieg,H.
     A consistent and accurate ab initio parametrization of density functional dispersion correction (DFT-D) for the 94 elements H-Pu
     J. Chem. Phys., 2010 132 154104-XXXX
     doi.org/10.1063/1.3382344
  7. Grimme,S.; Ehrlich,S.; Goerigk,L.
     Effect of the damping function in dispersion corrected density functional theory
     J. Comput. Chem., 2011 32(7)1456-1465
     doi.org/10.1002/jcc.21759

List of suggested additional citations. These are papers that are important in the 'surrounding' of 
of this run, or papers that preceded the highly important papers. If you like your results we are grateful for a citation.

  1. Izsak,R.; Neese,F.
     An overlap fitted chain of spheres exchange method
     J. Chem. Phys., 2011 135 144105
     doi.org/10.1063/1.3646921
  2. Izsak,R.; Hansen,A.; Neese,F.
     The resolution of identity and chain of spheres approximations for the LPNO-CCSD singles Fock term
     Molec. Phys., 2012 110 2413-2417
     doi.org/10.1080/00268976.2012.687466
  3. Neese,F.
     The ORCA program system
     WIRES Comput. Molec. Sci., 2012 2(1)73-78
     doi.org/10.1002/wcms.81
  4. Izsak,R.; Neese,F.; Klopper,W.
     Robust fitting techniques in the chain of spheres approximation to the Fock exchange: The role of the complementary space
     J. Chem. Phys., 2013 139 
     doi.org/10.1063/1.4819264
  5. Neese,F.
     Software update: the ORCA program system, version 4.0
     WIRES Comput. Molec. Sci., 2018 8(1)1-6
     doi.org/10.1002/wcms.1327
  6. Neese,F.; Wennmohs,F.; Becker,U.; Riplinger,C.
     The ORCA quantum chemistry program package
     J. Chem. Phys., 2020 152 Art. No. L224108
     doi.org/10.1063/5.0004608

List of optional additional citations

  1. Neese,F.
     Approximate second-order SCF convergence for spin unrestricted wavefunctions
     Chem. Phys. Lett., 2000 325(1-3)93-98
     doi.org/10.1016/s0009-2614(00)00662-x

Timings for individual modules:

Sum of individual times          ...      418.019 sec (=   6.967 min)
Startup calculation              ...       11.972 sec (=   0.200 min)   2.9 %
SCF iterations                   ...      404.092 sec (=   6.735 min)  96.7 %
Property calculations            ...        1.955 sec (=   0.033 min)   0.5 %
                             ****ORCA TERMINATED NORMALLY****
TOTAL RUN TIME: 0 days 0 hours 7 minutes 0 seconds 587 msec
