 vasp.6.3.2 27Jun22 (build Oct 25 2024 11:36:28) complex                        
  
 executed on             LinuxIFC date 2025.09.09  14:59:41
 running on   90 total cores
 distrk:  each k-point on   90 cores,    1 groups
 distr:  one band on NCORE=  10 cores,    9 groups


--------------------------------------------------------------------------------------------------------


 INCAR:
   SYSTEM = 063_red
   ISTART = 1
   ICHARG = 2
   INIWAV = 1
   LHFCALC = .TRUE.
   HFSCREEN = 0.2
   NELM = 500
   ALGO = Damped
   ISPIN = 2
   EDIFF = 1E-05
   ISMEAR = 0
   SIGMA = 0.05
   PREC = accurate
   ENCUT = 500
   LREAL = auto  	
   LDIAG = .FALSE.
   LWAVE = .TRUE.
   LCHARG = .FALSE.
   LAECHG = .FALSE.
   LVHAR = .FALSE.
   LVTOT = .FALSE.
   EDIFFG = -0.02
   IBRION = 2
   NSW = 0
   ISIF = 2
   POTIM = 0.5
   IVDW = 12
   VDW_A1 = 0.383
   VDW_S8 = 2.310
   VDW_A2 = 5.685
   LPLANE = .TRUE.
   NCORE = 10
   LSCALU = .FALSE.
   NSIM = 4
   LSOL = .TRUE.
   ISOL = 2
   R_SOLV = 2.1900
   EPSILON_INF = 1.8069
   N_MOL = 0.0115
   P_MOL = 0.82
   EB_K = 35.6880

 POTCAR:    PAW_PBE C 08Apr2002                   
 POTCAR:    PAW_PBE N 08Apr2002                   
 POTCAR:    PAW_PBE H 15Jun2001                   
 -----------------------------------------------------------------------------
|                                                                             |
|           W    W    AA    RRRRR   N    N  II  N    N   GGGG   !!!           |
|           W    W   A  A   R    R  NN   N  II  NN   N  G    G  !!!           |
|           W    W  A    A  R    R  N N  N  II  N N  N  G       !!!           |
|           W WW W  AAAAAA  RRRRR   N  N N  II  N  N N  G  GGG   !            |
|           WW  WW  A    A  R   R   N   NN  II  N   NN  G    G                |
|           W    W  A    A  R    R  N    N  II  N    N   GGGG   !!!           |
|                                                                             |
|     You use a magnetic or noncollinear calculation, but did not specify     |
|     the initial magnetic moment with the MAGMOM tag. Note that a            |
|     default of 1 will be used for all atoms. This ferromagnetic setup       |
|     may break the symmetry of the crystal, in particular it may rule        |
|     out finding an antiferromagnetic solution. Thence, we recommend         |
|     setting the initial magnetic moment manually or verifying carefully     |
|     that this magnetic setup is desired.                                    |
|                                                                             |
 -----------------------------------------------------------------------------

 POTCAR:    PAW_PBE C 08Apr2002                   
   SHA256 =  253f7b50bb8d59471dbedb8285d89021f4a42ed1a2c5d38a03a736e69125dd95 C/POTCAR              
   COPYR  = (c) Copyright 08Apr2002 Georg Kresse                                                    
   COPYR  = This file is part of the software VASP. Any use, copying, and all other rights are regul
   COPYR  = If you do not have a valid VASP license, you may not use, copy or distribute this file. 
   VRHFIN =C: s2p2                                                                                  
   LEXCH  = PE                                                                                      
   EATOM  =   147.1560 eV,   10.8157 Ry                                                             
                                                                                                    
   TITEL  = PAW_PBE C 08Apr2002                                                                     
   LULTRA =        F    use ultrasoft PP ?                                                          
   IUNSCR =        1    unscreen: 0-lin 1-nonlin 2-no                                               
   RPACOR =    1.200    partial core radius                                                         
   POMASS =   12.011; ZVAL   =    4.000    mass and valenz                                          
   RCORE  =    1.500    outmost cutoff radius                                                       
   RWIGS  =    1.630; RWIGS  =    0.863    wigner-seitz radius (au A)                               
   ENMAX  =  400.000; ENMIN  =  300.000 eV                                                          
   ICORE  =        2    local potential                                                             
   LCOR   =        T    correct aug charges                                                         
   LPAW   =        T    paw PP                                                                      
   EAUG   =  644.873                                                                                
   DEXC   =    0.000                                                                                
   RMAX   =    1.529    core radius for proj-oper                                                   
   RAUG   =    1.300    factor for augmentation sphere                                              
   RDEP   =    1.501    radius for radial grids                                                     
   RDEPT  =    1.300    core radius for aug-charge                                                  
                                                                                                    
   Atomic configuration                                                                             
    4 entries                                                                                       
     n  l   j            E        occ.                                                              
     1  0  0.50      -273.3789   2.0000                                                             
     2  0  0.50       -13.7508   2.0000                                                             
     2  1  0.50        -5.2854   2.0000                                                             
     3  2  1.50        -5.4423   0.0000                                                             
   Description                                                                                      
     l       E           TYP  RCUT    TYP  RCUT                                                     
     0    -13.7508458     23  1.200                                                                 
     0     -8.2022199     23  1.200                                                                 
     1     -5.2854383     23  1.500                                                                 
     1     34.0145650     23  1.500                                                                 
     2     -5.4423304      7  1.500                                                                 
  local pseudopotential read in
  partial core-charges read in
  partial kinetic energy density read in
  atomic valenz-charges read in
  non local Contribution for L=           0  read in
    real space projection operators read in
  non local Contribution for L=           0  read in
    real space projection operators read in
  non local Contribution for L=           1  read in
    real space projection operators read in
  non local Contribution for L=           1  read in
    real space projection operators read in
    PAW grid and wavefunctions read in
 
   number of l-projection  operators is LMAX  =           4
   number of lm-projection operators is LMMAX =           8
 
 POTCAR:    PAW_PBE N 08Apr2002                   
   SHA256 =  e053789ff3a61a86a1b75d8a110fcc91f86041011e7b0817c7c99e4e8a6349d7 N/POTCAR              
   COPYR  = (c) Copyright 08Apr2002 Georg Kresse                                                    
   COPYR  = This file is part of the software VASP. Any use, copying, and all other rights are regul
   COPYR  = If you do not have a valid VASP license, you may not use, copy or distribute this file. 
   VRHFIN =N: s2p3                                                                                  
   LEXCH  = PE                                                                                      
   EATOM  =   264.5486 eV,   19.4438 Ry                                                             
                                                                                                    
   TITEL  = PAW_PBE N 08Apr2002                                                                     
   LULTRA =        F    use ultrasoft PP ?                                                          
   IUNSCR =        1    unscreen: 0-lin 1-nonlin 2-no                                               
   RPACOR =    1.200    partial core radius                                                         
   POMASS =   14.001; ZVAL   =    5.000    mass and valenz                                          
   RCORE  =    1.500    outmost cutoff radius                                                       
   RWIGS  =    1.400; RWIGS  =    0.741    wigner-seitz radius (au A)                               
   ENMAX  =  400.000; ENMIN  =  300.000 eV                                                          
   ICORE  =        2    local potential                                                             
   LCOR   =        T    correct aug charges                                                         
   LPAW   =        T    paw PP                                                                      
   EAUG   =  627.112                                                                                
   DEXC   =    0.000                                                                                
   RMAX   =    1.529    core radius for proj-oper                                                   
   RAUG   =    1.300    factor for augmentation sphere                                              
   RDEP   =    1.514    radius for radial grids                                                     
   RDEPT  =    1.338    core radius for aug-charge                                                  
                                                                                                    
   Atomic configuration                                                                             
    4 entries                                                                                       
     n  l   j            E        occ.                                                              
     1  0  0.50      -384.7179   2.0000                                                             
     2  0  0.50       -18.5828   2.0000                                                             
     2  1  0.50        -7.0898   3.0000                                                             
     3  2  1.50        -6.8029   0.0000                                                             
   Description                                                                                      
     l       E           TYP  RCUT    TYP  RCUT                                                     
     0    -18.5828119     23  1.200                                                                 
     0    -13.5018863     23  1.200                                                                 
     1     -7.0897853     23  1.500                                                                 
     1      9.5240782     23  1.500                                                                 
     2     -6.8029130      7  1.500                                                                 
  local pseudopotential read in
  partial core-charges read in
  partial kinetic energy density read in
  atomic valenz-charges read in
  non local Contribution for L=           0  read in
    real space projection operators read in
  non local Contribution for L=           0  read in
    real space projection operators read in
  non local Contribution for L=           1  read in
    real space projection operators read in
  non local Contribution for L=           1  read in
    real space projection operators read in
    PAW grid and wavefunctions read in
 
   number of l-projection  operators is LMAX  =           4
   number of lm-projection operators is LMMAX =           8
 
 POTCAR:    PAW_PBE H 15Jun2001                   
   SHA256 =  030f79b5d3ab3cf0e668861823c8fb652ff669f3e15e46930bd03bfd63a607b6 H/POTCAR              
   COPYR  = (c) Copyright 15Jun2001 Georg Kresse                                                    
   COPYR  = This file is part of the software VASP. Any use, copying, and all other rights are regul
   COPYR  = If you do not have a valid VASP license, you may not use, copy or distribute this file. 
   VRHFIN =H: ultrasoft test                                                                        
   LEXCH  = PE                                                                                      
   EATOM  =    12.4884 eV,    0.9179 Ry                                                             
                                                                                                    
   TITEL  = PAW_PBE H 15Jun2001                                                                     
   LULTRA =        F    use ultrasoft PP ?                                                          
   IUNSCR =        0    unscreen: 0-lin 1-nonlin 2-no                                               
   RPACOR =    0.000    partial core radius                                                         
   POMASS =    1.000; ZVAL   =    1.000    mass and valenz                                          
   RCORE  =    1.100    outmost cutoff radius                                                       
   RWIGS  =    0.700; RWIGS  =    0.370    wigner-seitz radius (au A)                               
   ENMAX  =  250.000; ENMIN  =  200.000 eV                                                          
   RCLOC  =    0.701    cutoff for local pot                                                        
   LCOR   =        T    correct aug charges                                                         
   LPAW   =        T    paw PP                                                                      
   EAUG   =  400.000                                                                                
   RMAX   =    1.123    core radius for proj-oper                                                   
   RAUG   =    1.200    factor for augmentation sphere                                              
   RDEP   =    1.112    radius for radial grids                                                     
   RDEPT  =    0.926    core radius for aug-charge                                                  
                                                                                                    
   Atomic configuration                                                                             
    2 entries                                                                                       
     n  l   j            E        occ.                                                              
     1  0  0.50        -6.4927   1.0000                                                             
     2  1  0.50        -3.4015   0.0000                                                             
   Description                                                                                      
     l       E           TYP  RCUT    TYP  RCUT                                                     
     0     -6.4927494     23  1.100                                                                 
     0      6.8029130     23  1.100                                                                 
     1     -4.0817478     23  1.100                                                                 
  local pseudopotential read in
  atomic valenz-charges read in
  non local Contribution for L=           0  read in
    real space projection operators read in
  non local Contribution for L=           0  read in
    real space projection operators read in
  non local Contribution for L=           1  read in
    real space projection operators read in
    PAW grid and wavefunctions read in
 
   number of l-projection  operators is LMAX  =           3
   number of lm-projection operators is LMMAX =           5
 
 Optimization of the real space projectors (new method)

 maximal supplied QI-value         = 25.13
 optimisation between [QCUT,QGAM] = [ 11.31, 22.87] = [ 35.82,146.48] Ry 
 Optimized for a Real-space Cutoff    1.03 Angstroem

   l    n(q)    QCUT    max X(q) W(low)/X(q) W(high)/X(q)  e(spline) 
   0      7    11.310   115.676    0.20E-03    0.90E-03    0.20E-06
   0      7    11.310    87.132    0.20E-03    0.89E-03    0.19E-06
   1      6    11.310     4.429    0.16E-03    0.28E-03    0.12E-06
   1      6    11.310     2.733    0.12E-03    0.21E-03    0.99E-07
 Optimization of the real space projectors (new method)

 maximal supplied QI-value         = 25.13
 optimisation between [QCUT,QGAM] = [ 11.31, 22.87] = [ 35.82,146.48] Ry 
 Optimized for a Real-space Cutoff    1.43 Angstroem

   l    n(q)    QCUT    max X(q) W(low)/X(q) W(high)/X(q)  e(spline) 
   0     10    11.310    79.467    0.42E-04    0.81E-04    0.60E-06
   0     10    11.310    66.151    0.40E-04    0.81E-04    0.60E-06
   1      9    11.310    17.416    0.14E-03    0.88E-04    0.14E-05
   1      9    11.310    12.382    0.15E-03    0.93E-04    0.14E-05
 Optimization of the real space projectors (new method)

 maximal supplied QI-value         = 34.20
 optimisation between [QCUT,QGAM] = [ 11.29, 22.57] = [ 35.68,142.71] Ry 
 Optimized for a Real-space Cutoff    1.20 Angstroem

   l    n(q)    QCUT    max X(q) W(low)/X(q) W(high)/X(q)  e(spline) 
   0      8    11.287    19.460    0.22E-03    0.50E-03    0.19E-06
   0      8    11.287    12.209    0.21E-03    0.48E-03    0.18E-06
   1      8    11.287     4.655    0.21E-03    0.11E-04    0.26E-06
  PAW_PBE C 08Apr2002                   :
 energy of atom  1       EATOM= -147.1560
 kinetic energy error for atom=    0.0076 (will be added to EATOM!!)
  PAW_PBE N 08Apr2002                   :
 energy of atom  2       EATOM= -264.5486
 kinetic energy error for atom=    0.0138 (will be added to EATOM!!)
  PAW_PBE H 15Jun2001                   :
 energy of atom  3       EATOM=  -12.4884
 kinetic energy error for atom=    0.0020 (will be added to EATOM!!)
 
 
 POSCAR: C N H
  positions in direct lattice
  velocities in cartesian coordinates
 exchange correlation table for  LEXCH =        8
   RHO(1)=    0.500       N(1)  =     2000
   RHO(2)=  100.500       N(2)  =     4000
 
 POSCAR: C N H
  positions in direct lattice
  velocities in cartesian coordinates
 
 POSCAR: C N H
  positions in direct lattice
  velocities in cartesian coordinates
 


--------------------------------------------------------------------------------------------------------


 ion  position               nearest neighbor table
   1  0.527  0.469  0.502-  27 1.10  28 1.10   2 1.51   6 1.53
   2  0.510  0.502  0.501-   3 1.36  11 1.38   1 1.51
   3  0.527  0.532  0.500-  18 1.09   2 1.36   4 1.51
   4  0.565  0.534  0.500-  16 1.10  17 1.11   3 1.51   5 1.53
   5  0.581  0.500  0.491-  14 1.10  15 1.10   6 1.53   4 1.53
   6  0.565  0.472  0.510-  12 1.10  13 1.10   5 1.53   1 1.53
   7  0.455  0.531  0.502-  25 1.10  26 1.11  11 1.45   8 1.53
   8  0.419  0.518  0.507-  23 1.10  24 1.10   7 1.53   9 1.53
   9  0.420  0.483  0.489-  21 1.10  22 1.10  10 1.53   8 1.53
  10  0.455  0.470  0.499-  19 1.10  20 1.11  11 1.46   9 1.53
  11  0.475  0.501  0.501-   2 1.38   7 1.45  10 1.46
  12  0.577  0.448  0.506-   6 1.10
  13  0.567  0.477  0.537-   6 1.10
  14  0.608  0.501  0.495-   5 1.10
  15  0.578  0.495  0.464-   5 1.10
  16  0.573  0.553  0.482-   4 1.10
  17  0.574  0.542  0.524-   4 1.11
  18  0.513  0.555  0.500-   3 1.09
  19  0.465  0.453  0.480-  10 1.10
  20  0.454  0.457  0.523-  10 1.11
  21  0.400  0.466  0.497-   9 1.10
  22  0.419  0.486  0.462-   9 1.10
  23  0.400  0.534  0.496-   8 1.10
  24  0.413  0.515  0.533-   8 1.10
  25  0.462  0.548  0.523-   7 1.10
  26  0.457  0.545  0.479-   7 1.11
  27  0.515  0.452  0.519-   1 1.10
  28  0.525  0.457  0.477-   1 1.10
 
  LATTYP: Found a simple cubic cell.
 ALAT       =    40.0000000000
  
  Lattice vectors:
  
 A1 = (  40.0000000000,   0.0000000000,   0.0000000000)
 A2 = (   0.0000000000,  40.0000000000,   0.0000000000)
 A3 = (   0.0000000000,   0.0000000000,  40.0000000000)


Analysis of symmetry for initial positions (statically):
=====================================================================
 Subroutine PRICEL returns:
 Original cell was already a primitive cell.
 

 Routine SETGRP: Setting up the symmetry group for a 
 simple cubic supercell.


 Subroutine GETGRP returns: Found  1 space group operations
 (whereof  1 operations were pure point group operations)
 out of a pool of 48 trial point group operations.


The static configuration has the point symmetry C_1 .


Analysis of symmetry for dynamics (positions and initial velocities):
=====================================================================
 Subroutine PRICEL returns:
 Original cell was already a primitive cell.
 

 Routine SETGRP: Setting up the symmetry group for a 
 simple cubic supercell.


 Subroutine GETGRP returns: Found  1 space group operations
 (whereof  1 operations were pure point group operations)
 out of a pool of 48 trial point group operations.


The dynamic configuration has the point symmetry C_1 .


Analysis of constrained symmetry for selective dynamics:
=====================================================================
 Subroutine PRICEL returns:
 Original cell was already a primitive cell.
 

 Routine SETGRP: Setting up the symmetry group for a 
 simple cubic supercell.


 Subroutine GETGRP returns: Found  1 space group operations
 (whereof  1 operations were pure point group operations)
 out of a pool of 48 trial point group operations.


The constrained configuration has the point symmetry C_1 .


Analysis of structural, dynamic, and magnetic symmetry:
=====================================================================
 Subroutine PRICEL returns:
 Original cell was already a primitive cell.
 

 Routine SETGRP: Setting up the symmetry group for a 
 simple cubic supercell.


 Subroutine GETGRP returns: Found  1 space group operations
 (whereof  1 operations were pure point group operations)
 out of a pool of 48 trial point group operations.


The overall configuration has the point symmetry C_1 .


 Subroutine INISYM returns: Found  1 space group operations
 (whereof  1 operations are pure point group operations),
 and found     1 'primitive' translations


----------------------------------------------------------------------------------------

                                     Primitive cell                                     

  volume of cell :   64000.0000

  direct lattice vectors                    reciprocal lattice vectors
    40.000000000  0.000000000  0.000000000     0.025000000  0.000000000  0.000000000
     0.000000000 40.000000000  0.000000000     0.000000000  0.025000000  0.000000000
     0.000000000  0.000000000 40.000000000     0.000000000  0.000000000  0.025000000

  length of vectors
    40.000000000 40.000000000 40.000000000     0.025000000  0.025000000  0.025000000

  position of ions in fractional coordinates (direct lattice)
     0.527414494  0.468959618  0.501504409
     0.509658693  0.502408181  0.500998392
     0.526948467  0.531750035  0.500237447
     0.564543681  0.533833433  0.499542889
     0.580862777  0.500384143  0.490599199
     0.564502022  0.472091333  0.510407629
     0.454627337  0.531000339  0.502079014
     0.418993275  0.517690642  0.506540777
     0.420443896  0.483372783  0.489486022
     0.455197376  0.470460574  0.499176674
     0.475174591  0.501001848  0.501469055
     0.577185766  0.448113109  0.505785708
     0.566975348  0.477324483  0.537375788
     0.607942338  0.501283199  0.495402399
     0.577624626  0.495489181  0.463641548
     0.572525671  0.553188137  0.481579892
     0.574307107  0.542315506  0.524053369
     0.513318905  0.555367222  0.500225817
     0.465298300  0.453016909  0.480471871
     0.454238725  0.456969875  0.523355571
     0.400346758  0.466390324  0.497278601
     0.418955747  0.486355099  0.462170645
     0.400067903  0.534427685  0.495858402
     0.413437667  0.514671847  0.533323564
     0.462320106  0.547707666  0.522651654
     0.457402495  0.545418757  0.478561826
     0.514932045  0.452164298  0.519402478
     0.524753886  0.456845773  0.476820358

  ion indices of the primitive-cell ions
   primitive index   ion index
                 1           1
                 2           2
                 3           3
                 4           4
                 5           5
                 6           6
                 7           7
                 8           8
                 9           9
                10          10
                11          11
                12          12
                13          13
                14          14
                15          15
                16          16
                17          17
                18          18
                19          19
                20          20
                21          21
                22          22
                23          23
                24          24
                25          25
                26          26
                27          27
                28          28

----------------------------------------------------------------------------------------

 
 
 KPOINTS: K-Point Grid                            

Automatic generation of k-mesh.
 Grid dimensions read from file:
 generate k-points for:    1    1    1

 Generating k-lattice:

  Cartesian coordinates                     Fractional coordinates (reciprocal lattice)
     0.025000000  0.000000000  0.000000000     1.000000000  0.000000000  0.000000000
     0.000000000  0.025000000  0.000000000     0.000000000  1.000000000  0.000000000
     0.000000000  0.000000000  0.025000000     0.000000000  0.000000000  1.000000000

  Length of vectors
     0.025000000  0.025000000  0.025000000

  Shift w.r.t. Gamma in fractional coordinates (k-lattice)
     0.000000000  0.000000000  0.000000000

 
 Subroutine IBZKPT returns following result:
 ===========================================
 
 Found      1 irreducible k-points:
 
 Following reciprocal coordinates:
            Coordinates               Weight
  0.000000  0.000000  0.000000      1.000000
 
 Following cartesian coordinates:
            Coordinates               Weight
  0.000000  0.000000  0.000000      1.000000
 
 
 Subroutine IBZKPT_HF returns following result:
 ==============================================
 
 Found      1 k-points in 1st BZ
 the following      1 k-points will be used (e.g. in the exchange kernel)
 Following reciprocal coordinates:   # in IRBZ
  0.000000  0.000000  0.000000    1.00000000   1 t-inv F


--------------------------------------------------------------------------------------------------------




 Dimension of arrays:
   k-points           NKPTS =      1   k-points in BZ     NKDIM =      1   number of bands    NBANDS=     63
   number of dos      NEDOS =    301   number of ions     NIONS =     28
   non local maximal  LDIM  =      4   non local SUM 2l+1 LMDIM =      8
   total plane-waves  NPLWV = ******
   max r-space proj   IRMAX =   4928   max aug-charges    IRDMAX=   5085
   dimension x,y,z NGX =   294 NGY =  294 NGZ =  294
   dimension x,y,z NGXF=   588 NGYF=  588 NGZF=  588
   support grid    NGXF=   588 NGYF=  588 NGZF=  588
   ions per type =              10   1  17
   NGX,Y,Z   is equivalent  to a cutoff of  12.22, 12.22, 12.22 a.u.
   NGXF,Y,Z  is equivalent  to a cutoff of  24.44, 24.44, 24.44 a.u.

 SYSTEM =  063_red                                 
 POSCAR =  C N H                                   

 Startparameter for this run:
   NWRITE =      2    write-flag & timer
   PREC   = accura    normal or accurate (medium, high low for compatibility)
   ISTART =      1    job   : 0-new  1-cont  2-samecut
   ICHARG =      2    charge: 1-file 2-atom 10-const
   ISPIN  =      2    spin polarized calculation?
   LNONCOLLINEAR =      F non collinear calculations
   LSORBIT =      F    spin-orbit coupling
   INIWAV =      1    electr: 0-lowe 1-rand  2-diag
   LASPH  =      F    aspherical Exc in radial PAW
 Electronic Relaxation 1
   ENCUT  =  500.0 eV  36.75 Ry    6.06 a.u.  72.93 72.93 72.93*2*pi/ulx,y,z
   ENINI  =  500.0     initial cutoff
   ENAUG  =  644.9 eV  augmentation charge cutoff
   NELM   =    500;   NELMIN=  2; NELMDL=  0     # of ELM steps 
   EDIFF  = 0.1E-04   stopping-criterion for ELM
   LREAL  =      T    real-space projection
   NLSPLINE    = F    spline interpolate recip. space projectors
   LCOMPAT=      F    compatible to vasp.4.4
   GGA_COMPAT  = T    GGA compatible to vasp.4.4-vasp.4.6
   LMAXPAW     = -100 max onsite density
   LMAXMIX     =    2 max onsite mixed and CHGCAR
   VOSKOWN=      0    Vosko Wilk Nusair interpolation
   ROPT   =   -0.00025  -0.00025  -0.00025
 Ionic relaxation
   EDIFFG = -.2E-01   stopping-criterion for IOM
   NSW    =      0    number of steps for IOM
   NBLOCK =      1;   KBLOCK =      1    inner block; outer block 
   IBRION =     -1    ionic relax: 0-MD 1-quasi-New 2-CG
   NFREE  =      1    steps in history (QN), initial steepest desc. (CG)
   ISIF   =      2    stress and relaxation
   IWAVPR =     10    prediction:  0-non 1-charg 2-wave 3-comb
   ISYM   =      3    0-nonsym 1-usesym 2-fastsym
   LCORR  =      T    Harris-Foulkes like correction to forces

   POTIM  = 0.5000    time-step for ionic-motion
   TEIN   =    0.0    initial temperature
   TEBEG  =    0.0;   TEEND  =   0.0 temperature during run
   SMASS  =  -3.00    Nose mass-parameter (am)
   estimated Nose-frequenzy (Omega)   =  0.10E-29 period in steps = 0.13E+47 mass=  -0.366E-25a.u.
   SCALEE = 1.0000    scale energy and forces
   NPACO  =    256;   APACO  = 10.0  distance and # of slots for P.C.
   PSTRESS=    0.0 pullay stress

  Mass of Ions in am
   POMASS =  12.01 14.00  1.00
  Ionic Valenz
   ZVAL   =   4.00  5.00  1.00
  Atomic Wigner-Seitz radii
   RWIGS  =  -1.00 -1.00 -1.00
  virtual crystal weights 
   VCA    =   1.00  1.00  1.00
   NELECT =      62.0000    total number of electrons
   NUPDOWN=      -1.0000    fix difference up-down

 DOS related values:
   EMIN   =  10.00;   EMAX   =-10.00  energy-range for DOS
   EFERMI =   0.00
   ISMEAR =     0;   SIGMA  =   0.05  broadening in eV -4-tet -1-fermi 0-gaus

 Electronic relaxation 2 (details)
   IALGO  =     53    algorithm
   LDIAG  =      F    sub-space diagonalisation (order eigenvalues)
   LSUBROT=      F    optimize rotation matrix (better conditioning)
   TURBO    =      0    0=normal 1=particle mesh
   IRESTART =      0    0=no restart 2=restart with 2 vectors
   NREBOOT  =      0    no. of reboots
   NMIN     =      0    reboot dimension
   EREF     =   0.00    reference energy to select bands
   IMIX   =      4    mixing-type and parameters
     AMIX     =   0.40;   BMIX     =  1.00
     AMIX_MAG =   1.60;   BMIX_MAG =  1.00
     AMIN     =   0.10
     WC   =   100.;   INIMIX=   1;  MIXPRE=   1;  MAXMIX= -45

 Intra band minimization:
   WEIMIN = 0.0000     energy-eigenvalue tresh-hold
   EBREAK =  0.40E-07  absolut break condition
   DEPER  =   0.30     relativ break condition  

   TIME   =   0.40     timestep for ELM

  volume/ion in A,a.u.               =    2285.71     15424.76
  Fermi-wavevector in a.u.,A,eV,Ry     =   0.161986  0.306110  0.357012  0.026240
  Thomas-Fermi vector in A             =   0.858209
 
 Write flags
   LWAVE        =      T    write WAVECAR
   LDOWNSAMPLE  =      F    k-point downsampling of WAVECAR
   LCHARG       =      F    write CHGCAR
   LVTOT        =      F    write LOCPOT, total local potential
   LVHAR        =      F    write LOCPOT, Hartree potential only
   LELF         =      F    write electronic localiz. function (ELF)
   LORBIT       =      0    0 simple, 1 ext, 2 COOP (PROOUT), +10 PAW based schemes


 Dipole corrections
   LMONO  =      F    monopole corrections only (constant potential shift)
   LDIPOL =      F    correct potential (dipole corrections)
   IDIPOL =      0    1-x, 2-y, 3-z, 4-all directions 
   EPSILON=  1.0000000 bulk dielectric constant

 Exchange correlation treatment:
   GGA     =    --    GGA type
   LEXCH   =     8    internal setting for exchange type
   LIBXC   =     F    Libxc                    
   VOSKOWN =     0    Vosko Wilk Nusair interpolation
   EXXOEP  =     0    0=HF, 1=EXX-LHF (local Hartree Fock) 2=EXX OEP
   LHFCALC =     T    Hartree Fock is set to
   LSYMGRAD=     F    symmetrize gradient (conserves proper symmetry)
   PRECFOCK=normal    Normal, Fast or Accurate (Low or Medium for compatibility)
   LRHFCALC=     F    long range Hartree Fock
   LRSCOR  =     F    long range correlation only (use DFT for short range part)
   LTHOMAS =     F    Thomas Fermi screening in HF
   LMODELHF=     F    short range full HF, long range fraction AEXX
   FOCKCORR=     1    mode to apply convergence corrections
   LFOCKACE=     T    use Adeptively-Compressed-Exchange operator
   ENCUT4O =  -1.0   cutoff for four orbital integrals eV
   LMAXFOCK=     4    L truncation for augmentation on plane wave grid
   LMAXFOCKAE=  -1    L truncation for all-electron charge restoration on plane wave grid
   NMAXFOCKAE=   1    number of basis functions for all-electron charge restoration
   LFOCKAEDFT=     F  apply the AE augmentation even for DFT
   NKREDX  =     1    reduce k-point grid by
   NKREDY  =     1    reduce k-point grid by
   NKREDZ  =     1    reduce k-point grid by
   SHIFTRED=     F    shift reduced grid of Gamma
   HFKIDENT=     F    idential grid for each k-point
   ODDONLY =     F    use only odd q-grid points
   EVENONLY=     F    use only even q-grid points
   HFALPHA =   -1.0000 decay constant for conv. correction
   MCALPHA =    0.0000 extent of test-charge in conv. correction in multipole expansion
   AEXX    =    0.2500 exact exchange contribution
   HFSCREEN=    0.2000 screening length (either q_TF or 0.3 A-1)
   HFSCREENC=   0.2000 screening length for correlation (either q_TF or 0.3 A-1)
   HFRCUT  =    0.0000 spherical cutoff for potential kernel
   ALDAX   =    0.7500 LDA exchange part
   AGGAX   =    0.7500 GGA exchange part
   ALDAC   =    1.0000 LDA correlation
   AGGAC   =    1.0000 GGA correlation
   ENCUTFOCK=  -1.0 apply spherical cutoff to Coloumb kernel
   NBANDSGWLOW=     1    first orbital included in HF term
   NBLOCK_FOCK=    64    blocking factor in FOCK_ACC

 Linear response parameters
   LEPSILON=     F    determine dielectric tensor
   LRPA    =     F    only Hartree local field effects (RPA)
   LNABLA  =     F    use nabla operator in PAW spheres
   LVEL    =     F    velocity operator in full k-point grid
   CSHIFT  =0.1000    complex shift for real part using Kramers Kronig
   OMEGAMAX=  -1.0    maximum frequency
   DEG_THRESHOLD= 0.2000000E-02 threshold for treating states as degnerate
   RTIME   =   -0.100 relaxation time in fs
  (WPLASMAI=    0.000 imaginary part of plasma frequency in eV, 0.658/RTIME)
   DFIELD  = 0.0000000 0.0000000 0.0000000 field for delta impulse in time
 
  Optional k-point grid parameters
   LKPOINTS_OPT  =     F    use optional k-point grid
   KPOINTS_OPT_MODE=     1    mode for optional k-point grid
 
 Orbital magnetization related:
   ORBITALMAG=     F  switch on orbital magnetization
   LCHIMAG   =     F  perturbation theory with respect to B field
   DQ        =  0.001000  dq finite difference perturbation B field
   LLRAUG    =     F  two centre corrections for induced B field

 Solvation model:
   LSOL             =     T         switch on solvation model
   LSOL_SCF         =     T         include solvation in SCF
   ISOL             =     2         solvation model type
   EFERMI_ref       =  0.000000         reference Fermi level
   capacitance_init =  1.000000         initial capacitance
 Nonlinear solvation model:
   LNLDIEL     =     T         switch on non-linear dielectric mode
   LNLION      =     T         switch on non-linear ionic mode
   LNLTEST     =     F         test non-linear model in linear regime
   I_NLOC_SOL  =     1         type of nonlocal dielectric response
   NC_K        =  0.015000     cutoff charge density for cavities (1/Angstrom**3)
   TAU         =  0.000879     cavity formation energy (eV/Angstrom**2)
   SIGMA_K     =  0.600000     cavity width
   A_K         =  0.125000     smoothing length (Angstrom)
   R_SOLV      =  2.190000     solvent radius (Angstrom)
   R_CAV       =  0.000000     cavity radius (Angstrom)
   R_DIEL      =  1.000000     dielectric radius (Angstrom)
   R_ION       =  0.000000     ionic radius (Angstrom)
   R_B         =  0.000000     bound charge radius (Angstrom)
   SOLTEMP     =298.000000     solvent temperature (K)
   EB_K        = 35.688000     relative permittivity of the bulk solvent
   EPSILON_INF =  1.806900     optical relative permittivity of bulk solvent
   N_MOL       =  0.011500     molar density of solvent (1/Angstrom**3)
   P_MOL       =  0.820000     solvent dipole moment (e*Angstrom)
   C_MOLAR     =  0.000000     electrolyte concentration (mol/L)
   LAMBDA_D_K  =  0.000000     Debye length (Angstrom)
   ZION        =  1.000000     charge of ions in electrolyte (e)
   D_ION       = -1.000000     minimum ion packing diameter (Angstrom)



--------------------------------------------------------------------------------------------------------


 Static calculation
 charge density and potential will be updated during run
 spin polarized calculation
 Conjugate gradient for all bands (Kresse, et al. variant)
 perform Loewdin sub-space diagonalisation
    ordering is kept fixed
    before iterative eigenvector-optimisation
 modified Broyden-mixing scheme, WC =      100.0
 initial mixing is a Kerker type mixing with AMIX =  0.4000 and BMIX =      1.0000
 Hartree-type preconditioning will be used
 using additional bands           32
 real space projection scheme for non local part
 use partial core corrections
 no Harris-corrections to forces 
 use gradient corrections 
 use of overlap-Matrix (Vanderbilt PP)
 Gauss-broadening in eV      SIGMA  =   0.05


--------------------------------------------------------------------------------------------------------


  energy-cutoff  :      500.00
  volume of cell :    64000.00
      direct lattice vectors                 reciprocal lattice vectors
    40.000000000  0.000000000  0.000000000     0.025000000  0.000000000  0.000000000
     0.000000000 40.000000000  0.000000000     0.000000000  0.025000000  0.000000000
     0.000000000  0.000000000 40.000000000     0.000000000  0.000000000  0.025000000

  length of vectors
    40.000000000 40.000000000 40.000000000     0.025000000  0.025000000  0.025000000


 
 old parameters found on file WAVECAR:
  energy-cutoff  :      500.00
  volume of cell :    64000.00
      direct lattice vectors                 reciprocal lattice vectors
    40.000000000  0.000000000  0.000000000     0.025000000  0.000000000  0.000000000
     0.000000000 40.000000000  0.000000000     0.000000000  0.025000000  0.000000000
     0.000000000  0.000000000 40.000000000     0.000000000  0.000000000  0.025000000

  length of vectors

 
 k-points in units of 2pi/SCALE and weight: K-Point Grid                            
   0.00000000  0.00000000  0.00000000       1.000
 
 k-points in reciprocal lattice and weights: K-Point Grid                            
   0.00000000  0.00000000  0.00000000       1.000
 
 position of ions in fractional coordinates (direct lattice) 
   0.52741449  0.46895962  0.50150441
   0.50965869  0.50240818  0.50099839
   0.52694847  0.53175004  0.50023745
   0.56454368  0.53383343  0.49954289
   0.58086278  0.50038414  0.49059920
   0.56450202  0.47209133  0.51040763
   0.45462734  0.53100034  0.50207901
   0.41899328  0.51769064  0.50654078
   0.42044390  0.48337278  0.48948602
   0.45519738  0.47046057  0.49917667
   0.47517459  0.50100185  0.50146905
   0.57718577  0.44811311  0.50578571
   0.56697535  0.47732448  0.53737579
   0.60794234  0.50128320  0.49540240
   0.57762463  0.49548918  0.46364155
   0.57252567  0.55318814  0.48157989
   0.57430711  0.54231551  0.52405337
   0.51331890  0.55536722  0.50022582
   0.46529830  0.45301691  0.48047187
   0.45423872  0.45696987  0.52335557
   0.40034676  0.46639032  0.49727860
   0.41895575  0.48635510  0.46217065
   0.40006790  0.53442768  0.49585840
   0.41343767  0.51467185  0.53332356
   0.46232011  0.54770767  0.52265165
   0.45740249  0.54541876  0.47856183
   0.51493204  0.45216430  0.51940248
   0.52475389  0.45684577  0.47682036
 
 position of ions in cartesian coordinates  (Angst):
  21.09657976 18.75838472 20.06017635
  20.38634770 20.09632725 20.03993570
  21.07793869 21.27000141 20.00949790
  22.58174725 21.35333731 19.98171555
  23.23451107 20.01536573 19.62396798
  22.58008086 18.88365331 20.41630516
  18.18509349 21.24001355 20.08316058
  16.75973101 20.70762570 20.26163109
  16.81775585 19.33491132 19.57944087
  18.20789505 18.81842298 19.96706697
  19.00698366 20.04007393 20.05876219
  23.08743063 17.92452438 20.23142832
  22.67901390 19.09297931 21.49503153
  24.31769351 20.05132798 19.81609595
  23.10498505 19.81956725 18.54566192
  22.90102685 22.12752549 19.26319568
  22.97228429 21.69262025 20.96213477
  20.53275620 22.21468887 20.00903269
  18.61193199 18.12067637 19.21887485
  18.16954898 18.27879498 20.93422282
  16.01387032 18.65561296 19.89114405
  16.75822988 19.45420394 18.48682581
  16.00271611 21.37710739 19.83433606
  16.53750668 20.58687388 21.33294258
  18.49280422 21.90830664 20.90606615
  18.29609978 21.81675027 19.14247304
  20.59728179 18.08657193 20.77609913
  20.99015542 18.27383093 19.07281432
 


--------------------------------------------------------------------------------------------------------


 k-point   1 :   0.0000 0.0000 0.0000  plane waves: 1624525

 maximum and minimum number of plane-waves per node :    162473   162437

 maximum number of plane-waves:   1624525
 maximum index in each direction: 
   IXMAX=   72   IYMAX=   72   IZMAX=   72
   IXMIN=  -72   IYMIN=  -72   IZMIN=  -72


 real space projection operators:
  total allocation   :       3260.16 KBytes
  max/ min on nodes  :        333.47        320.38


 parallel 3D FFT for wavefunctions:
    minimum data exchange during FFTs selected (reduces bandwidth)
 parallel 3D FFT for charge:
    minimum data exchange during FFTs selected (reduces bandwidth)


 FFT grid for exact exchange (Hartree Fock) 
  NGX =224; NGY =224; NGZ =224

 
 Radii for the augmentation spheres in the non-local exchange
 for species   1 augmentation radius   0.874 (default was   0.699)
       energy cutoff for augmentation   2000.0
 for species   2 augmentation radius   0.886 (default was   0.709)
       energy cutoff for augmentation   2000.0
 for species   3 augmentation radius   0.650 (default was   0.520)
       energy cutoff for augmentation   2000.0

 real space projection operators:
  total allocation   :        619.66 KBytes
  max/ min on nodes  :         67.15         57.09

 Maximum index for augmentation-charges in exchange           71
  SETUP_FOCK is finished

 total amount of memory used by VASP MPI-rank0   787916. kBytes
=======================================================================

   base      :      30000. kBytes
   nonlr-proj:       3051. kBytes
   fftplans  :     224335. kBytes
   grid      :     421299. kBytes
   one-center:         18. kBytes
   HF        :         13. kBytes
   wavefun   :     109200. kBytes
 
     INWAV:  cpu time     17.0133: real time     17.0328
 Broyden mixing: mesh for mixing (old mesh)
   NGX =145   NGY =145   NGZ =145
  (NGX  =588   NGY  =588   NGZ  =588)
  gives a total of ****** points

 initial charge density was supplied:
 charge density of overlapping atoms calculated
 number of electron      62.0000000 magnetization      28.0000000
 charge density for first step will be calculated from the start-wavefunctions


--------------------------------------------------------------------------------------------------------


 Maximum index for non-local projection operator          392
 Maximum index for augmentation-charges          314 (set IRDMAX)


--------------------------------------------------------------------------------------------------------


 initial charge from wavefunction
 First call to EWALD:  gamma=   0.044
 Maximum number of real-space cells 3x 3x 3
 Maximum number of reciprocal cells 3x 3x 3

    FEWALD:  cpu time      0.0031: real time      0.0031


--------------------------------------- Iteration      1(   1)  ---------------------------------------


    POTLOK:  cpu time     16.9325: real time     16.9323
    SETDIJ:  cpu time      0.0641: real time      0.0641
    TRIAL :  cpu time    226.1868: real time    226.1855
    CORREC:  cpu time      0.8797: real time      0.8797
    CHARGE:  cpu time      4.8712: real time      4.8712
    --------------------------------------------
      LOOP:  cpu time    248.9884: real time    248.9873

 eigenvalue-minimisations  :     0
 total energy-change (2. order) :-0.1863950E+03  (-0.1023016E-01)
 number of electron      62.0000004 magnetization      -0.0000000
 augmentation part        1.5648107 magnetization       0.0000005

 Free energy of the ion-electron system (eV)
  ---------------------------------------------------
  alpha Z        PSCENC =         0.25994549
  Ewald energy   TEWEN  =      7427.82129040
  -Hartree energ DENC   =     -9002.68880973
  -exchange      EXHF   =       137.02538533
  -V(xc)+E(xc)   XCENC  =       158.87167287
  PAW double counting   =      5177.76317905    -5183.55696741
  entropy T*S    EENTRO =        -0.00000000
  eigenvalues    EBANDS =      -821.56915545
  atomic energy  EATOM  =      1919.67844036
  ---------------------------------------------------
  free energy    TOTEN  =      -186.39501909 eV

  energy without entropy =     -186.39501909  energy(sigma->0) =     -186.39501909
  exchange ACFDT corr.  =        -0.00000000  see jH, gK, PRB 81, 115126


--------------------------------------------------------------------------------------------------------




--------------------------------------- Iteration      1(   2)  ---------------------------------------


    --------------------------------------------
      INIT:  cpu time      0.9722: real time      0.9722
  FINALIZE:  cpu time    132.7842: real time    132.7849
    --------------------------------------------
    POTLOK:  cpu time    152.4635: real time    152.4642
    SETDIJ:  cpu time      0.0663: real time      0.0663
    TRIAL :  cpu time    226.7814: real time    226.7874
    CORREC:  cpu time      0.1569: real time      0.1569
    CHARGE:  cpu time      4.3123: real time      4.3123
    --------------------------------------------
      LOOP:  cpu time    383.7880: real time    383.8052

 eigenvalue-minimisations  :     0
 total energy-change (2. order) : 0.2771726E+00  (-0.4129567E-02)
 number of electron      62.0000004 magnetization      -0.0000000
 augmentation part        1.5652625 magnetization       0.0000005

 Free energy of the ion-electron system (eV)
  ---------------------------------------------------
  alpha Z        PSCENC =         0.25994549
  Ewald energy   TEWEN  =      7427.82129040
  -Hartree energ DENC   =     -9004.61002729
  -exchange      EXHF   =       137.06244980
  -V(xc)+E(xc)   XCENC  =       158.90587621
  PAW double counting   =      5179.15346681    -5184.95076276
  entropy T*S    EENTRO =        -0.00000000
  eigenvalues    EBANDS =      -821.23146252
  atomic energy  EATOM  =      1919.67844036
  ---------------------------------------------------
  free energy    TOTEN  =      -186.11784651 eV

  energy without entropy =     -186.11784651  energy(sigma->0) =     -186.11784651
  exchange ACFDT corr.  =        -0.00000000  see jH, gK, PRB 81, 115126


--------------------------------------------------------------------------------------------------------




--------------------------------------- Iteration      1(   3)  ---------------------------------------


    --------------------------------------------
      INIT:  cpu time      0.3886: real time      0.3886
  FINALIZE:  cpu time     65.0981: real time     65.0976
    --------------------------------------------
    POTLOK:  cpu time     83.1168: real time     83.1162
    SETDIJ:  cpu time      0.0662: real time      0.0662
    TRIAL :  cpu time    229.0722: real time    229.0705
    CORREC:  cpu time      0.0008: real time      0.0008
    CHARGE:  cpu time      4.3321: real time      4.3321
    --------------------------------------------
      LOOP:  cpu time    316.5971: real time    316.6016

 eigenvalue-minimisations  :     0
 total energy-change (2. order) :-0.2670523E-02  (-0.1944357E-02)
 number of electron      62.0000004 magnetization      -0.0000000
 augmentation part        1.5649270 magnetization       0.0000002

 Free energy of the ion-electron system (eV)
  ---------------------------------------------------
  alpha Z        PSCENC =         0.25994549
  Ewald energy   TEWEN  =      7427.82129040
  -Hartree energ DENC   =     -9006.09684496
  -exchange      EXHF   =       137.08153783
  -V(xc)+E(xc)   XCENC  =       158.92421381
  PAW double counting   =      5181.53124421    -5187.32993011
  entropy T*S    EENTRO =        -0.00000000
  eigenvalues    EBANDS =      -819.83949625
  atomic energy  EATOM  =      1919.67844036
  ---------------------------------------------------
  free energy    TOTEN  =      -186.12051703 eV

  energy without entropy =     -186.12051703  energy(sigma->0) =     -186.12051703
  exchange ACFDT corr.  =        -0.00000000  see jH, gK, PRB 81, 115126


--------------------------------------------------------------------------------------------------------




--------------------------------------- Iteration      1(   4)  ---------------------------------------


    --------------------------------------------
      INIT:  cpu time      0.9709: real time      0.9709
  FINALIZE:  cpu time     74.6142: real time     74.6151
    --------------------------------------------
    POTLOK:  cpu time     93.3432: real time     93.3441
    SETDIJ:  cpu time      0.0680: real time      0.0680
    TRIAL :  cpu time    228.0769: real time    228.0759
    CORREC:  cpu time      0.0196: real time      0.0196
    CHARGE:  cpu time      4.1083: real time      4.1083
    --------------------------------------------
      LOOP:  cpu time    325.6224: real time    325.6283

 eigenvalue-minimisations  :     0
 total energy-change (2. order) :-0.1157135E-02  (-0.5078399E-03)
 number of electron      62.0000004 magnetization      -0.0000000
 augmentation part        1.5646185 magnetization       0.0000001

 Free energy of the ion-electron system (eV)
  ---------------------------------------------------
  alpha Z        PSCENC =         0.25994549
  Ewald energy   TEWEN  =      7427.82129040
  -Hartree energ DENC   =     -9005.84344852
  -exchange      EXHF   =       137.06731380
  -V(xc)+E(xc)   XCENC  =       158.91094915
  PAW double counting   =      5182.57002950    -5188.36697752
  entropy T*S    EENTRO =        -0.00000000
  eigenvalues    EBANDS =      -820.09832265
  atomic energy  EATOM  =      1919.67844036
  ---------------------------------------------------
  free energy    TOTEN  =      -186.12167417 eV

  energy without entropy =     -186.12167417  energy(sigma->0) =     -186.12167417
  exchange ACFDT corr.  =        -0.00000000  see jH, gK, PRB 81, 115126


--------------------------------------------------------------------------------------------------------




--------------------------------------- Iteration      1(   5)  ---------------------------------------


    --------------------------------------------
      INIT:  cpu time      0.9433: real time      0.9432
  FINALIZE:  cpu time     67.3187: real time     67.3182
    --------------------------------------------
    POTLOK:  cpu time     88.0066: real time     88.0060
    SETDIJ:  cpu time      0.0623: real time      0.0623
    TRIAL :  cpu time    228.7044: real time    228.7025
    CORREC:  cpu time      0.1946: real time      0.1946
    CHARGE:  cpu time      3.3430: real time      3.3429
    --------------------------------------------
      LOOP:  cpu time    320.3208: real time    320.3235

 eigenvalue-minimisations  :     0
 total energy-change (2. order) :-0.2367654E-03  (-0.1346852E-03)
 number of electron      62.0000004 magnetization      -0.0000000
 augmentation part        1.5646604 magnetization       0.0000002

 Free energy of the ion-electron system (eV)
  ---------------------------------------------------
  alpha Z        PSCENC =         0.25994549
  Ewald energy   TEWEN  =      7427.82129040
  -Hartree energ DENC   =     -9005.43714106
  -exchange      EXHF   =       137.05824791
  -V(xc)+E(xc)   XCENC  =       158.90174644
  PAW double counting   =      5182.75957252    -5188.55524372
  entropy T*S    EENTRO =        -0.00000000
  eigenvalues    EBANDS =      -820.48886187
  atomic energy  EATOM  =      1919.67844036
  ---------------------------------------------------
  free energy    TOTEN  =      -186.12191093 eV

  energy without entropy =     -186.12191093  energy(sigma->0) =     -186.12191093
  exchange ACFDT corr.  =        -0.00000000  see jH, gK, PRB 81, 115126


--------------------------------------------------------------------------------------------------------




--------------------------------------- Iteration      1(   6)  ---------------------------------------


    --------------------------------------------
      INIT:  cpu time      0.3915: real time      0.3915
  FINALIZE:  cpu time     68.8183: real time     68.8184
    --------------------------------------------
    POTLOK:  cpu time     86.3547: real time     86.3549
    SETDIJ:  cpu time      0.0666: real time      0.0666
    TRIAL :  cpu time    227.7429: real time    227.7432
    CORREC:  cpu time      0.6706: real time      0.6706
    CHARGE:  cpu time      3.5283: real time      3.5284
    --------------------------------------------
      LOOP:  cpu time    318.3680: real time    318.3763

 eigenvalue-minimisations  :     0
 total energy-change (2. order) :-0.6757880E-04  (-0.6216698E-04)
 number of electron      62.0000004 magnetization      -0.0000000
 augmentation part        1.5647715 magnetization       0.0000002

 Free energy of the ion-electron system (eV)
  ---------------------------------------------------
  alpha Z        PSCENC =         0.25994549
  Ewald energy   TEWEN  =      7427.82129040
  -Hartree energ DENC   =     -9005.52970463
  -exchange      EXHF   =       137.06287592
  -V(xc)+E(xc)   XCENC  =       158.90540309
  PAW double counting   =      5182.90668016    -5188.70252410
  entropy T*S    EENTRO =        -0.00000000
  eigenvalues    EBANDS =      -820.40351960
  atomic energy  EATOM  =      1919.67844036
  ---------------------------------------------------
  free energy    TOTEN  =      -186.12197851 eV

  energy without entropy =     -186.12197851  energy(sigma->0) =     -186.12197851
  exchange ACFDT corr.  =        -0.00000000  see jH, gK, PRB 81, 115126


--------------------------------------------------------------------------------------------------------




--------------------------------------- Iteration      1(   7)  ---------------------------------------


    --------------------------------------------
      INIT:  cpu time      0.7617: real time      0.7617
  FINALIZE:  cpu time     69.6195: real time     69.6189
    --------------------------------------------
    POTLOK:  cpu time     91.8083: real time     91.8076
    SETDIJ:  cpu time      0.0670: real time      0.0670
    TRIAL :  cpu time    228.9157: real time    228.9138
    CORREC:  cpu time      0.2369: real time      0.2369
    CHARGE:  cpu time      3.7478: real time      3.7477
    --------------------------------------------
      LOOP:  cpu time    324.7835: real time    324.7860

 eigenvalue-minimisations  :     0
 total energy-change (2. order) :-0.3480574E-04  (-0.3211236E-04)
 number of electron      62.0000004 magnetization      -0.0000000
 augmentation part        1.5648077 magnetization       0.0000003

 Free energy of the ion-electron system (eV)
  ---------------------------------------------------
  alpha Z        PSCENC =         0.25994549
  Ewald energy   TEWEN  =      7427.82129040
  -Hartree energ DENC   =     -9005.66830214
  -exchange      EXHF   =       137.06717630
  -V(xc)+E(xc)   XCENC  =       158.90922231
  PAW double counting   =      5182.86707264    -5188.66330053
  entropy T*S    EENTRO =        -0.00000000
  eigenvalues    EBANDS =      -820.27282865
  atomic energy  EATOM  =      1919.67844036
  ---------------------------------------------------
  free energy    TOTEN  =      -186.12201332 eV

  energy without entropy =     -186.12201332  energy(sigma->0) =     -186.12201332
  exchange ACFDT corr.  =        -0.00000000  see jH, gK, PRB 81, 115126


--------------------------------------------------------------------------------------------------------




--------------------------------------- Iteration      1(   8)  ---------------------------------------


    --------------------------------------------
      INIT:  cpu time      0.5730: real time      0.5730
  FINALIZE:  cpu time     72.9594: real time     72.9596
    --------------------------------------------
    POTLOK:  cpu time     91.2194: real time     91.2197
    SETDIJ:  cpu time      0.0700: real time      0.0700
    TRIAL :  cpu time    227.1471: real time    227.1466
    CORREC:  cpu time      0.2023: real time      0.2023
    CHARGE:  cpu time      3.1572: real time      3.1572
    --------------------------------------------
      LOOP:  cpu time    321.8007: real time    321.8073

 eigenvalue-minimisations  :     0
 total energy-change (2. order) :-0.2004499E-04  (-0.1596639E-04)
 number of electron      62.0000004 magnetization      -0.0000000
 augmentation part        1.5647960 magnetization       0.0000003

 Free energy of the ion-electron system (eV)
  ---------------------------------------------------
  alpha Z        PSCENC =         0.25994549
  Ewald energy   TEWEN  =      7427.82129040
  -Hartree energ DENC   =     -9005.65866279
  -exchange      EXHF   =       137.06679474
  -V(xc)+E(xc)   XCENC  =       158.90896911
  PAW double counting   =      5182.68478359    -5188.48107726
  entropy T*S    EENTRO =        -0.00000000
  eigenvalues    EBANDS =      -820.28167465
  atomic energy  EATOM  =      1919.67844036
  ---------------------------------------------------
  free energy    TOTEN  =      -186.12203336 eV

  energy without entropy =     -186.12203336  energy(sigma->0) =     -186.12203336
  exchange ACFDT corr.  =        -0.00000000  see jH, gK, PRB 81, 115126


--------------------------------------------------------------------------------------------------------




--------------------------------------- Iteration      1(   9)  ---------------------------------------


    --------------------------------------------
      INIT:  cpu time      0.3922: real time      0.3922
  FINALIZE:  cpu time     55.0894: real time     55.0889
    --------------------------------------------
    POTLOK:  cpu time     72.9080: real time     72.9074
    SETDIJ:  cpu time      0.0670: real time      0.0670
    TRIAL :  cpu time    228.2855: real time    228.2838
    CORREC:  cpu time      0.0535: real time      0.0535
    CHARGE:  cpu time      3.7263: real time      3.7313
    --------------------------------------------
      LOOP:  cpu time    305.0482: real time    305.0567

 eigenvalue-minimisations  :     0
 total energy-change (2. order) :-0.9947886E-05  (-0.5969849E-05)
 number of electron      62.0000004 magnetization      -0.0000000
 augmentation part        1.5647977 magnetization       0.0000003

 Free energy of the ion-electron system (eV)
  ---------------------------------------------------
  alpha Z        PSCENC =         0.25994549
  Ewald energy   TEWEN  =      7427.82129040
  -Hartree energ DENC   =     -9005.60492891
  -exchange      EXHF   =       137.06525431
  -V(xc)+E(xc)   XCENC  =       158.90764444
  PAW double counting   =      5182.54367429    -5188.33990487
  entropy T*S    EENTRO =        -0.00000000
  eigenvalues    EBANDS =      -820.33214849
  atomic energy  EATOM  =      1919.67844036
  ---------------------------------------------------
  free energy    TOTEN  =      -186.12204331 eV

  energy without entropy =     -186.12204331  energy(sigma->0) =     -186.12204331
  exchange ACFDT corr.  =         0.00000000  see jH, gK, PRB 81, 115126


--------------------------------------------------------------------------------------------------------


  average scaling for gradient   1.2452


 average (electrostatic) potential at core
  the test charge radii are     0.6991  0.7089  0.5201
  (the norm of the test charge is              1.0000)
       1 -54.5981       2 -55.3134       3 -53.7667       4 -54.2946       5 -54.3030
       6 -54.4105       7 -55.2459       8 -54.6566       9 -54.6753      10 -55.3581
      11 -68.3620      12 -37.1940      13 -37.1339      14 -37.1082      15 -37.0545
      16 -37.0085      17 -36.9154      18 -37.0919      19 -37.5526      20 -37.3301
      21 -37.5151      22 -37.4139      23 -37.5014      24 -37.3987      25 -37.3822
      26 -37.2652      27 -37.4146      28 -37.3815
 
 
 
 E-fermi :  -4.2654     XC(G=0):  -0.0347     alpha+bet : -0.0244

 Fermi energy:        -4.2654008391

 spin component 1

 k-point     1 :       0.0000    0.0000    0.0000
  band No.  band energies     occupation 
      1     -26.0342      1.00000
      2     -22.7393      1.00000
      3     -21.5779      1.00000
      4     -20.3468      1.00000
      5     -19.8592      1.00000
      6     -19.4801      1.00000
      7     -17.0478      1.00000
      8     -16.7443      1.00000
      9     -15.7700      1.00000
     10     -15.5198      1.00000
     11     -14.3138      1.00000
     12     -13.4327      1.00000
     13     -13.4010      1.00000
     14     -12.2034      1.00000
     15     -11.7598      1.00000
     16     -11.4947      1.00000
     17     -11.4423      1.00000
     18     -11.3077      1.00000
     19     -10.8308      1.00000
     20     -10.4190      1.00000
     21     -10.1438      1.00000
     22      -9.9588      1.00000
     23      -9.9158      1.00000
     24      -9.2982      1.00000
     25      -9.2013      1.00000
     26      -8.8270      1.00000
     27      -8.5881      1.00000
     28      -8.4352      1.00000
     29      -8.0605      1.00000
     30      -7.4379      1.00000
     31      -4.5748      1.00000
     32      -0.4399      0.00000
     33      -0.1360      0.00000
     34      -0.0288      0.00000
     35      -0.0274      0.00000
     36       0.0299      0.00000
     37       0.1115      0.00000
     38       0.1149      0.00000
     39       0.1282      0.00000
     40       0.1309      0.00000
     41       0.1301      0.00000
     42       0.1433      0.00000
     43       0.1993      0.00000
     44       0.1951      0.00000
     45       0.1973      0.00000
     46       0.2056      0.00000
     47       0.2079      0.00000
     48       0.2097      0.00000
     49       0.2098      0.00000
     50       0.2097      0.00000
     51       0.2581      0.00000
     52       0.2440      0.00000
     53       0.2410      0.00000
     54       0.2433      0.00000
     55       0.2790      0.00000
     56       0.2818      0.00000
     57       0.2974      0.00000
     58       0.2970      0.00000
     59       0.3599      0.00000
     60       0.3026      0.00000
     61       0.5008      0.00000
     62       0.4682      0.00000
     63       0.4625      0.00000
 Fermi energy:        -4.2654008391

 spin component 2

 k-point     1 :       0.0000    0.0000    0.0000
  band No.  band energies     occupation 
      1     -26.0342      1.00000
      2     -22.7393      1.00000
      3     -21.5779      1.00000
      4     -20.3469      1.00000
      5     -19.8592      1.00000
      6     -19.4801      1.00000
      7     -17.0478      1.00000
      8     -16.7443      1.00000
      9     -15.7700      1.00000
     10     -15.5198      1.00000
     11     -14.3138      1.00000
     12     -13.4327      1.00000
     13     -13.4010      1.00000
     14     -12.2034      1.00000
     15     -11.7598      1.00000
     16     -11.4947      1.00000
     17     -11.4423      1.00000
     18     -11.3077      1.00000
     19     -10.8308      1.00000
     20     -10.4190      1.00000
     21     -10.1438      1.00000
     22      -9.9588      1.00000
     23      -9.9158      1.00000
     24      -9.2982      1.00000
     25      -9.2013      1.00000
     26      -8.8270      1.00000
     27      -8.5881      1.00000
     28      -8.4352      1.00000
     29      -8.0605      1.00000
     30      -7.4379      1.00000
     31      -4.5748      1.00000
     32      -0.4399      0.00000
     33      -0.1360      0.00000
     34      -0.0288      0.00000
     35      -0.0274      0.00000
     36       0.0299      0.00000
     37       0.1115      0.00000
     38       0.1149      0.00000
     39       0.1282      0.00000
     40       0.1309      0.00000
     41       0.1301      0.00000
     42       0.1433      0.00000
     43       0.1993      0.00000
     44       0.1951      0.00000
     45       0.1973      0.00000
     46       0.2056      0.00000
     47       0.2079      0.00000
     48       0.2097      0.00000
     49       0.2098      0.00000
     50       0.2097      0.00000
     51       0.2581      0.00000
     52       0.2440      0.00000
     53       0.2410      0.00000
     54       0.2433      0.00000
     55       0.2790      0.00000
     56       0.2819      0.00000
     57       0.2974      0.00000
     58       0.2970      0.00000
     59       0.3594      0.00000
     60       0.3025      0.00000
     61       0.4531      0.00000
     62       0.4863      0.00000
     63       0.5133      0.00000


--------------------------------------------------------------------------------------------------------


 soft charge-density along one line, spin component           1
         0         1         2         3         4         5         6         7         8         9
 total charge-density along one line
 
 soft charge-density along one line, spin component           2
         0         1         2         3         4         5         6         7         8         9
 total charge-density along one line
 
 pseudopotential strength for first ion, spin component:           1
  9.956  13.238   0.001  -0.000  -0.001  -0.003   0.001   0.003
 13.238  17.600   0.001  -0.000  -0.001  -0.004   0.001   0.004
  0.001   0.001  -4.184   0.000   0.000   8.160  -0.000  -0.001
 -0.000  -0.000   0.000  -4.183  -0.000  -0.000   8.158   0.000
 -0.001  -0.001   0.000  -0.000  -4.182  -0.001   0.000   8.157
 -0.003  -0.004   8.160  -0.000  -0.001 -18.030   0.000   0.001
  0.001   0.001  -0.000   8.158   0.000   0.000 -18.026  -0.001
  0.003   0.004  -0.001   0.000   8.157   0.001  -0.001 -18.024
 pseudopotential strength for first ion, spin component:           2
  9.956  13.238   0.001  -0.000  -0.001  -0.003   0.001   0.003
 13.238  17.600   0.001  -0.000  -0.001  -0.004   0.001   0.004
  0.001   0.001  -4.184   0.000   0.000   8.160  -0.000  -0.001
 -0.000  -0.000   0.000  -4.183  -0.000  -0.000   8.158   0.000
 -0.001  -0.001   0.000  -0.000  -4.182  -0.001   0.000   8.157
 -0.003  -0.004   8.160  -0.000  -0.001 -18.030   0.000   0.001
  0.001   0.001  -0.000   8.158   0.000   0.000 -18.026  -0.001
  0.003   0.004  -0.001   0.000   8.157   0.001  -0.001 -18.024
 total augmentation occupancy for first ion, spin component:           1
  8.579  -3.886  -0.014  -0.011  -0.061   0.007  -0.000  -0.006
 -3.886   1.789  -0.007   0.008   0.042  -0.007  -0.000   0.002
 -0.014  -0.007   1.606  -0.001   0.012   0.144  -0.000  -0.002
 -0.011   0.008  -0.001   1.621  -0.010  -0.000   0.139   0.001
 -0.061   0.042   0.012  -0.010   1.615  -0.002   0.001   0.143
  0.007  -0.007   0.144  -0.000  -0.002   0.014  -0.000  -0.001
 -0.000  -0.000  -0.000   0.139   0.001  -0.000   0.012   0.000
 -0.006   0.002  -0.002   0.001   0.143  -0.001   0.000   0.014
 total augmentation occupancy for first ion, spin component:           2
  0.000  -0.000   0.000  -0.000   0.000   0.000  -0.000   0.000
 -0.000   0.000  -0.000   0.000  -0.000  -0.000   0.000  -0.000
  0.000  -0.000  -0.000  -0.000   0.000   0.000  -0.000  -0.000
 -0.000   0.000  -0.000   0.000  -0.000  -0.000  -0.000  -0.000
  0.000  -0.000   0.000  -0.000   0.000  -0.000  -0.000   0.000
  0.000  -0.000   0.000  -0.000  -0.000   0.000  -0.000  -0.000
 -0.000   0.000  -0.000  -0.000  -0.000  -0.000  -0.000  -0.000
  0.000  -0.000  -0.000  -0.000   0.000  -0.000  -0.000   0.000


------------------------ aborting loop because EDIFF is reached ----------------------------------------


    FORLOC:  cpu time      0.4025: real time      0.4025
    FORHF :  cpu time    109.4259: real time    109.4260
    FORNL :  cpu time      5.4672: real time      5.4673
    STRESS:  cpu time     16.6310: real time     16.6312
    FORCOR:  cpu time     18.6611: real time     18.6611
    OFIELD:  cpu time      0.0204: real time      0.0204
 WARNING: Using user supplied parameters
     VDW_A1 = 0.383
     VDW_A2 = 5.685
     VDW_S8 = 2.31
     because the xc functional is not supported. Required parameters not
     defined in the INCAR file will be replaced with PBE defaults ones.


 ---------------------------------------------------------------------------------------------

         DFTD3 V3.0 Rev 1        
 IVDW         = 12
 DF unknown   
 parameters
 VDW_S6       =    1.0000
 VDW_S8       =    2.3100
 VDW_A1       =    0.3830
 VDW_A2       =    5.6850
 k1-k3        =   16.0000    1.3333   -4.0000
 VDW_RADIUS   =   50.2022 A
 VDW_CNRADIUS =   21.1671 A
 Edisp (eV)   -0.52082

 E6    (eV) :    -0.2793
 E8    (eV) :    -0.2415
 % E8        : 46.37
    FORVDW:  cpu time      0.0103: real time      0.0103

  FORCE on cell =-STRESS in cart. coord.  units (eV):
  Direction    XX          YY          ZZ          XY          YZ          ZX
  --------------------------------------------------------------------------------------
  Alpha Z     0.25995     0.25995     0.25995
  Ewald    4535.79512  2486.48948   405.53483    23.43270    26.76658    10.02110
  Hartree  4744.76269  2893.82180  1365.39986     9.45702    19.06117    10.41771
  E(xc)    -169.87384  -170.10926  -171.08733     0.03119     0.00420    -0.00053
  Local   -9845.93514 -5942.21246 -2362.73594   -31.02755   -46.00007   -20.67081
  n-local   -89.88267   -90.92636   -97.78398     0.03718     0.31629     0.04782
  augment    -0.79823    -0.83320    -0.08402    -0.01424    -0.03198    -0.00050
  Kinetic   881.89838   879.42179   917.36656    -2.02799    -0.14451     0.17040
  Fock      -60.22036   -60.44562   -59.86708    -0.18879     0.06212     0.01919
  vdW        -0.33973    -0.15420    -0.03019    -0.00275    -0.00031    -0.00201
  -------------------------------------------------------------------------------------
  Total      -4.33383    -4.68810    -3.02735    -0.30324     0.03349     0.00237
  in kB      -0.10849    -0.11736    -0.07579    -0.00759     0.00084     0.00006
  external pressure =       -0.10 kB  Pullay stress =        0.00 kB


 VOLUME and BASIS-vectors are now :
 -----------------------------------------------------------------------------
  energy-cutoff  :      500.00
  volume of cell :    64000.00
      direct lattice vectors                 reciprocal lattice vectors
    40.000000000  0.000000000  0.000000000     0.025000000  0.000000000  0.000000000
     0.000000000 40.000000000  0.000000000     0.000000000  0.025000000  0.000000000
     0.000000000  0.000000000 40.000000000     0.000000000  0.000000000  0.025000000

  length of vectors
    40.000000000 40.000000000 40.000000000     0.025000000  0.025000000  0.025000000


 FORCES acting on ions:
    Electron-Ion                     Ewald-Force                    Non-Local-Force
 -----------------------------------------------------------------------------------------------
   -.267E+02 0.182E+03 0.462E+01   0.276E+02 -.183E+03 -.436E+01   -.840E+00 0.550E+00 -.261E+00
   -.428E+02 0.209E+01 -.154E+01   0.480E+02 -.776E+00 0.149E+01   -.488E+01 -.958E+00 0.363E-01
   -.336E+02 -.198E+03 0.142E+01   0.339E+02 0.199E+03 -.164E+01   -.457E+00 -.119E+01 0.235E+00
   -.139E+03 -.167E+03 -.666E+01   0.139E+03 0.167E+03 0.657E+01   -.250E+00 0.158E+00 0.103E+00
   -.207E+03 0.768E+01 0.765E+02   0.207E+03 -.748E+01 -.765E+02   -.123E+00 -.207E+00 -.659E-02
   -.146E+03 0.143E+03 -.779E+02   0.146E+03 -.143E+03 0.779E+02   -.618E+00 -.166E+00 0.626E-01
   0.754E+02 -.220E+03 -.635E+01   -.777E+02 0.223E+03 0.645E+01   0.233E+01 -.361E+01 -.114E+00
   0.215E+03 -.997E+02 -.547E+02   -.216E+03 0.999E+02 0.547E+02   0.727E+00 -.181E+00 -.404E-01
   0.206E+03 0.101E+03 0.786E+02   -.207E+03 -.102E+03 -.787E+02   0.745E+00 0.154E+00 0.149E+00
   0.716E+02 0.218E+03 -.283E+01   -.741E+02 -.222E+03 0.250E+01   0.238E+01 0.366E+01 0.337E+00
   0.305E+02 0.965E+00 -.160E+02   -.316E+02 -.126E+01 0.176E+02   0.942E+00 0.274E+00 -.147E+01
   -.526E+02 0.779E+02 0.208E+01   0.551E+02 -.825E+02 -.295E+01   -.249E+01 0.465E+01 0.862E+00
   -.330E+02 0.113E+02 -.848E+02   0.335E+02 -.103E+02 0.899E+02   -.491E+00 -.982E+00 -.519E+01
   -.934E+02 -.111E+01 -.272E+01   0.987E+02 0.128E+01 0.362E+01   -.525E+01 -.172E+00 -.897E+00
   -.298E+02 0.131E+02 0.838E+02   0.292E+02 -.140E+02 -.890E+02   0.591E+00 0.917E+00 0.517E+01
   -.404E+02 -.700E+02 0.451E+02   0.419E+02 0.737E+02 -.486E+02   -.153E+01 -.371E+01 0.342E+01
   -.461E+02 -.470E+02 -.642E+02   0.479E+02 0.486E+02 0.688E+02   -.180E+01 -.161E+01 -.457E+01
   0.151E+02 -.897E+02 0.556E+00   -.179E+02 0.944E+02 -.565E+00   0.272E+01 -.474E+01 0.104E-01
   -.371E+01 0.762E+02 0.536E+02   0.568E+01 -.797E+02 -.573E+02   -.198E+01 0.349E+01 0.370E+01
   0.186E+02 0.654E+02 -.673E+02   -.188E+02 -.680E+02 0.719E+02   0.176E+00 0.260E+01 -.461E+01
   0.760E+02 0.538E+02 -.103E+02   -.800E+02 -.571E+02 0.119E+02   0.399E+01 0.335E+01 -.151E+01
   0.379E+02 0.745E+01 0.839E+02   -.383E+02 -.689E+01 -.892E+02   0.331E+00 -.551E+00 0.533E+01
   0.743E+02 -.531E+02 0.204E+02   -.781E+02 0.564E+02 -.225E+02   0.377E+01 -.331E+01 0.209E+01
   0.489E+02 -.706E+01 -.785E+02   -.500E+02 0.650E+01 0.837E+02   0.112E+01 0.555E+00 -.522E+01
   0.133E+01 -.734E+02 -.593E+02   0.165E+00 0.766E+02 0.633E+02   -.151E+01 -.327E+01 -.401E+01
   0.108E+02 -.685E+02 0.649E+02   -.102E+02 0.712E+02 -.694E+02   -.556E+00 -.276E+01 0.447E+01
   0.146E+02 0.744E+02 -.518E+02   -.170E+02 -.777E+02 0.552E+02   0.239E+01 0.329E+01 -.346E+01
   -.372E+01 0.616E+02 0.702E+02   0.322E+01 -.639E+02 -.748E+02   0.498E+00 0.233E+01 0.469E+01
 -----------------------------------------------------------------------------------------------
   0.297E-01 0.152E+01 0.767E+00   0.352E-12 -.497E-13 0.284E-13   -.526E-01 -.143E+01 -.695E+00
 
 
 POSITION                                       TOTAL-FORCE (eV/Angst)
 -----------------------------------------------------------------------------------
     21.09658     18.75838     20.06018         0.019258      0.000549     -0.009503
     20.38635     20.09633     20.03994         0.058154      0.324821     -0.008208
     21.07794     21.27000     20.00950        -0.224423     -0.379808      0.019722
     22.58175     21.35334     19.98172         0.059422     -0.031299      0.021001
     23.23451     20.01537     19.62397        -0.055708     -0.008610     -0.006889
     22.58008     18.88365     20.41631        -0.020953      0.045927      0.006185
     18.18509     21.24001     20.08316         0.092893     -0.102903     -0.013179
     16.75973     20.70763     20.26163         0.069313     -0.035210     -0.019527
     16.81776     19.33491     19.57944         0.068573      0.035815      0.026388
     18.20790     18.81842     19.96707         0.054101      0.113116      0.014675
     19.00698     20.04007     20.05876        -0.038328      0.004488     -0.013334
     23.08743     17.92452     20.23143        -0.119591      0.221243      0.027848
     22.67901     19.09298     21.49503        -0.025550     -0.034029     -0.245521
     24.31769     20.05133     19.81610        -0.243155     -0.005530     -0.030981
     23.10499     19.81957     18.54566         0.022808      0.045741      0.240029
     22.90103     22.12753     19.26320        -0.086195     -0.190000      0.145560
     22.97228     21.69262     20.96213        -0.106346     -0.089692     -0.220392
     20.53276     22.21469     20.00903         0.105416     -0.221568      0.002798
     18.61193     18.12068     19.21887        -0.087377      0.173706      0.157562
     18.16955     18.27879     20.93422         0.005530      0.142663     -0.224802
     16.01387     18.65561     19.89114         0.189688      0.156200     -0.055801
     16.75823     19.45420     18.48683         0.018817     -0.020343      0.246843
     16.00272     21.37711     19.83434         0.172295     -0.152878      0.080411
     16.53751     20.58687     21.33294         0.053379      0.021035     -0.240905
     18.49280     21.90831     20.90607        -0.076161     -0.165707     -0.181354
     18.29610     21.81675     19.14247        -0.034138     -0.149998      0.213266
     20.59728     18.08657     20.77610         0.104622      0.172268     -0.146724
     20.99016     18.27383     19.07281         0.023657      0.130002      0.214832
 -----------------------------------------------------------------------------------
    total drift:                               -0.023525      0.003192     -0.017530


--------------------------------------------------------------------------------------------------------



  FREE ENERGIE OF THE ION-ELECTRON SYSTEM (eV)
  ---------------------------------------------------
  free  energy   TOTEN  =      -186.64286358 eV

  energy  without entropy=     -186.64286358  energy(sigma->0) =     -186.64286358
 


--------------------------------------------------------------------------------------------------------


    --------------------------------------------
      INIT:  cpu time      0.3900: real time      0.3901
  FINALIZE:  cpu time     67.3161: real time     67.3166
    --------------------------------------------
    POTLOK:  cpu time     84.7240: real time     84.7247


--------------------------------------------------------------------------------------------------------


 writing wavefunctions
     LOOP+:  cpu time   3188.5326: real time   3189.5286
    4ORBIT:  cpu time      0.0000: real time      0.0000

 total amount of memory used by VASP MPI-rank0  3444362. kBytes
=======================================================================

   base      :      30000. kBytes
   nonlr-proj:       5328. kBytes
   fftplans  :     224335. kBytes
   grid      :     421299. kBytes
   one-center:         18. kBytes
   HF        :         13. kBytes
   wavefun   :     109200. kBytes
   fock_wrk  :    2654169. kBytes
 
  
  
 General timing and accounting informations for this job:
 ========================================================
  
                  Total CPU time used (sec):     3248.665
                            User time (sec):     2029.126
                          System time (sec):     1219.539
                         Elapsed time (sec):     3250.603
  
                   Maximum memory used (kb):     5161508.
                   Average memory used (kb):          N/A
  
                          Minor page faults:     30418378
                          Major page faults:            0
                 Voluntary context switches:         3582
