 vasp.6.4.2 20Jul23 (build Sep 06 2024 14:39:43) complex                        
  
 executed on             LinuxIFC date 2025.09.11  12:10:50
 running   90 mpi-ranks, on    9 nodes
 distrk:  each k-point on   90 cores,    1 groups
 distr:  one band on NCORE=  30 cores,    3 groups


--------------------------------------------------------------------------------------------------------


 INCAR:
   SYSTEM = 103_red
   ISTART = 1
   ICHARG = 2
   INIWAV = 1
   LHFCALC = .TRUE.
   HFSCREEN = 0.2
   NELM = 500
   ALGO = Damped
   ISPIN = 2
   EDIFF = 1E-05
   ISMEAR = 0
   SIGMA = 0.05
   PREC = accurate
   ENCUT = 500
   LREAL = auto  	
   LDIAG = .FALSE.
   LWAVE = .TRUE.
   LCHARG = .FALSE.
   LAECHG = .FALSE.
   LVHAR = .FALSE.
   LVTOT = .FALSE.
   EDIFFG = -0.02
   IBRION = 2
   NSW = 0
   ISIF = 2
   POTIM = 0.5
   IVDW = 12
   VDW_A1 = 0.383
   VDW_S8 = 2.310
   VDW_A2 = 5.685
   LPLANE = .TRUE.
   NCORE = 30
   LSCALU = .FALSE.
   NSIM = 4
   LSOL = .TRUE.
   EB_K = 35.6880
   LAMBDA_D_K = 3.04
   NELECT = 29
   TAU = 0

 POTCAR:    PAW_PBE C 08Apr2002                   
 POTCAR:    PAW_PBE H 15Jun2001                   
 -----------------------------------------------------------------------------
|                                                                             |
|           W    W    AA    RRRRR   N    N  II  N    N   GGGG   !!!           |
|           W    W   A  A   R    R  NN   N  II  NN   N  G    G  !!!           |
|           W    W  A    A  R    R  N N  N  II  N N  N  G       !!!           |
|           W WW W  AAAAAA  RRRRR   N  N N  II  N  N N  G  GGG   !            |
|           WW  WW  A    A  R   R   N   NN  II  N   NN  G    G                |
|           W    W  A    A  R    R  N    N  II  N    N   GGGG   !!!           |
|                                                                             |
|     You use a magnetic or noncollinear calculation, but did not specify     |
|     the initial magnetic moment with the MAGMOM tag. Note that a            |
|     default of 1 will be used for all atoms. This ferromagnetic setup       |
|     may break the symmetry of the crystal, in particular it may rule        |
|     out finding an antiferromagnetic solution. Thence, we recommend         |
|     setting the initial magnetic moment manually or verifying carefully     |
|     that this magnetic setup is desired.                                    |
|                                                                             |
 -----------------------------------------------------------------------------

 -----------------------------------------------------------------------------
|                                                                             |
|           W    W    AA    RRRRR   N    N  II  N    N   GGGG   !!!           |
|           W    W   A  A   R    R  NN   N  II  NN   N  G    G  !!!           |
|           W    W  A    A  R    R  N N  N  II  N N  N  G       !!!           |
|           W WW W  AAAAAA  RRRRR   N  N N  II  N  N N  G  GGG   !            |
|           WW  WW  A    A  R   R   N   NN  II  N   NN  G    G                |
|           W    W  A    A  R    R  N    N  II  N    N   GGGG   !!!           |
|                                                                             |
|     For optimal performance we recommend to set                             |
|       NCORE = 2 up to number-of-cores-per-socket                            |
|     NCORE specifies how many cores store one orbital (NPAR=cpu/NCORE).      |
|     This setting can greatly improve the performance of VASP for DFT.       |
|     The default, NCORE=1 might be grossly inefficient on modern             |
|     multi-core architectures or massively parallel machines. Do your        |
|     own testing! More info at https://www.vasp.at/wiki/index.php/NCORE      |
|     Unfortunately you need to use the default for GW and RPA                |
|     calculations (for HF NCORE is supported but not extensively tested      |
|     yet).                                                                   |
|                                                                             |
 -----------------------------------------------------------------------------

 POTCAR:    PAW_PBE C 08Apr2002                   
   SHA256 =  253f7b50bb8d59471dbedb8285d89021f4a42ed1a2c5d38a03a736e69125dd95 C/POTCAR              
   COPYR  = (c) Copyright 08Apr2002 Georg Kresse                                                    
   COPYR  = This file is part of the software VASP. Any use, copying, and all other rights are regul
   COPYR  = If you do not have a valid VASP license, you may not use, copy or distribute this file. 
   VRHFIN =C: s2p2                                                                                  
   LEXCH  = PE                                                                                      
   EATOM  =   147.1560 eV,   10.8157 Ry                                                             
                                                                                                    
   TITEL  = PAW_PBE C 08Apr2002                                                                     
   LULTRA =        F    use ultrasoft PP ?                                                          
   IUNSCR =        1    unscreen: 0-lin 1-nonlin 2-no                                               
   RPACOR =    1.200    partial core radius                                                         
   POMASS =   12.011; ZVAL   =    4.000    mass and valenz                                          
   RCORE  =    1.500    outmost cutoff radius                                                       
   RWIGS  =    1.630; RWIGS  =    0.863    wigner-seitz radius (au A)                               
   ENMAX  =  400.000; ENMIN  =  300.000 eV                                                          
   ICORE  =        2    local potential                                                             
   LCOR   =        T    correct aug charges                                                         
   LPAW   =        T    paw PP                                                                      
   EAUG   =  644.873                                                                                
   DEXC   =    0.000                                                                                
   RMAX   =    1.529    core radius for proj-oper                                                   
   RAUG   =    1.300    factor for augmentation sphere                                              
   RDEP   =    1.501    radius for radial grids                                                     
   RDEPT  =    1.300    core radius for aug-charge                                                  
                                                                                                    
   Atomic configuration                                                                             
    4 entries                                                                                       
     n  l   j            E        occ.                                                              
     1  0  0.50      -273.3789   2.0000                                                             
     2  0  0.50       -13.7508   2.0000                                                             
     2  1  0.50        -5.2854   2.0000                                                             
     3  2  1.50        -5.4423   0.0000                                                             
   Description                                                                                      
     l       E           TYP  RCUT    TYP  RCUT                                                     
     0    -13.7508458     23  1.200                                                                 
     0     -8.2022199     23  1.200                                                                 
     1     -5.2854383     23  1.500                                                                 
     1     34.0145650     23  1.500                                                                 
     2     -5.4423304      7  1.500                                                                 
  local pseudopotential read in
  partial core-charges read in
  partial kinetic energy density read in
  atomic valenz-charges read in
  non local Contribution for L=           0  read in
    real space projection operators read in
  non local Contribution for L=           0  read in
    real space projection operators read in
  non local Contribution for L=           1  read in
    real space projection operators read in
  non local Contribution for L=           1  read in
    real space projection operators read in
    PAW grid and wavefunctions read in
 
   number of l-projection  operators is LMAX  =           4
   number of lm-projection operators is LMMAX =           8
 
 POTCAR:    PAW_PBE H 15Jun2001                   
   SHA256 =  030f79b5d3ab3cf0e668861823c8fb652ff669f3e15e46930bd03bfd63a607b6 H/POTCAR              
   COPYR  = (c) Copyright 15Jun2001 Georg Kresse                                                    
   COPYR  = This file is part of the software VASP. Any use, copying, and all other rights are regul
   COPYR  = If you do not have a valid VASP license, you may not use, copy or distribute this file. 
   VRHFIN =H: ultrasoft test                                                                        
   LEXCH  = PE                                                                                      
   EATOM  =    12.4884 eV,    0.9179 Ry                                                             
                                                                                                    
   TITEL  = PAW_PBE H 15Jun2001                                                                     
   LULTRA =        F    use ultrasoft PP ?                                                          
   IUNSCR =        0    unscreen: 0-lin 1-nonlin 2-no                                               
   RPACOR =    0.000    partial core radius                                                         
   POMASS =    1.000; ZVAL   =    1.000    mass and valenz                                          
   RCORE  =    1.100    outmost cutoff radius                                                       
   RWIGS  =    0.700; RWIGS  =    0.370    wigner-seitz radius (au A)                               
   ENMAX  =  250.000; ENMIN  =  200.000 eV                                                          
   RCLOC  =    0.701    cutoff for local pot                                                        
   LCOR   =        T    correct aug charges                                                         
   LPAW   =        T    paw PP                                                                      
   EAUG   =  400.000                                                                                
   RMAX   =    1.123    core radius for proj-oper                                                   
   RAUG   =    1.200    factor for augmentation sphere                                              
   RDEP   =    1.112    radius for radial grids                                                     
   RDEPT  =    0.926    core radius for aug-charge                                                  
                                                                                                    
   Atomic configuration                                                                             
    2 entries                                                                                       
     n  l   j            E        occ.                                                              
     1  0  0.50        -6.4927   1.0000                                                             
     2  1  0.50        -3.4015   0.0000                                                             
   Description                                                                                      
     l       E           TYP  RCUT    TYP  RCUT                                                     
     0     -6.4927494     23  1.100                                                                 
     0      6.8029130     23  1.100                                                                 
     1     -4.0817478     23  1.100                                                                 
  local pseudopotential read in
  atomic valenz-charges read in
  non local Contribution for L=           0  read in
    real space projection operators read in
  non local Contribution for L=           0  read in
    real space projection operators read in
  non local Contribution for L=           1  read in
    real space projection operators read in
    PAW grid and wavefunctions read in
 
   number of l-projection  operators is LMAX  =           3
   number of lm-projection operators is LMMAX =           5
 
 Optimization of the real space projectors (new method)

 maximal supplied QI-value         = 25.13
 optimisation between [QCUT,QGAM] = [ 11.31, 22.87] = [ 35.82,146.48] Ry 
 Optimized for a Real-space Cutoff    1.03 Angstroem

   l    n(q)    QCUT    max X(q) W(low)/X(q) W(high)/X(q)  e(spline) 
   0      7    11.310   115.676    0.20E-03    0.90E-03    0.20E-06
   0      7    11.310    87.132    0.20E-03    0.89E-03    0.19E-06
   1      6    11.310     4.429    0.16E-03    0.28E-03    0.12E-06
   1      6    11.310     2.733    0.12E-03    0.21E-03    0.99E-07
 Optimization of the real space projectors (new method)

 maximal supplied QI-value         = 34.20
 optimisation between [QCUT,QGAM] = [ 11.29, 22.57] = [ 35.68,142.71] Ry 
 Optimized for a Real-space Cutoff    1.20 Angstroem

   l    n(q)    QCUT    max X(q) W(low)/X(q) W(high)/X(q)  e(spline) 
   0      8    11.287    19.460    0.22E-03    0.50E-03    0.19E-06
   0      8    11.287    12.209    0.21E-03    0.48E-03    0.18E-06
   1      8    11.287     4.655    0.21E-03    0.11E-04    0.26E-06
  PAW_PBE C 08Apr2002                   :
 energy of atom  1       EATOM= -147.1560
 kinetic energy error for atom=    0.0076 (will be added to EATOM!!)
  PAW_PBE H 15Jun2001                   :
 energy of atom  2       EATOM=  -12.4884
 kinetic energy error for atom=    0.0020 (will be added to EATOM!!)
 
 
 POSCAR: C H
  positions in direct lattice
  velocities in cartesian coordinates
 exchange correlation table for  LEXCH =        8
   RHO(1)=    0.500       N(1)  =     2000
   RHO(2)=  100.500       N(2)  =     4000
 


--------------------------------------------------------------------------------------------------------


 ion  position               nearest neighbor table
   1  0.468  0.516  0.500-  12 1.09   6 1.37   2 1.43
   2  0.499  0.535  0.500-  11 1.09   3 1.43   1 1.43
   3  0.531  0.518  0.500-  10 1.09   4 1.37   2 1.43
   4  0.532  0.484  0.500-   9 1.09   3 1.37   5 1.43
   5  0.501  0.465  0.500-   8 1.09   6 1.43   4 1.43
   6  0.469  0.482  0.500-   7 1.09   1 1.37   5 1.43
   7  0.446  0.467  0.500-   6 1.09
   8  0.502  0.438  0.500-   5 1.09
   9  0.555  0.470  0.500-   4 1.09
  10  0.554  0.533  0.500-   3 1.09
  11  0.498  0.562  0.500-   2 1.09
  12  0.445  0.530  0.500-   1 1.09
 
  LATTYP: Found a simple cubic cell.
 ALAT       =    40.0000000000
  
  Lattice vectors:
  
 A1 = (  40.0000000000,   0.0000000000,   0.0000000000)
 A2 = (   0.0000000000,  40.0000000000,   0.0000000000)
 A3 = (   0.0000000000,   0.0000000000,  40.0000000000)


Analysis of symmetry for initial positions (statically):
=====================================================================
 Subroutine PRICEL returns:
 Original cell was already a primitive cell.
 

 Routine SETGRP: Setting up the symmetry group for a 
 simple cubic supercell.


 Subroutine GETGRP returns: Found  4 space group operations
 (whereof  4 operations were pure point group operations)
 out of a pool of 48 trial point group operations.


The static configuration has the point symmetry C_2h.


Analysis of symmetry for dynamics (positions and initial velocities):
=====================================================================
 Subroutine PRICEL returns:
 Original cell was already a primitive cell.
 

 Routine SETGRP: Setting up the symmetry group for a 
 simple cubic supercell.


 Subroutine GETGRP returns: Found  4 space group operations
 (whereof  4 operations were pure point group operations)
 out of a pool of 48 trial point group operations.


The dynamic configuration has the point symmetry C_2h.


Analysis of constrained symmetry for selective dynamics:
=====================================================================
 Subroutine PRICEL returns:
 Original cell was already a primitive cell.
 

 Routine SETGRP: Setting up the symmetry group for a 
 simple cubic supercell.


 Subroutine GETGRP returns: Found  4 space group operations
 (whereof  4 operations were pure point group operations)
 out of a pool of 48 trial point group operations.


The constrained configuration has the point symmetry C_2h.


Analysis of structural, dynamic, and magnetic symmetry:
=====================================================================
 Subroutine PRICEL returns:
 Original cell was already a primitive cell.
 

 Routine SETGRP: Setting up the symmetry group for a 
 simple cubic supercell.


 Subroutine GETGRP returns: Found  4 space group operations
 (whereof  4 operations were pure point group operations)
 out of a pool of 48 trial point group operations.


The overall configuration has the point symmetry C_2h.


 Subroutine INISYM returns: Found  4 space group operations
 (whereof  4 operations are pure point group operations),
 and found     1 'primitive' translations


----------------------------------------------------------------------------------------

                                     Primitive cell                                     

  volume of cell :   64000.0000

  direct lattice vectors                    reciprocal lattice vectors
    40.000000000  0.000000000  0.000000000     0.025000000  0.000000000  0.000000000
     0.000000000 40.000000000  0.000000000     0.000000000  0.025000000  0.000000000
     0.000000000  0.000000000 40.000000000     0.000000000  0.000000000  0.025000000

  length of vectors
    40.000000000 40.000000000 40.000000000     0.025000000  0.025000000  0.025000000

  position of ions in fractional coordinates (direct lattice)
     0.468380785  0.516362325  0.500000000
     0.499139507  0.534634863  0.500000000
     0.530766121  0.517948010  0.500000000
     0.531619215  0.483637675  0.500000000
     0.500860493  0.465365137  0.500000000
     0.469233879  0.482051990  0.500000000
     0.446341788  0.467333035  0.500000000
     0.501554354  0.438132370  0.500000000
     0.555218451  0.470077635  0.499999000
     0.553658212  0.532666965  0.500000000
     0.498445646  0.561867630  0.500000000
     0.444781549  0.529922365  0.500000000

  ion indices of the primitive-cell ions
   primitive index   ion index
                 1           1
                 2           2
                 3           3
                 4           4
                 5           5
                 6           6
                 7           7
                 8           8
                 9           9
                10          10
                11          11
                12          12

----------------------------------------------------------------------------------------

 
 
 KPOINTS: K-Point Grid                            

Automatic generation of k-mesh.
 Grid dimensions read from file:
 generate k-points for:    1    1    1

 Generating k-lattice:

  Cartesian coordinates                     Fractional coordinates (reciprocal lattice)
     0.025000000  0.000000000  0.000000000     1.000000000  0.000000000  0.000000000
     0.000000000  0.025000000  0.000000000     0.000000000  1.000000000  0.000000000
     0.000000000  0.000000000  0.025000000     0.000000000  0.000000000  1.000000000

  Length of vectors
     0.025000000  0.025000000  0.025000000

  Shift w.r.t. Gamma in fractional coordinates (k-lattice)
     0.000000000  0.000000000  0.000000000

 
 Subroutine IBZKPT returns following result:
 ===========================================
 
 Found      1 irreducible k-points:
 
 Following reciprocal coordinates:
            Coordinates               Weight
  0.000000  0.000000  0.000000      1.000000
 
 Following cartesian coordinates:
            Coordinates               Weight
  0.000000  0.000000  0.000000      1.000000
 
 
 Subroutine IBZKPT_HF returns following result:
 ==============================================
 
 Found      1 k-points in 1st BZ
 the following      1 k-points will be used (e.g. in the exchange kernel)
 Following reciprocal coordinates:   # in IRBZ
  0.000000  0.000000  0.000000    1.00000000   1 t-inv F


--------------------------------------------------------------------------------------------------------




 Dimension of arrays:
   k-points           NKPTS =      1   k-points in BZ     NKDIM =      1   number of bands    NBANDS=     27
   number of dos      NEDOS =    301   number of ions     NIONS =     12
   non local maximal  LDIM  =      4   non local SUM 2l+1 LMDIM =      8
   total plane-waves  NPLWV = ******
   max r-space proj   IRMAX =   2915   max aug-charges    IRDMAX=   4885
   dimension x,y,z NGX =   294 NGY =  294 NGZ =  294
   dimension x,y,z NGXF=   588 NGYF=  588 NGZF=  588
   support grid    NGXF=   588 NGYF=  588 NGZF=  588
   ions per type =               6   6
   NGX,Y,Z   is equivalent  to a cutoff of  12.22, 12.22, 12.22 a.u.
   NGXF,Y,Z  is equivalent  to a cutoff of  24.44, 24.44, 24.44 a.u.

 SYSTEM =  103_red                                 
 POSCAR =  C H                                     

 Startparameter for this run:
   NWRITE =      2    write-flag & timer
   PREC   = accura    normal or accurate (medium, high low for compatibility)
   ISTART =      1    job   : 0-new  1-cont  2-samecut
   ICHARG =      2    charge: 1-file 2-atom 10-const
   ISPIN  =      2    spin polarized calculation?
   LNONCOLLINEAR =      F non collinear calculations
   LSORBIT =      F    spin-orbit coupling
   INIWAV =      1    electr: 0-lowe 1-rand  2-diag
   LASPH  =      F    aspherical Exc in radial PAW
 Electronic Relaxation 1
   ENCUT  =  500.0 eV  36.75 Ry    6.06 a.u.  72.93 72.93 72.93*2*pi/ulx,y,z
   ENINI  =  500.0     initial cutoff
   ENAUG  =  644.9 eV  augmentation charge cutoff
   NELM   =    500;   NELMIN=  2; NELMDL=  0     # of ELM steps 
   EDIFF  = 0.1E-04   stopping-criterion for ELM
   LREAL  =      T    real-space projection
   NLSPLINE    = F    spline interpolate recip. space projectors
   LCOMPAT=      F    compatible to vasp.4.4
   GGA_COMPAT  = T    GGA compatible to vasp.4.4-vasp.4.6
   LMAXPAW     = -100 max onsite density
   LMAXMIX     =    2 max onsite mixed and CHGCAR
   VOSKOWN=      0    Vosko Wilk Nusair interpolation
   ROPT   =   -0.00025  -0.00025
 Ionic relaxation
   EDIFFG = -.2E-01   stopping-criterion for IOM
   NSW    =      0    number of steps for IOM
   NBLOCK =      1;   KBLOCK =      1    inner block; outer block 
   IBRION =     -1    ionic relax: 0-MD 1-quasi-New 2-CG
   NFREE  =      1    steps in history (QN), initial steepest desc. (CG)
   ISIF   =      2    stress and relaxation
   IWAVPR =     10    prediction:  0-non 1-charg 2-wave 3-comb
   ISYM   =      3    0-nonsym 1-usesym 2-fastsym
   LCORR  =      T    Harris-Foulkes like correction to forces

   POTIM  = 0.5000    time-step for ionic-motion
   TEIN   =    0.0    initial temperature
   TEBEG  =    0.0;   TEEND  =   0.0 temperature during run
   SMASS  =  -3.00    Nose mass-parameter (am)
   estimated Nose-frequenzy (Omega)   =  0.10E-29 period in steps = 0.13E+47 mass=  -0.366E-25a.u.
   SCALEE = 1.0000    scale energy and forces
   NPACO  =    256;   APACO  = 10.0  distance and # of slots for P.C.
   PSTRESS=    0.0 pullay stress

  Mass of Ions in am
   POMASS =  12.01  1.00
  Ionic Valenz
   ZVAL   =   4.00  1.00
  Atomic Wigner-Seitz radii
   RWIGS  =  -1.00 -1.00
  virtual crystal weights 
   VCA    =   1.00  1.00
   NELECT =      29.0000    total number of electrons
   NUPDOWN=      -1.0000    fix difference up-down

 DOS related values:
   EMIN   =  10.00;   EMAX   =-10.00  energy-range for DOS
   EFERMI =   0.00;   METHOD = LEGACY      
   ISMEAR =     0;   SIGMA  =   0.05  broadening in eV -4-tet -1-fermi 0-gaus

 Electronic relaxation 2 (details)
   IALGO  =     53    algorithm
   LDIAG  =      F    sub-space diagonalisation (order eigenvalues)
   LSUBROT=      F    optimize rotation matrix (better conditioning)
   TURBO    =      0    0=normal 1=particle mesh
   IRESTART =      0    0=no restart 2=restart with 2 vectors
   NREBOOT  =      0    no. of reboots
   NMIN     =      0    reboot dimension
   EREF     =   0.00    reference energy to select bands
   IMIX   =      4    mixing-type and parameters
     AMIX     =   0.40;   BMIX     =  1.00
     AMIX_MAG =   1.60;   BMIX_MAG =  1.00
     AMIN     =   0.10
     WC   =   100.;   INIMIX=   1;  MIXPRE=   1;  MAXMIX= -45

 Intra band minimization:
   WEIMIN = 0.0000     energy-eigenvalue tresh-hold
   EBREAK =  0.93E-07  absolut break condition
   DEPER  =   0.30     relativ break condition  

   TIME   =   0.40     timestep for ELM

  volume/ion in A,a.u.               =    5333.33     35991.11
  Fermi-wavevector in a.u.,A,eV,Ry     =   0.125742  0.237618  0.215123  0.015811
  Thomas-Fermi vector in A             =   0.756126
 
 Write flags
   LWAVE        =      T    write WAVECAR
   LDOWNSAMPLE  =      F    k-point downsampling of WAVECAR
   LCHARG       =      F    write CHGCAR
   LVTOT        =      F    write LOCPOT, total local potential
   LVHAR        =      F    write LOCPOT, Hartree potential only
   LELF         =      F    write electronic localiz. function (ELF)
   LORBIT       =      0    0 simple, 1 ext, 2 COOP (PROOUT), +10 PAW based schemes


 Dipole corrections
   LMONO  =      F    monopole corrections only (constant potential shift)
   LDIPOL =      F    correct potential (dipole corrections)
   IDIPOL =      0    1-x, 2-y, 3-z, 4-all directions 
   EPSILON=  1.0000000 bulk dielectric constant

 Exchange correlation treatment:
   GGA     =    --    GGA type
   LEXCH   =     8    internal setting for exchange type
   LIBXC   =     F    Libxc                    
   VOSKOWN =     0    Vosko Wilk Nusair interpolation
   EXXOEP  =     0    0=HF, 1=EXX-LHF (local Hartree Fock) 2=EXX OEP
   LHFCALC =     T    Hartree Fock is set to
   LSYMGRAD=     F    symmetrize gradient (conserves proper symmetry)
   PRECFOCK=normal    Normal, Fast or Accurate (Low or Medium for compatibility)
   LRHFCALC=     F    long range Hartree Fock
   LRSCOR  =     F    long range correlation only (use DFT for short range part)
   LTHOMAS =     F    Thomas Fermi screening in HF
   LMODELHF=     F    short range full HF, long range fraction AEXX
   FOCKCORR=     1    mode to apply convergence corrections
   LFOCKACE=     F    use Adeptively-Compressed-Exchange operator
   ENCUT4O =  -1.0   cutoff for four orbital integrals eV
   LMAXFOCK=     4    L truncation for augmentation on plane wave grid
   LMAXFOCKAE=  -1    L truncation for all-electron charge restoration on plane wave grid
   NMAXFOCKAE=   1    number of basis functions for all-electron charge restoration
   LFOCKAEDFT=     F  apply the AE augmentation even for DFT
   NKREDX  =     1    reduce k-point grid by
   NKREDY  =     1    reduce k-point grid by
   NKREDZ  =     1    reduce k-point grid by
   SHIFTRED=     F    shift reduced grid of Gamma
   HFKIDENT=     F    idential grid for each k-point
   ODDONLY =     F    use only odd q-grid points
   EVENONLY=     F    use only even q-grid points
   HFALPHA =   -1.0000 decay constant for conv. correction
   MCALPHA =    0.0000 extent of test-charge in conv. correction in multipole expansion
   AEXX    =    0.2500 exact exchange contribution
   HFSCREEN=    0.2000 screening length (either q_TF or 0.3 A-1)
   HFSCREENC=   0.2000 screening length for correlation (either q_TF or 0.3 A-1)
   HFRCUT  =    0.0000 spherical cutoff for potential kernel
   ALDAX   =    0.7500 LDA exchange part
   AGGAX   =    0.7500 GGA exchange part
   ALDAC   =    1.0000 LDA correlation
   AGGAC   =    1.0000 GGA correlation
   ENCUTFOCK=  -1.0 apply spherical cutoff to Coloumb kernel
   NBANDSGWLOW=     1    first orbital included in HF term
   NBLOCK_FOCK=    64    blocking factor in FOCK_ACC

 Linear response parameters
   LEPSILON=     F    determine dielectric tensor
   LRPA    =     F    only Hartree local field effects (RPA)
   LNABLA  =     F    use nabla operator in PAW spheres
   LVEL    =     F    velocity operator in full k-point grid
   CSHIFT  =0.1000    complex shift for real part using Kramers Kronig
   OMEGAMAX=  -1.0    maximum frequency
   DEG_THRESHOLD= 0.2000000E-02 threshold for treating states as degnerate
   RTIME   =   -0.100 relaxation time in fs
  (WPLASMAI=    0.000 imaginary part of plasma frequency in eV, 0.658/RTIME)
   DFIELD  = 0.0000000 0.0000000 0.0000000 field for delta impulse in time
 
  Optional k-point grid parameters
   LKPOINTS_OPT  =     F    use optional k-point grid
   KPOINTS_OPT_MODE=     1    mode for optional k-point grid
 
 Orbital magnetization related:
   ORBITALMAG=     F  switch on orbital magnetization
   LCHIMAG   =     F  perturbation theory with respect to B field
   DQ        =  0.001000  dq finite difference perturbation B field
   LLRAUG    =     F  two centre corrections for induced B field
   LBONE     =     F  B-component reconstruction in AE one-centre
   LVGVCALC  =     T  calculate vGv susceptibility
   LVGVAPPL  =     F  apply vGv susceptibility instead of pGv for G=0

 Random number generation:
   RANDOM_GENERATOR = DEFAULT
   PCG_SEED         = not used
 Solvation model:
   LSOL    =     T         switch on solvation model
   EB_K    = 35.688000     relative permittivity of the bulk solvent
   SIGMA_K =  0.600000     width of the dielectric cavity
   NC_K    =  0.002500     cutoff charge density
   TAU     =  0.000000     cavity surface tension
   LAMBDA_D_K    =  3.040000     Debye length in Angstroms
   LRHOB     =     F     write boundcharge  density
   LRHOION     =     F     write ioniccharge density



--------------------------------------------------------------------------------------------------------


 Static calculation
 charge density and potential will be updated during run
 spin polarized calculation
 Conjugate gradient for all bands (Kresse, et al. variant)
 perform Loewdin sub-space diagonalisation
    ordering is kept fixed
    before iterative eigenvector-optimisation
 modified Broyden-mixing scheme, WC =      100.0
 initial mixing is a Kerker type mixing with AMIX =  0.4000 and BMIX =      1.0000
 Hartree-type preconditioning will be used
 using additional bands           12
 real space projection scheme for non local part
 use partial core corrections
 no Harris-corrections to forces 
 use gradient corrections 
 use of overlap-Matrix (Vanderbilt PP)
 Gauss-broadening in eV      SIGMA  =   0.05


--------------------------------------------------------------------------------------------------------


  energy-cutoff  :      500.00
  volume of cell :    64000.00
      direct lattice vectors                 reciprocal lattice vectors
    40.000000000  0.000000000  0.000000000     0.025000000  0.000000000  0.000000000
     0.000000000 40.000000000  0.000000000     0.000000000  0.025000000  0.000000000
     0.000000000  0.000000000 40.000000000     0.000000000  0.000000000  0.025000000

  length of vectors
    40.000000000 40.000000000 40.000000000     0.025000000  0.025000000  0.025000000


 
 old parameters found on file WAVECAR:
  energy-cutoff  :      500.00
  volume of cell :    64000.00
      direct lattice vectors                 reciprocal lattice vectors
    40.000000000  0.000000000  0.000000000     0.025000000  0.000000000  0.000000000
     0.000000000 40.000000000  0.000000000     0.000000000  0.025000000  0.000000000
     0.000000000  0.000000000 40.000000000     0.000000000  0.000000000  0.025000000

  length of vectors

 
 k-points in units of 2pi/SCALE and weight: K-Point Grid                            
   0.00000000  0.00000000  0.00000000       1.000
 
 k-points in reciprocal lattice and weights: K-Point Grid                            
   0.00000000  0.00000000  0.00000000       1.000
 
 position of ions in fractional coordinates (direct lattice) 
   0.46838079  0.51636232  0.50000000
   0.49913951  0.53463486  0.50000000
   0.53076612  0.51794801  0.50000000
   0.53161921  0.48363768  0.50000000
   0.50086049  0.46536514  0.50000000
   0.46923388  0.48205199  0.50000000
   0.44634179  0.46733303  0.50000000
   0.50155435  0.43813237  0.50000000
   0.55521845  0.47007764  0.49999900
   0.55365821  0.53266697  0.50000000
   0.49844565  0.56186763  0.50000000
   0.44478155  0.52992236  0.50000000
 
 position of ions in cartesian coordinates  (Angst):
  18.73523140 20.65449299 20.00000000
  19.96558028 21.38539454 20.00000000
  21.23064483 20.71792041 20.00000000
  21.26476860 19.34550701 20.00000000
  20.03441972 18.61460546 20.00000000
  18.76935517 19.28207959 20.00000000
  17.85367150 18.69332138 20.00000000
  20.06217416 17.52529481 20.00000000
  22.20873802 18.80310540 19.99996000
  22.14632850 21.30667862 20.00000000
  19.93782584 22.47470519 20.00000000
  17.79126198 21.19689460 20.00000000
 


--------------------------------------------------------------------------------------------------------


 k-point   1 :   0.0000 0.0000 0.0000  plane waves: 1624525

 maximum and minimum number of plane-waves per node :     54169    54136

 maximum number of plane-waves:   1624525
 maximum index in each direction: 
   IXMAX=   72   IYMAX=   72   IZMAX=   72
   IXMIN=  -72   IYMIN=  -72   IZMIN=  -72


 real space projection operators:
  total allocation   :       1320.75 KBytes
  max/ min on nodes  :         54.17         36.43


 parallel 3D FFT for wavefunctions:
    minimum data exchange during FFTs selected (reduces bandwidth)
 parallel 3D FFT for charge:
    minimum data exchange during FFTs selected (reduces bandwidth)


 FFT grid for exact exchange (Hartree Fock) 
  NGX =224; NGY =224; NGZ =224

 
 Radii for the augmentation spheres in the non-local exchange
 for species   1 augmentation radius   0.874 (default was   0.699)
       energy cutoff for augmentation   2000.0
 for species   2 augmentation radius   0.650 (default was   0.520)
       energy cutoff for augmentation   2000.0

 real space projection operators:
  total allocation   :        291.09 KBytes
  max/ min on nodes  :         16.45          4.22

 Maximum index for augmentation-charges in exchange           76
  SETUP_FOCK is finished

 total amount of memory used by VASP MPI-rank0   470121. kBytes
=======================================================================

   base      :      30000. kBytes
   nonlr-proj:        752. kBytes
   fftplans  :     129164. kBytes
   grid      :     263386. kBytes
   one-center:          6. kBytes
   HF        :          4. kBytes
   wavefun   :      46809. kBytes
 
     INWAV:  cpu time     12.3280: real time     12.3555
 Broyden mixing: mesh for mixing (old mesh)
   NGX =145   NGY =145   NGZ =145
  (NGX  =588   NGY  =588   NGZ  =588)
  gives a total of ****** points

 initial charge density was supplied:
 charge density of overlapping atoms calculated
 number of electron      30.0000000 magnetization      12.0000000
 charge density for first step will be calculated from the start-wavefunctions


--------------------------------------------------------------------------------------------------------


 Maximum index for non-local projection operator          219
 Maximum index for augmentation-charges          238 (set IRDMAX)


--------------------------------------------------------------------------------------------------------


 initial charge from wavefunction
 First call to EWALD:  gamma=   0.044
 Maximum number of real-space cells 3x 3x 3
 Maximum number of reciprocal cells 3x 3x 3

    FEWALD:  cpu time      0.0059: real time      0.0059


--------------------------------------- Ionic step        1  -------------------------------------------




--------------------------------------- Iteration      1(   1)  ---------------------------------------


    POTLOK:  cpu time    314.7575: real time    314.7623
    SETDIJ:  cpu time      0.1304: real time      0.1304
    TRIAL :  cpu time     60.3533: real time     60.3533
    CORREC:  cpu time      0.0109: real time      0.0109
    CHARGE:  cpu time      1.4810: real time      1.4810
    --------------------------------------------
      LOOP:  cpu time    376.7723: real time    376.7827

 eigenvalue-minimisations  :     0
 total energy-change (2. order) :-0.8085327E+02  (-0.4404461E-05)
 number of electron      28.9999994 magnetization       1.0000002
 augmentation part        0.6509112 magnetization       0.0493128

 Free energy of the ion-electron system (eV)
  ---------------------------------------------------
  alpha Z        PSCENC =         0.06461113
  Ewald energy   TEWEN  =      2320.47623268
  -Hartree energ DENC   =     -2935.31486724
  -exchange      EXHF   =        63.67359017
  -V(xc)+E(xc)   XCENC  =        73.49603387
  PAW double counting   =      2648.17556199    -2650.96581440
  entropy T*S    EENTRO =        -0.00000000
  eigenvalues    EBANDS =      -433.76974994
  atomic energy  EATOM  =       944.30247996
  ---------------------------------------------------
  free energy    TOTEN  =       -80.85326935 eV

  energy without entropy =      -80.85326935  energy(sigma->0) =      -80.85326935
  exchange ACFDT corr.  =         0.00000000  see jH, gK, PRB 81, 115126


--------------------------------------------------------------------------------------------------------




--------------------------------------- Iteration      1(   2)  ---------------------------------------


    POTLOK:  cpu time    189.5952: real time    189.5950
    SETDIJ:  cpu time      0.1456: real time      0.1456
    TRIAL :  cpu time     62.9802: real time     62.9802
    CORREC:  cpu time      0.0067: real time      0.0067
    CHARGE:  cpu time      1.4611: real time      1.4611
    --------------------------------------------
      LOOP:  cpu time    254.2369: real time    254.2430

 eigenvalue-minimisations  :     0
 total energy-change (2. order) :-0.4187513E-05  (-0.4817728E-05)
 number of electron      28.9999994 magnetization       1.0000002
 augmentation part        0.6509129 magnetization       0.0493128

 Free energy of the ion-electron system (eV)
  ---------------------------------------------------
  alpha Z        PSCENC =         0.06461113
  Ewald energy   TEWEN  =      2320.47623268
  -Hartree energ DENC   =     -2935.31506235
  -exchange      EXHF   =        63.67364157
  -V(xc)+E(xc)   XCENC  =        73.49605860
  PAW double counting   =      2648.18094276    -2650.97119768
  entropy T*S    EENTRO =        -0.00000000
  eigenvalues    EBANDS =      -433.76967391
  atomic energy  EATOM  =       944.30247996
  ---------------------------------------------------
  free energy    TOTEN  =       -80.85327354 eV

  energy without entropy =      -80.85327354  energy(sigma->0) =      -80.85327354
  exchange ACFDT corr.  =         0.00000000  see jH, gK, PRB 81, 115126


--------------------------------------------------------------------------------------------------------


  average scaling for gradient   1.0481


 average (electrostatic) potential at core
  the test charge radii are     0.6991  0.5201
  (the norm of the test charge is              1.0000)
       1 -56.4277       2 -57.1743       3 -56.4159       4 -56.4277       5 -57.1743
       6 -56.4159       7 -38.7627       8 -39.0623       9 -38.7666      10 -38.7627
      11 -39.0623      12 -38.7667
 
 
 
 E-fermi :  -7.9295     XC(G=0):  -0.0119     alpha+bet : -0.0119

 Fermi energy:        -7.9295128970

 spin component 1

 k-point     1 :       0.0000    0.0000    0.0000
  band No.  band energies     occupation 
      1     -25.1122      1.00000
      2     -22.1107      1.00000
      3     -22.0096      1.00000
      4     -18.0315      1.00000
      5     -17.7616      1.00000
      6     -15.3823      1.00000
      7     -13.6168      1.00000
      8     -13.6732      1.00000
      9     -12.6800      1.00000
     10     -12.5236      1.00000
     11     -11.7325      1.00000
     12     -10.6030      1.00000
     13     -10.4335      1.00000
     14      -8.8822      1.00000
     15      -8.3367      1.00000
     16      -2.7422      0.00000
     17      -1.7693      0.00000
     18      -0.2589      0.00000
     19       0.0167      0.00000
     20       0.0851      0.00000
     21       0.0828      0.00000
     22       0.0933      0.00000
     23       0.1008      0.00000
     24       0.1010      0.00000
     25       0.1543      0.00000
     26       0.1323      0.00000
     27       0.1516      0.00000
 Fermi energy:        -7.9295128970

 spin component 2

 k-point     1 :       0.0000    0.0000    0.0000
  band No.  band energies     occupation 
      1     -24.7897      1.00000
      2     -21.9703      1.00000
      3     -21.4792      1.00000
      4     -17.7412      1.00000
      5     -17.6014      1.00000
      6     -15.3208      1.00000
      7     -13.4978      1.00000
      8     -13.5459      1.00000
      9     -12.6822      1.00000
     10     -12.3854      1.00000
     11     -10.7219      1.00000
     12     -10.5572      1.00000
     13     -10.3466      1.00000
     14      -8.2408      1.00000
     15      -6.3741      0.00000
     16      -1.4091      0.00000
     17      -1.3732      0.00000
     18      -0.2292      0.00000
     19       0.0173      0.00000
     20       0.0829      0.00000
     21       0.0885      0.00000
     22       0.0948      0.00000
     23       0.1009      0.00000
     24       0.1008      0.00000
     25       0.1603      0.00000
     26       0.1333      0.00000
     27       0.1514      0.00000


--------------------------------------------------------------------------------------------------------


 soft charge-density along one line, spin component           1
         0         1         2         3         4         5         6         7         8         9
 total charge-density along one line
 
 soft charge-density along one line, spin component           2
         0         1         2         3         4         5         6         7         8         9
 total charge-density along one line
 
 pseudopotential strength for first ion, spin component:           1
 10.072  13.395  -0.000   0.000   0.003   0.001  -0.000  -0.010
 13.395  17.812  -0.000   0.000   0.004   0.002  -0.000  -0.014
 -0.000  -0.000  -4.279   0.000  -0.002   8.343  -0.000   0.003
  0.000   0.000   0.000  -4.288  -0.000  -0.000   8.362   0.000
  0.003   0.004  -0.002  -0.000  -4.277   0.003   0.000   8.339
  0.001   0.002   8.343  -0.000   0.003 -18.384   0.000  -0.006
 -0.000  -0.000  -0.000   8.362   0.000   0.000 -18.429  -0.000
 -0.010  -0.014   0.003   0.000   8.339  -0.006  -0.000 -18.380
 pseudopotential strength for first ion, spin component:           2
 10.069  13.390  -0.000   0.000   0.004   0.001  -0.000  -0.012
 13.390  17.807  -0.000   0.000   0.005   0.001  -0.000  -0.015
 -0.000  -0.000  -4.279  -0.000  -0.002   8.343   0.000   0.004
  0.000   0.000  -0.000  -4.282   0.000   0.000   8.353  -0.000
  0.004   0.005  -0.002   0.000  -4.278   0.004  -0.000   8.342
  0.001   0.001   8.343   0.000   0.004 -18.387  -0.000  -0.008
 -0.000  -0.000   0.000   8.353  -0.000  -0.000 -18.413   0.000
 -0.012  -0.015   0.004  -0.000   8.342  -0.008   0.000 -18.385
 total augmentation occupancy for first ion, spin component:           1
  8.693  -3.897  -0.216   0.000   0.185  -0.040   0.000   0.044
 -3.897   1.785   0.133  -0.000  -0.152   0.023  -0.000  -0.028
 -0.216   0.133   1.902   0.000  -0.012   0.180   0.000   0.005
  0.000  -0.000   0.000   1.063  -0.000   0.000   0.069  -0.000
  0.185  -0.152  -0.012  -0.000   1.793   0.005  -0.000   0.163
 -0.040   0.023   0.180   0.000   0.005   0.018  -0.000   0.001
  0.000  -0.000   0.000   0.069  -0.000  -0.000   0.005  -0.000
  0.044  -0.028   0.005  -0.000   0.163   0.001  -0.000   0.016
 total augmentation occupancy for first ion, spin component:           2
  0.012  -0.010   0.008  -0.000   0.006   0.002  -0.000   0.002
 -0.010   0.007  -0.009   0.000  -0.010  -0.002   0.000  -0.002
  0.008  -0.009  -0.003  -0.000  -0.006   0.000  -0.000   0.000
 -0.000   0.000  -0.000   0.049   0.000  -0.000   0.003   0.000
  0.006  -0.010  -0.006   0.000  -0.009   0.000   0.000   0.000
  0.002  -0.002   0.000  -0.000   0.000   0.000   0.000   0.000
 -0.000   0.000  -0.000   0.003   0.000   0.000   0.000  -0.000
  0.002  -0.002   0.000   0.000   0.000   0.000  -0.000   0.000


------------------------ aborting loop because EDIFF is reached ----------------------------------------


    FORLOC:  cpu time      0.2121: real time      0.2121
    FORHF :  cpu time     33.3513: real time     33.3514
    FORNL :  cpu time      2.8541: real time      2.8541
    STRESS:  cpu time      8.7913: real time      8.7914
    FORCOR:  cpu time     13.6268: real time     13.6268
    OFIELD:  cpu time      0.0188: real time      0.0188
 WARNING: Using user supplied parameters
     VDW_A1 = 0.383
     VDW_A2 = 5.685
     VDW_S8 = 2.31
     because the xc functional is not supported. Required parameters not
     defined in the INCAR file will be replaced with PBE defaults ones.


 ---------------------------------------------------------------------------------------------

         DFTD3 V3.0 Rev 1        
 IVDW         = 12
 DF unknown   
 parameters
 VDW_S6       =    1.0000
 VDW_S8       =    2.3100
 VDW_A1       =    0.3830
 VDW_A2       =    5.6850
 k1-k3        =   16.0000    1.3333   -4.0000
 VDW_RADIUS   =   50.2022 A
 VDW_CNRADIUS =   21.1671 A
 Edisp (eV)   -0.18781

 E6    (eV) :    -0.0958
 E8    (eV) :    -0.0920
 % E8        : 49.00
    FORVDW:  cpu time      0.0062: real time      0.0062

  FORCE on cell =-STRESS in cart. coord.  units (eV):
  Direction    XX          YY          ZZ          XY          YZ          ZX
  --------------------------------------------------------------------------------------
  Alpha Z     0.06461     0.06461     0.06461
  Ewald    1239.62085  1234.67807  -153.82237     0.21149     0.00169    -0.00299
  Hartree  1252.74203  1226.98920   455.58397     0.81500     0.00074    -0.00132
  E(xc)     -79.28708   -79.28214   -80.77047    -0.00003     0.00000    -0.00000
  Local   -2765.58697 -2731.31922  -614.19456    -1.12613    -0.00232     0.00408
  n-local   -33.27096   -34.27535   -26.10684     0.02493    -0.00002     0.00003
  augment    -1.28781    -1.29966    -1.40807     0.00032    -0.00000     0.00000
  Kinetic   413.14456   411.23346   445.08282     0.05151    -0.00009     0.00018
  Fock      -28.25457   -28.72482   -25.26138     0.01392    -0.00001     0.00001
  vdW        -0.04214    -0.03619    -0.00000    -0.00020    -0.00000     0.00000
  -------------------------------------------------------------------------------------
  Total      -2.15749    -1.97204    -0.83230    -0.00918     0.00000     0.00000
  in kB      -0.05401    -0.04937    -0.02084    -0.00023     0.00000     0.00000
  external pressure =       -0.04 kB  Pullay stress =        0.00 kB


 VOLUME and BASIS-vectors are now :
 -----------------------------------------------------------------------------
  energy-cutoff  :      500.00
  volume of cell :    64000.00
      direct lattice vectors                 reciprocal lattice vectors
    40.000000000  0.000000000  0.000000000     0.025000000  0.000000000  0.000000000
     0.000000000 40.000000000  0.000000000     0.000000000  0.025000000  0.000000000
     0.000000000  0.000000000 40.000000000     0.000000000  0.000000000  0.025000000

  length of vectors
    40.000000000 40.000000000 40.000000000     0.025000000  0.025000000  0.025000000


 FORCES acting on ions:
    Electron-Ion                     Ewald-Force                    Non-Local-Force
 -----------------------------------------------------------------------------------------------
   0.149E+03 -.922E+02 -.428E-04   -.152E+03 0.925E+02 0.376E-04   0.315E+01 -.826E+00 -.424E-21
   0.440E+01 -.170E+03 0.157E-05   -.442E+01 0.172E+03 0.574E-04   0.505E-01 -.241E+01 0.000E+00
   -.144E+03 -.995E+02 -.281E-03   0.148E+03 0.100E+03 0.232E-03   -.311E+01 -.994E+00 0.000E+00
   -.149E+03 0.922E+02 -.180E-02   0.152E+03 -.925E+02 0.179E-02   -.315E+01 0.826E+00 0.000E+00
   -.440E+01 0.170E+03 -.238E-03   0.442E+01 -.172E+03 0.221E-03   -.505E-01 0.241E+01 0.000E+00
   0.144E+03 0.995E+02 -.630E-04   -.148E+03 -.100E+03 0.549E-04   0.311E+01 0.994E+00 0.169E-20
   0.675E+02 0.430E+02 -.264E-05   -.725E+02 -.461E+02 0.693E-05   0.500E+01 0.318E+01 0.000E+00
   -.202E+01 0.797E+02 -.367E-04   0.217E+01 -.856E+02 0.369E-04   -.153E+00 0.603E+01 0.000E+00
   -.696E+02 0.396E+02 0.235E-02   0.747E+02 -.424E+02 -.248E-02   -.515E+01 0.293E+01 0.000E+00
   -.675E+02 -.430E+02 -.501E-04   0.725E+02 0.461E+02 0.366E-04   -.500E+01 -.318E+01 0.000E+00
   0.202E+01 -.797E+02 -.129E-04   -.217E+01 0.856E+02 0.712E-05   0.153E+00 -.603E+01 0.000E+00
   0.696E+02 -.396E+02 -.496E-05   -.747E+02 0.424E+02 0.451E-05   0.515E+01 -.293E+01 0.255E-20
 -----------------------------------------------------------------------------------------------
   0.300E-04 -.466E-05 -.296E-03   0.426E-13 0.142E-13 0.190E-17   0.000E+00 0.000E+00 0.382E-20
 
 
 POSITION                                       TOTAL-FORCE (eV/Angst)
 -----------------------------------------------------------------------------------
     18.73523     20.65449     20.00000         0.107095     -0.269113      0.000000
     19.96558     21.38539     20.00000         0.009876     -0.149740     -0.000000
     21.23064     20.71792     20.00000        -0.096843     -0.267844     -0.000000
     21.26477     19.34551     20.00000        -0.107095      0.269113     -0.000000
     20.03442     18.61461     20.00000        -0.009876      0.149740     -0.000000
     18.76936     19.28208     20.00000         0.096843      0.267844      0.000000
     17.85367     18.69332     20.00000         0.225976      0.131075     -0.000000
     20.06217     17.52529     20.00000        -0.005854      0.250491     -0.000000
     22.20874     18.80311     19.99996        -0.233886      0.120388     -0.000000
     22.14633     21.30668     20.00000        -0.225976     -0.131075     -0.000000
     19.93783     22.47471     20.00000         0.005854     -0.250491     -0.000000
     17.79126     21.19689     20.00000         0.233886     -0.120388      0.000000
 -----------------------------------------------------------------------------------
    total drift:                                0.000030     -0.000005     -0.000296


--------------------------------------------------------------------------------------------------------



  FREE ENERGIE OF THE ION-ELECTRON SYSTEM (eV)
  ---------------------------------------------------
  free  energy   TOTEN  =       -81.04108611 eV

  energy  without entropy=      -81.04108611  energy(sigma->0) =      -81.04108611
 


--------------------------------------------------------------------------------------------------------


    POTLOK:  cpu time    204.9730: real time    204.9732


--------------------------------------------------------------------------------------------------------


 writing wavefunctions
     LOOP+:  cpu time    928.0051: real time    928.3452
    4ORBIT:  cpu time      0.0000: real time      0.0000

 total amount of memory used by VASP MPI-rank0   471048. kBytes
=======================================================================

   base      :      30000. kBytes
   nonlr-proj:       1679. kBytes
   fftplans  :     129164. kBytes
   grid      :     263386. kBytes
   one-center:          6. kBytes
   HF        :          4. kBytes
   wavefun   :      46809. kBytes
   fock_wrk  :          0. kBytes
 
  
  
 General timing and accounting informations for this job:
 ========================================================
  
                  Total CPU time used (sec):      975.552
                            User time (sec):      469.563
                          System time (sec):      505.989
                         Elapsed time (sec):      976.842
  
                   Maximum memory used (kb):     1445180.
                   Average memory used (kb):          N/A
  
                          Minor page faults:      2419394
                          Major page faults:            0
                 Voluntary context switches:         3377
