
                                 *****************
                                 * O   R   C   A *
                                 *****************

                                            #,                                       
                                            ###                                      
                                            ####                                     
                                            #####                                    
                                            ######                                   
                                           ########,                                 
                                     ,,################,,,,,                         
                               ,,#################################,,                 
                          ,,##########################################,,             
                       ,#########################################, ''#####,          
                    ,#############################################,,   '####,        
                  ,##################################################,,,,####,       
                ,###########''''           ''''###############################       
              ,#####''   ,,,,##########,,,,          '''####'''          '####       
            ,##' ,,,,###########################,,,                        '##       
           ' ,,###''''                  '''############,,,                           
         ,,##''                                '''############,,,,        ,,,,,,###''
      ,#''                                            '''#######################'''  
     '                                                          ''''####''''         
             ,#######,   #######,   ,#######,      ##                                
            ,#'     '#,  ##    ##  ,#'     '#,    #''#        ,####,   ,####,        
            ##       ##  ##   ,#'  ##            #'  '#       #'       #'  '#        
            ##       ##  #######   ##           ,######,      #####,   #    #        
            '#,     ,#'  ##    ##  '#,     ,#' ,#      #,     #,   #   #,  ,#        
             '#######'   ##     ##  '#######'  #'      '#     '####' # '####'        



                #########################################################
                #                        -***-                          #
                #          Department of theory and spectroscopy        #
                #                                                       #
                #                      Frank Neese                      #
                #                                                       #
                #     Directorship, Architecture, Infrastructure        #
                #                    SHARK, DRIVERS                     #
                #        Core code/Algorithms in most modules           #
                #                                                       #
                #        Max Planck Institute fuer Kohlenforschung      #
                #                Kaiser Wilhelm Platz 1                 #
                #                 D-45470 Muelheim/Ruhr                 #
                #                      Germany                          #
                #                                                       #
                #                  All rights reserved                  #
                #                        -***-                          #
                #########################################################


                         Program Version 6.0.0  -   RELEASE  -


 With contributions from (in alphabetic order):
   Daniel Aravena         : Magnetic Suceptibility
   Michael Atanasov       : Ab Initio Ligand Field Theory (pilot matlab implementation)
   Alexander A. Auer      : GIAO ZORA, VPT2 properties, NMR spectrum
   Ute Becker             : All parallelization in ORCA, NUMFREQ, NUMCALC
   Giovanni Bistoni       : ED, misc. LED, open-shell LED, HFLD
   Martin Brehm           : Molecular dynamics
   Dmytro Bykov           : pre 5.0 version of the SCF Hessian
   Marcos Casanova-Páez   : Triplet and SCS-CIS(D). UHF-(DLPNO)-IP/EA/STEOM-CCSD. UHF-CVS-IP/STEOM-CCSD
   Vijay G. Chilkuri      : MRCI spin determinant printing, contributions to CSF-ICE
   Pauline Colinet        : FMM embedding
   Dipayan Datta          : RHF DLPNO-CCSD density
   Achintya Kumar Dutta   : EOM-CC, STEOM-CC
   Nicolas Foglia         : Exact transition moments, OPA infrastructure, MCD improvements
   Dmitry Ganyushin       : Spin-Orbit,Spin-Spin,Magnetic field MRCI
   Miquel Garcia          : C-PCM and meta-GGA Hessian, CCSD/C-PCM, Gaussian charge scheme
   Tiago L. C. Gouveia    : GS-ROHF, GS-ROCIS
   Yang Guo               : DLPNO-NEVPT2, F12-NEVPT2, CIM, IAO-localization
   Andreas Hansen         : Spin unrestricted coupled pair/coupled cluster methods
   Ingolf Harden          : AUTO-CI MPn and infrastructure 
   Benjamin Helmich-Paris : MC-RPA, TRAH-(SCF,CASSCF), AVAS, COSX integrals, SCF dyn. polar.
   Lee Huntington         : MR-EOM, pCC
   Robert Izsak           : Overlap fitted RIJCOSX, COSX-SCS-MP3, EOM
   Riya Kayal             : Wick's Theorem for AUTO-CI, AUTO-CI UHF-CCSDT
   Emily Kempfer          : AUTO-CI, RHF CISDT and CCSDT
   Christian Kollmar      : KDIIS, OOCD, Brueckner-CCSD(T), CCSD density, CASPT2, CASPT2-K, improved NEVPT2
   Axel Koslowski         : Symmetry handling
   Simone Kossmann        : Meta GGA functionals, TD-DFT gradient, OOMP2, (MP2 Hessian; deprecated post 5.0)
   Lucas Lang             : DCDCAS
   Marvin Lechner         : AUTO-CI (C++ implementation), FIC-MRCC
   Spencer Leger          : CASSCF response
   Dagmar Lenk            : GEPOL surface, SMD, ORCA-2-JSON
   Dimitrios Liakos       : Extrapolation schemes; Compound Job, initial MDCI parallelization
   Dimitrios Manganas     : Further ROCIS development; embedding schemes. LFT, Crystal Embedding
   Dimitrios Pantazis     : SARC Basis sets
   Anastasios Papadopoulos: AUTO-CI, single reference methods and gradients
   Taras Petrenko         : pre 6.0 DFT Hessian and TD-DFT gradient, (ASA, deprecated), ECA, 1-Electron XAS/XES, NRVS
   Peter Pinski           : DLPNO-MP2, DLPNO-MP2 Gradient
   Christoph Reimann      : Effective Core Potentials
   Marius Retegan         : Local ZFS, SOC
   Christoph Riplinger    : Optimizer, TS searches, QM/MM, DLPNO-CCSD(T), (RO)-DLPNO pert. Triples
   Michael Roemelt        : Original ROCIS implementation
   Masaaki Saitow         : Open-shell DLPNO-CCSD energy and density
   Barbara Sandhoefer     : DKH picture change effects
   Kantharuban Sivalingam : CASSCF convergence/infrastructure, NEVPT2 and variants, FIC-MRCI
   Bernardo de Souza      : ESD, SOC TD-DFT
   Georgi Stoychev        : AutoAux, RI-MP2 NMR, DLPNO-MP2 response, X2C
   Van Anh Tran           : RI-MP2 g-tensors
   Willem Van den Heuvel  : Paramagnetic NMR
   Zikuan Wang            : NOTCH, Electric field optimization 
   Frank Wennmohs         : Technical directorship and infrastructure
   Hang Xu                : AUTO-CI-Response properties 


 We gratefully acknowledge several colleagues who have allowed us to
 interface, adapt or use parts of their codes:
   Stefan Grimme, W. Hujo, H. Kruse, P. Pracht,  : VdW corrections, initial TS optimization,
                  C. Bannwarth, S. Ehlert,         DFT functionals, gCP, sTDA/sTD-DF
                  L. Wittmann, M. Mueller
   Ed Valeev, F. Pavosevic, A. Kumar             : LibInt (2-el integral package), F12 methods
   Garnet Chan, S. Sharma, J. Yang, R. Olivares  : DMRG
   Ulf Ekstrom                                   : XCFun DFT Library
   Mihaly Kallay                                 : mrcc  (arbitrary order and MRCC methods)
   Frank Weinhold                                : gennbo (NPA and NBO analysis)
   Simon Mueller                                 : openCOSMO-RS
   Christopher J. Cramer and Donald G. Truhlar   : smd solvation model
   Lars Goerigk                                  : TD-DFT with DH, B97 family of functionals
   V. Asgeirsson, H. Jonsson                     : NEB implementation
   FAccTs GmbH                                   : IRC, NEB, NEB-TS, DLPNO-Multilevel, CI-OPT
                                                   MM, QMMM, 2- and 3-layer-ONIOM, Crystal-QMMM,
                                                   LR-CPCM, SF, NACMEs, symmetry and pop. for TD-DFT,
                                                   nearIR, NL-DFT gradient (VV10), updates on ESD,
                                                   ML-optimized integration grids, MBIS, APM,
                                                   GOAT, DOCKER, SOLVATOR, interface openCOSMO-RS
   S Lehtola, MJT Oliveira, MAL Marques          : LibXC Library
   Liviu Ungur et al                             : ANISO software


 Your calculation uses the libint2 library for the computation of 2-el integrals
 For citations please refer to: http://libint.valeyev.net

 Your ORCA version has been built with support for libXC version: 6.2.2
 For citations please refer to: https://libxc.gitlab.io

 This ORCA versions uses:
   CBLAS   interface :  Fast vector & matrix operations
   LAPACKE interface :  Fast linear algebra routines
   SCALAPACK package :  Parallel linear algebra routines
   Shared memory     :  Shared parallel matrices
   BLAS/LAPACK       :  OpenBLAS 0.3.27  USE64BITINT DYNAMIC_ARCH NO_AFFINITY Sandybridge SINGLE_THREADED
        Core in use  :  Sandybridge
   Copyright (c) 2011-2014, The OpenBLAS Project


NOTE: MaxCore=5000 MB was set to SCF,MP2,MDCI,CIPSI,MRCI and CIS
      => If you want to overwrite this, your respective input block should be placed after the MaxCore statement
Your calculation utilizes the atom-pairwise dispersion correction
with the Becke-Johnson damping scheme (D3BJ)


Your calculation utilizes the SMD solvation module
Please cite in your paper:
A.V. Marenich, C.J. Cramer, D.G. Truhlar J. Phys. Chem. B, 113, (2009), 6378 

Warning: RI is on but no J-basis has been assigned. Assigning Def2/J (nothing to worry about!)
================================================================================

----- Orbital basis set information -----
Your calculation utilizes the basis: aug-cc-pVTZ 
    H, B-Ne : Obtained from the ccRepo (grant-hill.group.shef.ac.uk/ccrepo) Feb. 2017
              R. A. Kendall, T. H. Dunning, Jr., R. J. Harrison, J. Chem. Phys. 96, 6796 (1992)
         He : Obtained from the ccRepo (grant-hill.group.shef.ac.uk/ccrepo) Feb. 2017
              D. E. Woon, T. H. Dunning, Jr., J. Chem. Phys. 100, 2975 (1994)
  Li-Be, Na : Obtained from the ccRepo (grant-hill.group.shef.ac.uk/ccrepo) Feb. 2017
              B. P. Prascher, D. E. Woon, K. A. Peterson, T. H. Dunning, Jr., A. K. Wilson, Theor. Chem. Acc. 128, 69 (2011)
         Mg : Obtained from the Peterson Research Group Website (tyr0.chem.wsu.edu/~kipeters) Feb. 2017
              B. P. Prascher, D. E. Woon, K. A. Peterson, T. H. Dunning, Jr., A. K. Wilson, Theor. Chem. Acc. 128, 69 (2011)
      Al-Ar : Obtained from the ccRepo (grant-hill.group.shef.ac.uk/ccrepo) Feb. 2017
              D. E. Woon, T. H. Dunning, Jr., J. Chem. Phys. 98, 1358 (1993)
      Sc-Zn : Obtained from the ccRepo (grant-hill.group.shef.ac.uk/ccrepo) Feb. 2017
              N. B. Balabanov, K. A. Peterson, J. Chem. Phys. 123, 064107 (2005)
              N. B. Balabanov, K. A. Peterson, J. Chem. Phys. 125, 074110 (2006)
      Ga-Kr : Obtained from the ccRepo (grant-hill.group.shef.ac.uk/ccrepo) Feb. 2017
              A. K. Wilson, D. E. Woon, K. A. Peterson, T. H. Dunning, Jr., J. Chem. Phys. 110, 7667 (1999)
     Ag, Au : Obtained from the Peterson Research Group Website (tyr0.chem.wsu.edu/~kipeters) Feb. 2017
              K. A. Peterson, C. Puzzarini, Theor. Chem. Acc. 114, 283 (2005)

----- AuxJ basis set information -----
Your calculation utilizes the auxiliary basis: def2/J
   F. Weigend, Phys. Chem. Chem. Phys. 8, 1057 (2006).

================================================================================
                                        WARNINGS
                       Please study these warnings very carefully!
================================================================================

Using LibXC functional ID 497 : Re-regularized SCAN exchange by Furness et al
[ 1]  J. W. Furness, A. D. Kaplan, J. Ning, J. P. Perdew, and J. Sun.,  J. Phys. Chem. Lett. 11, 8208-8215 (2020)
[ 2]  J. W. Furness, A. D. Kaplan, J. Ning, J. P. Perdew, and J. Sun.,  J. Phys. Chem. Lett. 11, 9248-9248 (2020)
Using LibXC functional ID 498 : Re-regularized SCAN correlation by Furness et al
[ 1]  J. W. Furness, A. D. Kaplan, J. Ning, J. P. Perdew, and J. Sun.,  J. Phys. Chem. Lett. 11, 8208-8215 (2020)
[ 2]  J. W. Furness, A. D. Kaplan, J. Ning, J. P. Perdew, and J. Sun.,  J. Phys. Chem. Lett. 11, 9248-9248 (2020)
Using LibXC functional ID 497 : Re-regularized SCAN exchange by Furness et al
[ 1]  J. W. Furness, A. D. Kaplan, J. Ning, J. P. Perdew, and J. Sun.,  J. Phys. Chem. Lett. 11, 8208-8215 (2020)
[ 2]  J. W. Furness, A. D. Kaplan, J. Ning, J. P. Perdew, and J. Sun.,  J. Phys. Chem. Lett. 11, 9248-9248 (2020)
Using LibXC functional ID 498 : Re-regularized SCAN correlation by Furness et al
[ 1]  J. W. Furness, A. D. Kaplan, J. Ning, J. P. Perdew, and J. Sun.,  J. Phys. Chem. Lett. 11, 8208-8215 (2020)
[ 2]  J. W. Furness, A. D. Kaplan, J. Ning, J. P. Perdew, and J. Sun.,  J. Phys. Chem. Lett. 11, 9248-9248 (2020)


WARNING: Found flag for RIJCOSX approximation but no HF exchange needed!
  ===> : RIJCOSX  will be disabled and Split-RI-J is turned on

WARNING: your system is open-shell and RHF/RKS was chosen
  ===> : WILL SWITCH to UHF/UKS


================================================================================
                                       INPUT FILE
================================================================================
NAME = cs_rporg_078_ox_freq_06.inp
|  1> !r2SCAN freq aug-cc-pVTZ d3 TightSCF SlowConv RIJCOSX defgrid2
|  2> 
|  3> %pal
|  4> nprocs 12
|  5> end
|  6> 
|  7> %scf
|  8> MaxIter 1500
|  9> end
| 10> 
| 11> %maxcore 5000
| 12> 
| 13> !CPCM
| 14> %cpcm smd true
| 15> SMDsolvent "MeCN"
| 16> surfacetype gepol_ses
| 17> rsolv 2.19
| 18> end 
| 19> 
| 20> * xyz 1 2
| 21> C           1.33602392096454      0.00195085261452     -0.00126411015364
| 22> C           0.74787673606179      1.28994669778956     -0.00376912543815
| 23> C          -0.60994988517845      1.40557188929593     -0.00277952680425
| 24> C          -1.42177349323046      0.24045873064659     -0.00095705449702
| 25> C          -0.83816553126259     -1.04870129338243     -0.00332706533915
| 26> C           0.52379816511238     -1.16064369007274     -0.00283531357873
| 27> H           0.98576006696298     -2.14003031519030     -0.00327940497632
| 28> H          -1.45330987153171     -1.93605337373122     -0.00358506011321
| 29> O          -2.71952889430661      0.46159925903760      0.00279606144543
| 30> C          -3.63659525594850     -0.65808194410573      0.00270500878452
| 31> H          -4.62483699005544     -0.21116714347188      0.00535653043533
| 32> H          -3.48935269433748     -1.25479246404466     -0.89628271541407
| 33> H          -3.48628689288721     -1.25840769548376      0.89889459120684
| 34> H          -1.09293200488174      2.37388554012629     -0.00253656543301
| 35> H           1.37408241364927      2.17240172742400     -0.00669641345158
| 36> S           3.03694774893306     -0.23535391496612      0.00639681113772
| 37> H           3.39333796193619      1.06999753751435      0.01125005218929
| 38> *
| 39> 
| 40>                          ****END OF INPUT****
================================================================================

                       ****************************
                       * Single Point Calculation *
                       ****************************

---------------------------------
CARTESIAN COORDINATES (ANGSTROEM)
---------------------------------
  C      1.336024    0.001951   -0.001264
  C      0.747877    1.289947   -0.003769
  C     -0.609950    1.405572   -0.002780
  C     -1.421773    0.240459   -0.000957
  C     -0.838166   -1.048701   -0.003327
  C      0.523798   -1.160644   -0.002835
  H      0.985760   -2.140030   -0.003279
  H     -1.453310   -1.936053   -0.003585
  O     -2.719529    0.461599    0.002796
  C     -3.636595   -0.658082    0.002705
  H     -4.624837   -0.211167    0.005357
  H     -3.489353   -1.254792   -0.896283
  H     -3.486287   -1.258408    0.898895
  H     -1.092932    2.373886   -0.002537
  H      1.374082    2.172402   -0.006696
  S      3.036948   -0.235354    0.006397
  H      3.393338    1.069998    0.011250

----------------------------
CARTESIAN COORDINATES (A.U.)
----------------------------
  NO LB      ZA    FRAG     MASS         X           Y           Z
   0 C     6.0000    0    12.011    2.524719    0.003687   -0.002389
   1 C     6.0000    0    12.011    1.413282    2.437646   -0.007123
   2 C     6.0000    0    12.011   -1.152638    2.656146   -0.005253
   3 C     6.0000    0    12.011   -2.686763    0.454401   -0.001809
   4 C     6.0000    0    12.011   -1.583903   -1.981758   -0.006287
   5 C     6.0000    0    12.011    0.989835   -2.193299   -0.005358
   6 H     1.0000    0     1.008    1.862817   -4.044071   -0.006197
   7 H     1.0000    0     1.008   -2.746358   -3.658611   -0.006775
   8 O     8.0000    0    15.999   -5.139165    0.872296    0.005284
   9 C     6.0000    0    12.011   -6.872169   -1.243595    0.005112
  10 H     1.0000    0     1.008   -8.739675   -0.399048    0.010122
  11 H     1.0000    0     1.008   -6.593921   -2.371214   -1.693729
  12 H     1.0000    0     1.008   -6.588127   -2.378046    1.698665
  13 H     1.0000    0     1.008   -2.065342    4.485994   -0.004793
  14 H     1.0000    0     1.008    2.596639    4.105244   -0.012654
  15 S    16.0000    0    32.060    5.739000   -0.444754    0.012088
  16 H     1.0000    0     1.008    6.412479    2.022002    0.021260

--------------------------------
INTERNAL COORDINATES (ANGSTROEM)
--------------------------------
 C      0   0   0     0.000000000000     0.00000000     0.00000000
 C      1   0   0     1.415929618095     0.00000000     0.00000000
 C      2   1   0     1.362741097041   119.41033027     0.00000000
 C      3   2   1     1.420052662564   120.00065014   359.92106962
 C      4   3   2     1.415110397735   120.77544346   359.85011127
 C      5   4   3     1.366556421170   119.05505687     0.21962905
 H      6   5   4     1.082869870962   119.95121821   179.91777187
 H      5   4   3     1.079720491806   120.91243221   180.10123085
 O      4   3   2     1.316467356298   115.19753445   179.85966466
 C      9   4   3     1.447306711315   119.64833776   179.89846727
 H     10   9   4     1.084602044357   104.98485690   180.04403696
 H     10   9   4     1.089000801109   109.77238561   298.88216927
 H     10   9   4     1.089100261416   109.81195214    61.19525451
 H      3   2   1     1.082082766413   121.37667609   179.87048929
 H      2   1   3     1.082067003002   120.09674228   180.01549914
 S      1   2   3     1.717414950145   122.48569913   180.34335437
 H     16   1   2     1.353137078188    97.32929416     0.13175726

---------------------------
INTERNAL COORDINATES (A.U.)
---------------------------
 C      0   0   0     0.000000000000     0.00000000     0.00000000
 C      1   0   0     2.675719203107     0.00000000     0.00000000
 C      2   1   0     2.575207464847   119.41033027     0.00000000
 C      3   2   1     2.683510627991   120.00065014   359.92106962
 C      4   3   2     2.674171100984   120.77544346   359.85011127
 C      5   4   3     2.582417382562   119.05505687     0.21962905
 H      6   5   4     2.046327494793   119.95121821   179.91777187
 H      5   4   3     2.040376030696   120.91243221   180.10123085
 O      4   3   2     2.487762767651   115.19753445   179.85966466
 C      9   4   3     2.735013316172   119.64833776   179.89846727
 H     10   9   4     2.049600828126   104.98485690   180.04403696
 H     10   9   4     2.057913273716   109.77238561   298.88216927
 H     10   9   4     2.058101226458   109.81195214    61.19525451
 H      3   2   1     2.044840082756   121.37667609   179.87048929
 H      2   1   3     2.044810294226   120.09674228   180.01549914
 S      1   2   3     3.245443914077   122.48569913   180.34335437
 H     16   1   2     2.557058499429    97.32929416     0.13175726

---------------------
BASIS SET INFORMATION
---------------------
There are 4 groups of distinct atoms

 Group   1 Type C   : 19s6p3d2f contracted to 5s4p3d2f pattern {88111/3111/111/11}
 Group   2 Type H   : 6s3p2d contracted to 4s3p2d pattern {3111/111/11}
 Group   3 Type O   : 19s6p3d2f contracted to 5s4p3d2f pattern {88111/3111/111/11}
 Group   4 Type S   : 42s17p3d2f contracted to 6s5p3d2f pattern {131313111/77111/111/11}

Atom   0C    basis set group =>   1
Atom   1C    basis set group =>   1
Atom   2C    basis set group =>   1
Atom   3C    basis set group =>   1
Atom   4C    basis set group =>   1
Atom   5C    basis set group =>   1
Atom   6H    basis set group =>   2
Atom   7H    basis set group =>   2
Atom   8O    basis set group =>   3
Atom   9C    basis set group =>   1
Atom  10H    basis set group =>   2
Atom  11H    basis set group =>   2
Atom  12H    basis set group =>   2
Atom  13H    basis set group =>   2
Atom  14H    basis set group =>   2
Atom  15S    basis set group =>   4
Atom  16H    basis set group =>   2
---------------------------------
AUXILIARY/J BASIS SET INFORMATION
---------------------------------
There are 4 groups of distinct atoms

 Group   1 Type C   : 12s5p4d2f1g contracted to 6s4p3d1f1g pattern {711111/2111/211/2/1}
 Group   2 Type H   : 5s2p1d contracted to 3s1p1d pattern {311/2/1}
 Group   3 Type O   : 12s5p4d2f1g contracted to 6s4p3d1f1g pattern {711111/2111/211/2/1}
 Group   4 Type S   : 14s5p5d2f1g contracted to 8s4p3d1f1g pattern {71111111/2111/311/2/1}

Atom   0C    basis set group =>   1
Atom   1C    basis set group =>   1
Atom   2C    basis set group =>   1
Atom   3C    basis set group =>   1
Atom   4C    basis set group =>   1
Atom   5C    basis set group =>   1
Atom   6H    basis set group =>   2
Atom   7H    basis set group =>   2
Atom   8O    basis set group =>   3
Atom   9C    basis set group =>   1
Atom  10H    basis set group =>   2
Atom  11H    basis set group =>   2
Atom  12H    basis set group =>   2
Atom  13H    basis set group =>   2
Atom  14H    basis set group =>   2
Atom  15S    basis set group =>   4
Atom  16H    basis set group =>   2


           ************************************************************
           *        Program running with 12 parallel MPI-processes    *
           *              working on a common directory               *
           ************************************************************
------------------------------------------------------------------------------
                             ORCA STARTUP CALCULATIONS
                           -- RI-GTO INTEGRALS CHOSEN --
------------------------------------------------------------------------------
------------------------------------------------------------------------------
                   ___                                                        
                  /   \      - P O W E R E D   B Y -                         
                 /     \                                                     
                 |  |  |   _    _      __       _____    __    __             
                 |  |  |  | |  | |    /  \     |  _  \  |  |  /  |          
                  \  \/   | |  | |   /    \    | | | |  |  | /  /          
                 / \  \   | |__| |  /  /\  \   | |_| |  |  |/  /          
                |  |  |   |  __  | /  /__\  \  |    /   |      \           
                |  |  |   | |  | | |   __   |  |    \   |  |\   \          
                \     /   | |  | | |  |  |  |  | |\  \  |  | \   \       
                 \___/    |_|  |_| |__|  |__|  |_| \__\ |__|  \__/        
                                                                              
                      - O R C A' S   B I G   F R I E N D -                    
                                      &                                       
                       - I N T E G R A L  F E E D E R -                       
                                                                              
 v1 FN, 2020, v2 2021, v3 2022-2024                                           
------------------------------------------------------------------------------


----------------------
SHARK INTEGRAL PACKAGE
----------------------

Number of atoms                             ...     17
Number of basis functions                   ...    675
Number of shells                            ...    263
Maximum angular momentum                    ...      3
Integral batch strategy                     ... SHARK/LIBINT Hybrid
RI-J (if used) integral strategy            ... SPLIT-RIJ (Revised 2003 algorithm where possible)
Printlevel                                  ...      1
Contraction scheme used                     ... PARTIAL GENERAL contraction
Prescreening option                         ... SCHWARTZ
   Thresh                                   ... 2.500e-11
   Tcut                                     ... 2.500e-12
   Tpresel                                  ... 2.500e-12 
Coulomb Range Separation                    ... NOT USED
Exchange Range Separation                   ... NOT USED
Multipole approximations                    ... NOT USED
Finite Nucleus Model                        ... NOT USED
CABS basis                                  ... NOT available
Auxiliary Coulomb fitting basis             ... AVAILABLE
   # of basis functions in Aux-J            ...    531
   # of shells in Aux-J                     ...    177
   Maximum angular momentum in Aux-J        ...      4
Auxiliary J/K fitting basis                 ... NOT available
Auxiliary Correlation fitting basis         ... NOT available
Auxiliary 'external' fitting basis          ... NOT available

Checking pre-screening integrals            ... done (  0.1 sec) Dimension = 263
Save PGC pre-screening integrals            ... done (  0.1 sec) Dimension = 263
Calculate PGC overlap integrals             ... done (  0.2 sec) Dimension = 200
Calculating pre-screening integrals (ORCA)  ... done (  0.3 sec) Dimension = 200
Check shell pair data                       ... done (  0.1 sec)
Shell pair information
Shell pair cut-off parameter TPreSel        ...   2.5e-12
Total number of shell pairs                 ...     34716
Shell pairs after pre-screening             ...     28360
Total number of primitive shell pairs       ...     43708
Primitive shell pairs kept                  ...     33454
          la=0 lb=0:   6372 shell pairs
          la=1 lb=0:   7393 shell pairs
          la=1 lb=1:   1985 shell pairs
          la=2 lb=0:   4960 shell pairs
          la=2 lb=1:   2566 shell pairs
          la=2 lb=2:    882 shell pairs
          la=3 lb=0:   2186 shell pairs
          la=3 lb=1:   1107 shell pairs
          la=3 lb=2:    740 shell pairs
          la=3 lb=3:    169 shell pairs

Calculating one electron integrals          ... done (  0.1 sec)
Calculating RI/J V-Matrix + Cholesky decomp.... done (  0.1 sec)
Calculating Nuclear repulsion               ... done (  0.0 sec) ENN=    485.498786011784 Eh

Diagonalization of the overlap matrix:
Smallest eigenvalue                        ... 6.894e-07
Time for diagonalization                   ...    0.101 sec
Threshold for overlap eigenvalues          ... 1.000e-07
Number of eigenvalues below threshold      ... 0

IMPORTANT:
Smallest eigenvalue of S below the DiffSThresh (1.000e-06) while
Thresh>1e-12 and/or TCut>1e-13! In order to avoid SCF convergence issues,
Thresh will be set to at least 1e-12 and TCut to at least 1e-13.
This can be turned off by adding %SCF DiffSThresh -1 END to the input.

Time for construction of square roots      ...    0.073 sec
Total time needed                          ...    0.254 sec

-------------------
DFT GRID GENERATION
-------------------

General Integration Accuracy     IntAcc      ... 4.388
Radial Grid Type                 RadialGrid  ... OptM3 with GC (2021)
Angular Grid (max. ang.)         AngularGrid ... 4 (Lebedev-302)
Angular grid pruning method      GridPruning ... 4 (adaptive)
Weight generation scheme         WeightScheme... mBecke (2022)
Basis function cutoff            BFCut       ... 1.0000e-11
Integration weight cutoff        WCut        ... 1.0000e-14
Partially contracted basis set               ... off
Rotationally invariant grid construction     ... off
Angular grids for H and He will be reduced by one unit
Diffuse basis detected: some atoms will have their outermost
                        angular grid increased by 1.

Total number of grid points                  ...    85106
Total number of batches                      ...     1338
Average number of points per batch           ...       63
Average number of grid points per atom       ...     5006

---------------------
SHARK GRID GENERATION
---------------------

General Integration Accuracy     IntAcc      ... 4.388
Radial Grid Type                 RadialGrid  ... OptM3 with GC (2021)
Angular Grid (max. ang.)         AngularGrid ... 4 (Lebedev-302)
Angular grid pruning method      GridPruning ... 4 (adaptive)
Weight generation scheme         WeightScheme... mBecke (2022)
Basis function cutoff            BFCut       ... 1.0000e-11
Integration weight cutoff        WCut        ... 1.0000e-14
Partially contracted basis set               ... off
Rotationally invariant grid construction     ... off
Angular grids for H and He will be reduced by one unit
Diffuse basis detected: some atoms will have their outermost
                        angular grid increased by 1.
Core-polarized basis detected: some atoms will have their core
                               angular grid increased.
Steep s-basis detected: some atoms will have their radial
                        grid points doubled.

Total number of grid points                  ...   147896
Total number of batches                      ...     2319
Average number of points per batch           ...       63
Average number of grid points per atom       ...     8700
Initializing property integral containers    ... done (  0.2 sec)

SHARK setup successfully completed in   5.3 seconds

Maximum memory used throughout the entire STARTUP-calculation: 80.3 MB


           ************************************************************
           *        Program running with 12 parallel MPI-processes    *
           *              working on a common directory               *
           ************************************************************
-------------------------------------------------------------------------------
                                 ORCA GUESS
                   Start orbitals & Density for SCF / CASSCF
-------------------------------------------------------------------------------

------------
SCF SETTINGS
------------
Hamiltonian:
 Density Functional     Method          .... DFT(GTOs)
  Functional kind                       .... Exchange
  Functional name                       .... Re-regularized SCAN exchange by Furness et al
  Functional family                     .... MGGA
  Functional refs                              
    [ 0] J. W. Furness, A. D. Kaplan, J. Ning, J. P. Perdew, and J. Sun.,  J. Phys. Chem. Lett. 11, 8208-8215 (2020), doi: 10.1021/acs.jpclett.0c02405
    [ 1] J. W. Furness, A. D. Kaplan, J. Ning, J. P. Perdew, and J. Sun.,  J. Phys. Chem. Lett. 11, 9248-9248 (2020), doi: 10.1021/acs.jpclett.0c03077
  Functional external parameters        .... 6
    Parameter  0 _c1        =  6.670000e-01 : c1 parameter        
    Parameter  1 _c2        =  8.000000e-01 : c2 parameter        
    Parameter  2 _d         =  1.240000e+00 : d parameter         
    Parameter  3 _k1        =  6.500000e-02 : k1 parameter        
    Parameter  4 _eta       =  1.000000e-03 : eta parameter       
    Parameter  5 _dp2       =  3.610000e-01 : dp2 parameter       
  Functional kind                       .... Correlation
  Functional name                       .... Re-regularized SCAN correlation by Furness et al
  Functional family                     .... MGGA
  Functional refs                              
    [ 0] J. W. Furness, A. D. Kaplan, J. Ning, J. P. Perdew, and J. Sun.,  J. Phys. Chem. Lett. 11, 8208-8215 (2020), doi: 10.1021/acs.jpclett.0c02405
    [ 1] J. W. Furness, A. D. Kaplan, J. Ning, J. P. Perdew, and J. Sun.,  J. Phys. Chem. Lett. 11, 9248-9248 (2020), doi: 10.1021/acs.jpclett.0c03077
  Functional external parameters        .... 1
    Parameter  0 _eta       =  1.000000e-03 : Regularization parameter
 Gradients option       PostSCFGGA      .... off
   NL short-range parameter             .... 12.300000
 RI-approximation to the Coulomb term is turned on
   Number of AuxJ basis functions       .... 531


General Settings:
 Integral files         IntName         .... cs_rporg_078_ox_freq_06
 Hartree-Fock type      HFTyp           .... UHF
 Total Charge           Charge          ....    1
 Multiplicity           Mult            ....    2
 Number of Electrons    NEL             ....   73
 Basis Dimension        Dim             ....  602
 Nuclear Repulsion      ENuc            ....    485.4987860118 Eh

Convergence Acceleration:
 AO-DIIS                CNVDIIS         .... on
   Start iteration      DIISMaxIt       ....     0
   Startup error        DIISStart       ....  0.200000
   # of expansion vecs  DIISMaxEq       ....     5
   Bias factor          DIISBfac        ....   1.050
   Max. coefficient     DIISMaxC        ....  10.000
 MO-DIIS                CNVKDIIS        .... off
 Trust-Rad. Augm. Hess. CNVTRAH         .... auto
   Auto Start mean grad. ratio tolernc. ....  1.125000
   Auto Start start iteration           ....    50
   Auto Start num. interpolation iter.  ....    10
   Max. Number of Micro iterations      ....    24
   Max. Number of Macro iterations      .... Maxiter - #DIIS iter
   Number of Davidson start vectors     ....     2
   Converg. threshold    (grad. norm)   ....   1.000e-05
   Grad. Scal. Fac. for Micro threshold ....   0.100
   Minimum threshold for Micro iter.    ....   1.000e-02
   NR start threshold (gradient norm)   ....   1.000e-04
   Initial trust radius                 ....   0.400
   Minimum AH scaling param. (alpha)    ....   1.000
   Maximum AH scaling param. (alpha)    .... 1000.000
   Quad. conv. algorithm                .... NR
   White noise on init. David. guess    .... on
   Maximum white noise                  ....   0.010
   Pseudo random numbers                .... off
   Inactive MOs                         .... canonical
   Orbital update algorithm             .... Taylor
   Preconditioner                       .... Diag
   Full preconditioner red. dimension   ....   250
 SOSCF                  CNVSOSCF        .... on
   Start iteration      SOSCFMaxIt      ....   150
   Startup grad/error   SOSCFStart      ....  0.001000
   Hessian update       SOSCFHessUp     .... L-BFGS
 Level Shifting         CNVShift        .... on
   Level shift para.    LevelShift      ....    0.2500
   Turn off err/grad.   ShiftErr        ....    0.0000
 Zerner damping         CNVZerner       .... off
 Static damping         CNVDamp         .... on
   Fraction old density DampFac         ....    0.8500
   Max. Damping (<1)    DampMax         ....    0.9800
   Min. Damping (>=0)   DampMin         ....    0.0000
   Turn off err/grad.   DampErr         ....    0.0300

SCF Procedure:
 Maximum # iterations   MaxIter         ....  1500
 SCF integral mode      SCFMode         .... Direct
   Integral package                     .... SHARK and LIBINT hybrid scheme
 Reset frequency        DirectResetFreq ....    20
 Integral Threshold     Thresh          ....  1.000e-12 Eh
 Primitive CutOff       TCut            ....  1.000e-13 Eh

Convergence Tolerance:
 Convergence Check Mode ConvCheckMode   .... Total+1el-Energy
 Convergence forced     ConvForced      .... 0
 Energy Change          TolE            ....  1.000e-08 Eh
 1-El. energy change                    ....  1.000e-05 Eh
 Orbital Gradient       TolG            ....  1.000e-05
 Orbital Rotation angle TolX            ....  1.000e-05
 DIIS Error             TolErr          ....  5.000e-07

------------------------------
INITIAL GUESS: MODEL POTENTIAL
------------------------------
Loading Hartree-Fock densities                     ... done
Calculating cut-offs                               ... done
Initializing the effective Hamiltonian             ... done
Setting up the integral package (SHARK)            ... done
Starting the Coulomb interaction                   ... done (   0.3 sec)
Making the grid                                    ... done (   0.3 sec)
Mapping shells                                     ... done
Starting the XC term evaluation                    ... done (   0.3 sec)
  promolecular density results
     # of electrons  =     73.996916760
     EX              =    -71.236684589
     EC              =     -2.550295597
     EX+EC           =    -73.786980186
Transforming the Hamiltonian                       ... done (   0.1 sec)
Diagonalizing the Hamiltonian                      ... done (   0.1 sec)
Back transforming the eigenvectors                 ... done (   0.2 sec)
Now organizing SCF variables                       ... done
                      ------------------
                      INITIAL GUESS DONE (   2.1 sec)
                      ------------------
             **** ENERGY FILE WAS UPDATED (cs_rporg_078_ox_freq_06.en.tmp) ****
Finished Guess after   3.8 sec
Maximum memory used throughout the entire GUESS-calculation: 43.6 MB


           ************************************************************
           *        Program running with 12 parallel MPI-processes    *
           *              working on a common directory               *
           ************************************************************

-------------------------------------------------------------------------------------------
                                      ORCA LEAN-SCF
                              memory conserving SCF solver
-------------------------------------------------------------------------------------------

--------------------
CPCM SOLVATION MODEL
--------------------
CPCM parameters:
  Epsilon                                         ...      35.6880
  Refrac                                          ...       1.3442
  Rsolv                                           ...       2.1900
  Surface type                                    ...    GEPOL SES
  Discretization scheme                           ... Constant num. charges
  Epsilon function type                           ...         CPCM
Solvent:                                          ... ACETONITRILE
SMD-CDS solvent descriptors:
  Soln                                            ...       1.3442
  Soln25                                          ...       1.3416
  Sola                                            ...       0.0700
  Solb                                            ...       0.3200
  Solg                                            ...      41.2500
  Solc                                            ...       0.0000
  Solh                                            ...       0.0000
Radii:
  Scheme                                          ... Element-dependent radii
  Radius for C  used is    3.4960 Bohr (=   1.8500 Ang.)
  Radius for H  used is    2.2677 Bohr (=   1.2000 Ang.)
  Radius for O  used is    4.0969 Bohr (=   2.1680 Ang.)
  Radius for S  used is    4.7054 Bohr (=   2.4900 Ang.)
Calculating surface                               ...        done! (  0.0s)
Cavity surface points                             ...          526
Cavity Volume                                     ...    1196.6252
Cavity Surface-area                               ...     651.4499
Calculating surface distance matrix               ...        done! (  0.0s)
Performing Cholesky decomposition & store         ...        done! (  0.0s)
Overall time for CPCM initialization              ...                 0.1s

----------------------------------------D-I-I-S--------------------------------------------
Iteration    Energy (Eh)           Delta-E    RMSDP     MaxDP     DIISErr   Damp  Time(sec)
-------------------------------------------------------------------------------------------
               ***  Starting incremental Fock matrix formation  ***
    1    -744.5365502192989879     0.00e+00  4.32e-04  2.91e-02  7.05e-02  0.850  10.1
Warning: op=1 Small HOMO/LUMO gap (   0.015) - skipping pre-diagonalization
         Will do a full diagonalization
    2    -744.5792422535282640    -4.27e-02  4.17e-04  2.24e-02  5.22e-02  0.850  10.1
                               ***Turning on AO-DIIS***
    3    -744.6083251372797349    -2.91e-02  3.07e-04  1.38e-02  3.54e-02  0.850   8.6
    4    -744.6263705464953091    -1.80e-02  2.47e-04  1.17e-02  2.84e-02  0.850   8.9
    5    -744.6389755895249891    -1.26e-02  1.37e-03  6.94e-02  2.39e-02  0.000   8.8
    6    -744.6953191519046413    -5.63e-02  1.90e-04  1.88e-02  3.50e-03  0.000  10.3
    7    -744.6959058955105775    -5.87e-04  6.48e-05  4.72e-03  2.14e-03  0.000   8.5
    8    -744.6960431701927519    -1.37e-04  3.26e-05  2.18e-03  1.13e-03  0.000   8.4
                              *** Initializing SOSCF ***
---------------------------------------S-O-S-C-F--------------------------------------
Iteration    Energy (Eh)           Delta-E    RMSDP     MaxDP     MaxGrad    Time(sec)
--------------------------------------------------------------------------------------
    9    -744.6960810831062645    -3.79e-05  1.52e-05  1.02e-03  5.57e-04    10.9
               *** Restarting incremental Fock matrix formation ***
   10    -744.6960934142750830    -1.23e-05  1.48e-05  1.74e-03  7.12e-04     8.8
   11    -744.6960996123336827    -6.20e-06  1.39e-05  7.73e-04  4.62e-04     7.8
   12    -744.6961041907545678    -4.58e-06  5.04e-06  4.48e-04  2.06e-04     7.5
   13    -744.6961049286553589    -7.38e-07  4.06e-06  2.85e-04  1.63e-04     8.5
   14    -744.6961051664363822    -2.38e-07  1.94e-06  1.19e-04  1.07e-04     7.4
   15    -744.6961053685863590    -2.02e-07  1.11e-06  9.11e-05  4.68e-05     7.7
   16    -744.6961053802181141    -1.16e-08  6.49e-07  3.04e-05  3.65e-05     8.0
   17    -744.6961054191592666    -3.89e-08  4.85e-07  2.43e-05  1.11e-05     7.3
   18    -744.6961054252760732    -6.12e-09  2.72e-07  1.21e-05  1.26e-05     7.4
                 **** Energy Check signals convergence ****

               *****************************************************
               *                     SUCCESS                       *
               *           SCF CONVERGED AFTER  18 CYCLES          *
               *****************************************************


SMD CDS free energy correction energy :                -1.70014     Kcal/mol
Total Energy after SMD CDS correction =              -744.698814765 Eh
             **** ENERGY FILE WAS UPDATED (cs_rporg_078_ox_freq_06.en.tmp) ****

----------------
TOTAL SCF ENERGY
----------------

Total Energy       :       -744.69881476509556 Eh          -20264.28497 eV

Components:
Nuclear Repulsion  :        485.49878601178392 Eh           13211.09361 eV
Electronic Energy  :      -1230.11192138080105 Eh          -33473.04712 eV
One Electron Energy:      -1968.48186105250943 Eh          -53565.11464 eV
Two Electron Energy:        738.36993967170827 Eh           20092.06752 eV
CPCM Dielectric    :         -0.08297005625870 Eh              -2.25773 eV
SMD CDS (Gcds)     :         -0.00270933981944 Eh              -0.07372 eV

Virial components:
Potential Energy   :      -1486.45095677221025 Eh          -40448.38689 eV
Kinetic Energy     :        741.75214200711468 Eh           20184.10192 eV
Virial Ratio       :          2.00397258408989

DFT components:
N(Alpha)           :       37.000022153841 electrons
N(Beta)            :       36.000016974784 electrons
N(Total)           :       73.000039128625 electrons
E(X)               :      -72.328216332728 Eh       
E(C)               :       -2.453005820466 Eh       
E(XC)              :      -74.781222153194 Eh       

CPCM Solvation Model Properties:
Surface-charge          :         -1.02363947206456
Corrected charge        :         -1.00000000000000
Outlying charge corr.   :          0.00003820552084 Eh               0.00104 eV
Free-energy (cav+disp)  :         -0.00270933981944 Eh              -0.07372 eV

---------------
SCF CONVERGENCE
---------------

  Last Energy change         ...    6.1168e-09  Tolerance :   1.0000e-08
  Last MAX-Density change    ...    1.2101e-05  Tolerance :   1.0000e-07
  Last RMS-Density change    ...    2.7156e-07  Tolerance :   5.0000e-09
  Last DIIS Error            ...    5.5684e-04  Tolerance :   5.0000e-07
  Last Orbital Gradient      ...    1.2614e-05  Tolerance :   1.0000e-05
  Last Orbital Rotation      ...    3.8894e-05  Tolerance :   1.0000e-05


----------------------
UHF SPIN CONTAMINATION
----------------------

Warning: in a DFT calculation there is little theoretical justification to 
         calculate <S**2> as in Hartree-Fock theory. We will do it anyways
         but you should keep in mind that the values have only limited relevance

Expectation value of <S**2>     :     0.756424
Ideal value S*(S+1) for S=0.5   :     0.750000
Deviation                       :     0.006424

----------------
ORBITAL ENERGIES
----------------
                 SPIN UP ORBITALS
  NO   OCC          E(Eh)            E(eV) 
   0   1.0000     -88.635447     -2411.8931 
   1   1.0000     -19.054856      -518.5090 
   2   1.0000     -10.162009      -276.5223 
   3   1.0000     -10.138284      -275.8767 
   4   1.0000     -10.099125      -274.8112 
   5   1.0000     -10.092226      -274.6234 
   6   1.0000     -10.087936      -274.5067 
   7   1.0000     -10.083526      -274.3867 
   8   1.0000     -10.083194      -274.3776 
   9   1.0000      -7.928118      -215.7351 
  10   1.0000      -5.873548      -159.8274 
  11   1.0000      -5.870411      -159.7420 
  12   1.0000      -5.869269      -159.7109 
  13   1.0000      -1.096138       -29.8274 
  14   1.0000      -0.884004       -24.0550 
  15   1.0000      -0.810962       -22.0674 
  16   1.0000      -0.770879       -20.9767 
  17   1.0000      -0.736183       -20.0326 
  18   1.0000      -0.683674       -18.6037 
  19   1.0000      -0.627061       -17.0632 
  20   1.0000      -0.595221       -16.1968 
  21   1.0000      -0.540041       -14.6953 
  22   1.0000      -0.509805       -13.8725 
  23   1.0000      -0.485287       -13.2053 
  24   1.0000      -0.478592       -13.0232 
  25   1.0000      -0.448512       -12.2046 
  26   1.0000      -0.436359       -11.8739 
  27   1.0000      -0.424650       -11.5553 
  28   1.0000      -0.409498       -11.1430 
  29   1.0000      -0.401270       -10.9191 
  30   1.0000      -0.370184       -10.0732 
  31   1.0000      -0.366264        -9.9665 
  32   1.0000      -0.362278        -9.8581 
  33   1.0000      -0.333220        -9.0674 
  34   1.0000      -0.307875        -8.3777 
  35   1.0000      -0.288659        -7.8548 
  36   1.0000      -0.237403        -6.4601 
  37   0.0000      -0.082952        -2.2572 
  38   0.0000      -0.076694        -2.0870 
  39   0.0000      -0.038681        -1.0526 
  40   0.0000       0.005089         0.1385 
  41   0.0000       0.006872         0.1870 
  42   0.0000       0.019739         0.5371 
  43   0.0000       0.025924         0.7054 
  44   0.0000       0.030948         0.8421 
  45   0.0000       0.034249         0.9320 
  46   0.0000       0.041581         1.1315 
  47   0.0000       0.046982         1.2784 

                 SPIN DOWN ORBITALS
  NO   OCC          E(Eh)            E(eV) 
   0   1.0000     -88.633431     -2411.8383 
   1   1.0000     -19.049101      -518.3524 
   2   1.0000     -10.159075      -276.4425 
   3   1.0000     -10.134115      -275.7633 
   4   1.0000     -10.099292      -274.8157 
   5   1.0000     -10.091386      -274.6006 
   6   1.0000     -10.087913      -274.5061 
   7   1.0000     -10.082428      -274.3568 
   8   1.0000     -10.082245      -274.3518 
   9   1.0000      -7.926778      -215.6986 
  10   1.0000      -5.872452      -159.7975 
  11   1.0000      -5.868253      -159.6833 
  12   1.0000      -5.865191      -159.6000 
  13   1.0000      -1.087638       -29.5961 
  14   1.0000      -0.876641       -23.8546 
  15   1.0000      -0.802920       -21.8486 
  16   1.0000      -0.768440       -20.9103 
  17   1.0000      -0.731816       -19.9137 
  18   1.0000      -0.676045       -18.3961 
  19   1.0000      -0.623019       -16.9532 
  20   1.0000      -0.590145       -16.0587 
  21   1.0000      -0.537989       -14.6394 
  22   1.0000      -0.508254       -13.8303 
  23   1.0000      -0.482167       -13.1204 
  24   1.0000      -0.464084       -12.6284 
  25   1.0000      -0.445960       -12.1352 
  26   1.0000      -0.435685       -11.8556 
  27   1.0000      -0.422165       -11.4877 
  28   1.0000      -0.399464       -10.8700 
  29   1.0000      -0.393647       -10.7117 
  30   1.0000      -0.368310       -10.0222 
  31   1.0000      -0.357892        -9.7387 
  32   1.0000      -0.349642        -9.5143 
  33   1.0000      -0.330207        -8.9854 
  34   1.0000      -0.288338        -7.8461 
  35   1.0000      -0.281803        -7.6682 
  36   0.0000      -0.206004        -5.6056 
  37   0.0000      -0.067855        -1.8464 
  38   0.0000      -0.055142        -1.5005 
  39   0.0000      -0.035900        -0.9769 
  40   0.0000       0.006779         0.1845 
  41   0.0000       0.011012         0.2997 
  42   0.0000       0.020329         0.5532 
  43   0.0000       0.027504         0.7484 
  44   0.0000       0.032076         0.8728 
  45   0.0000       0.035223         0.9585 
  46   0.0000       0.042699         1.1619 
*Only the first 10 virtual orbitals were printed.

                    ********************************
                    * MULLIKEN POPULATION ANALYSIS *
                    ********************************

--------------------------------------------
MULLIKEN ATOMIC CHARGES AND SPIN POPULATIONS
--------------------------------------------
   0 C :    0.851922    0.184437
   1 C :   -0.590880   -0.022675
   2 C :   -0.789096    0.055825
   3 C :    1.211421    0.163842
   4 C :   -0.172927    0.019281
   5 C :   -0.790422    0.053448
   6 H :    0.443456    0.000345
   7 H :    0.444773    0.014308
   8 O :   -0.611981    0.176117
   9 C :   -0.621663   -0.016061
  10 H :    0.249996   -0.001014
  11 H :    0.284576    0.007577
  12 H :    0.284211    0.007608
  13 H :    0.567615    0.007467
  14 H :    0.293008    0.000769
  15 S :   -0.219880    0.392496
  16 H :    0.165870   -0.043770
Sum of atomic charges         :    1.0000000
Sum of atomic spin populations:    1.0000000

-----------------------------------------------------
MULLIKEN REDUCED ORBITAL CHARGES AND SPIN POPULATIONS
-----------------------------------------------------
CHARGE
  0 C s       :     3.160121  s :     3.160121
      pz      :     0.932116  p :     2.063540
      px      :     0.427213
      py      :     0.704211
      dz2     :    -0.012587  d :    -0.048817
      dxz     :    -0.048770
      dyz     :     0.008396
      dx2y2   :     0.047227
      dxy     :    -0.043084
      f0      :     0.004118  f :    -0.026766
      f+1     :    -0.001200
      f-1     :    -0.000158
      f+2     :     0.004229
      f-2     :    -0.002158
      f+3     :    -0.003529
      f-3     :    -0.028068

  1 C s       :     3.868521  s :     3.868521
      pz      :     0.939930  p :     2.661281
      px      :     0.918673
      py      :     0.802678
      dz2     :    -0.006879  d :     0.075744
      dxz     :     0.035043
      dyz     :    -0.006662
      dx2y2   :    -0.012476
      dxy     :     0.066717
      f0      :     0.000926  f :    -0.014665
      f+1     :     0.000431
      f-1     :     0.000544
      f+2     :     0.000531
      f-2     :     0.001352
      f+3     :    -0.000954
      f-3     :    -0.017496

  2 C s       :     3.942674  s :     3.942674
      pz      :     0.907946  p :     2.724767
      px      :     0.848829
      py      :     0.967991
      dz2     :     0.006582  d :     0.143178
      dxz     :     0.029854
      dyz     :     0.013549
      dx2y2   :     0.007416
      dxy     :     0.085777
      f0      :    -0.000121  f :    -0.021522
      f+1     :    -0.000821
      f-1     :     0.000416
      f+2     :     0.001436
      f-2     :    -0.000503
      f+3     :     0.000178
      f-3     :    -0.022107

  3 C s       :     3.089939  s :     3.089939
      pz      :     0.837006  p :     1.925830
      px      :     0.302395
      py      :     0.786429
      dz2     :    -0.017971  d :    -0.222755
      dxz     :     0.032556
      dyz     :    -0.012450
      dx2y2   :    -0.115060
      dxy     :    -0.109830
      f0      :     0.003336  f :    -0.004436
      f+1     :    -0.000303
      f-1     :     0.001303
      f+2     :     0.007425
      f-2     :     0.004891
      f+3     :     0.003090
      f-3     :    -0.024178

  4 C s       :     3.817268  s :     3.817268
      pz      :     0.906662  p :     2.251689
      px      :     0.529192
      py      :     0.815834
      dz2     :    -0.002209  d :     0.125366
      dxz     :    -0.005997
      dyz     :    -0.007577
      dx2y2   :     0.004133
      dxy     :     0.137017
      f0      :    -0.000125  f :    -0.021396
      f+1     :    -0.000683
      f-1     :    -0.000411
      f+2     :     0.000735
      f-2     :    -0.001011
      f+3     :     0.001929
      f-3     :    -0.021829

  5 C s       :     4.039082  s :     4.039082
      pz      :     0.940598  p :     2.748583
      px      :     0.924696
      py      :     0.883289
      dz2     :    -0.009931  d :     0.014528
      dxz     :     0.005214
      dyz     :    -0.000649
      dx2y2   :    -0.005635
      dxy     :     0.025529
      f0      :     0.001364  f :    -0.011771
      f+1     :     0.000271
      f-1     :     0.000295
      f+2     :     0.000756
      f-2     :     0.000977
      f+3     :    -0.000253
      f-3     :    -0.015182

  6 H s       :     0.544110  s :     0.544110
      pz      :     0.013130  p :     0.004046
      px      :     0.006499
      py      :    -0.015583
      dz2     :    -0.000012  d :     0.008387
      dxz     :     0.000889
      dyz     :     0.004984
      dx2y2   :     0.000912
      dxy     :     0.001613

  7 H s       :     0.595508  s :     0.595508
      pz      :     0.011634  p :    -0.048570
      px      :    -0.017091
      py      :    -0.043113
      dz2     :    -0.000027  d :     0.008290
      dxz     :     0.001967
      dyz     :     0.003156
      dx2y2   :     0.002763
      dxy     :     0.000431

  8 O s       :     4.173137  s :     4.173137
      pz      :     1.643876  p :     4.350838
      px      :     1.187699
      py      :     1.519262
      dz2     :     0.000961  d :     0.081192
      dxz     :     0.024491
      dyz     :     0.007044
      dx2y2   :     0.020696
      dxy     :     0.028001
      f0      :     0.000845  f :     0.006814
      f+1     :     0.000005
      f-1     :     0.000007
      f+2     :     0.001177
      f-2     :     0.000967
      f+3     :     0.001640
      f-3     :     0.002173

  9 C s       :     3.549838  s :     3.549838
      pz      :     1.125800  p :     2.910240
      px      :     0.926024
      py      :     0.858417
      dz2     :     0.016166  d :     0.138150
      dxz     :     0.003405
      dyz     :     0.058074
      dx2y2   :     0.037923
      dxy     :     0.022582
      f0      :     0.002689  f :     0.023435
      f+1     :     0.001295
      f-1     :     0.002882
      f+2     :     0.000824
      f-2     :     0.004734
      f+3     :     0.000601
      f-3     :     0.010409

 10 H s       :     0.707361  s :     0.707361
      pz      :     0.019406  p :     0.040441
      px      :     0.015372
      py      :     0.005664
      dz2     :    -0.000918  d :     0.002202
      dxz     :     0.001763
      dyz     :     0.001970
      dx2y2   :     0.000842
      dxy     :    -0.001455

 11 H s       :     0.680781  s :     0.680781
      pz      :     0.010775  p :     0.028919
      px      :     0.007756
      py      :     0.010387
      dz2     :     0.002805  d :     0.005724
      dxz     :     0.001206
      dyz     :     0.000934
      dx2y2   :     0.000225
      dxy     :     0.000554

 12 H s       :     0.680960  s :     0.680960
      pz      :     0.010882  p :     0.029127
      px      :     0.007867
      py      :     0.010378
      dz2     :     0.002811  d :     0.005703
      dxz     :     0.001178
      dyz     :     0.000916
      dx2y2   :     0.000237
      dxy     :     0.000561

 13 H s       :     0.456301  s :     0.456301
      pz      :     0.017601  p :    -0.030743
      px      :    -0.015896
      py      :    -0.032448
      dz2     :    -0.000197  d :     0.006826
      dxz     :     0.001362
      dyz     :     0.004218
      dx2y2   :     0.001469
      dxy     :    -0.000027

 14 H s       :     0.705062  s :     0.705062
      pz      :     0.015048  p :    -0.006293
      px      :    -0.013229
      py      :    -0.008113
      dz2     :    -0.000566  d :     0.008222
      dxz     :     0.001650
      dyz     :     0.004396
      dx2y2   :     0.001779
      dxy     :     0.000963

 15 S s       :     6.078577  s :     6.078577
      pz      :     3.624656  p :    10.032175
      px      :     3.037343
      py      :     3.370177
      dz2     :     0.014904  d :     0.097287
      dxz     :     0.028409
      dyz     :     0.002952
      dx2y2   :     0.040194
      dxy     :     0.010828
      f0      :     0.002252  f :     0.011841
      f+1     :     0.001587
      f-1     :     0.000749
      f+2     :     0.001830
      f-2     :     0.000213
      f+3     :     0.001662
      f-3     :     0.003547

 16 H s       :     0.756821  s :     0.756821
      pz      :     0.021499  p :     0.063725
      px      :     0.008017
      py      :     0.034209
      dz2     :     0.000923  d :     0.013584
      dxz     :     0.001338
      dyz     :     0.005286
      dx2y2   :     0.002731
      dxy     :     0.003306


SPIN
  0 C s       :     0.017034  s :     0.017034
      pz      :     0.191302  p :     0.185689
      px      :    -0.010319
      py      :     0.004706
      dz2     :     0.001671  d :    -0.018229
      dxz     :    -0.012843
      dyz     :     0.004410
      dx2y2   :    -0.007124
      dxy     :    -0.004343
      f0      :    -0.000352  f :    -0.000058
      f+1     :    -0.000162
      f-1     :    -0.000111
      f+2     :     0.000193
      f-2     :     0.000222
      f+3     :     0.000315
      f-3     :    -0.000163

  1 C s       :     0.002553  s :     0.002553
      pz      :    -0.000587  p :    -0.015336
      px      :    -0.011420
      py      :    -0.003330
      dz2     :     0.000794  d :    -0.008639
      dxz     :    -0.002031
      dyz     :     0.004859
      dx2y2   :    -0.001772
      dxy     :    -0.010489
      f0      :    -0.000159  f :    -0.001252
      f+1     :    -0.000007
      f-1     :     0.000115
      f+2     :     0.000168
      f-2     :    -0.000687
      f+3     :    -0.000324
      f-3     :    -0.000358

  2 C s       :    -0.004883  s :    -0.004883
      pz      :     0.072557  p :     0.060989
      px      :    -0.008280
      py      :    -0.003288
      dz2     :    -0.001143  d :     0.001981
      dxz     :    -0.003336
      dyz     :    -0.000433
      dx2y2   :     0.003976
      dxy     :     0.002918
      f0      :    -0.000375  f :    -0.002262
      f+1     :    -0.000213
      f-1     :    -0.000005
      f+2     :    -0.000390
      f-2     :    -0.000609
      f+3     :    -0.000678
      f-3     :     0.000008

  3 C s       :     0.021929  s :     0.021929
      pz      :     0.154310  p :     0.138168
      px      :    -0.016392
      py      :     0.000251
      dz2     :    -0.000308  d :     0.003460
      dxz     :     0.005438
      dyz     :    -0.000448
      dx2y2   :    -0.002937
      dxy     :     0.001713
      f0      :    -0.000324  f :     0.000285
      f+1     :    -0.000185
      f-1     :    -0.000234
      f+2     :     0.001687
      f-2     :     0.000459
      f+3     :    -0.000295
      f-3     :    -0.000822

  4 C s       :    -0.003232  s :    -0.003232
      pz      :     0.047087  p :     0.013890
      px      :    -0.027949
      py      :    -0.005248
      dz2     :    -0.000786  d :     0.011449
      dxz     :     0.000321
      dyz     :     0.002375
      dx2y2   :     0.002683
      dxy     :     0.006857
      f0      :    -0.000344  f :    -0.002826
      f+1     :    -0.000105
      f-1     :     0.000011
      f+2     :    -0.000075
      f-2     :    -0.000725
      f+3     :    -0.000896
      f-3     :    -0.000692

  5 C s       :     0.015113  s :     0.015113
      pz      :     0.045890  p :     0.042975
      px      :    -0.000140
      py      :    -0.002775
      dz2     :     0.000611  d :    -0.003928
      dxz     :     0.005533
      dyz     :     0.003114
      dx2y2   :    -0.008466
      dxy     :    -0.004719
      f0      :    -0.000233  f :    -0.000712
      f+1     :    -0.000126
      f-1     :     0.000076
      f+2     :     0.000405
      f-2     :    -0.000713
      f+3     :    -0.000415
      f-3     :     0.000293

  6 H s       :    -0.004206  s :    -0.004206
      pz      :     0.000365  p :     0.004075
      px      :     0.002287
      py      :     0.001423
      dz2     :     0.000137  d :     0.000476
      dxz     :    -0.000083
      dyz     :     0.000160
      dx2y2   :     0.000083
      dxy     :     0.000179

  7 H s       :     0.013643  s :     0.013643
      pz      :     0.001718  p :     0.000451
      px      :    -0.002497
      py      :     0.001231
      dz2     :     0.000118  d :     0.000214
      dxz     :    -0.000253
      dyz     :     0.000191
      dx2y2   :    -0.000041
      dxy     :     0.000199

  8 O s       :     0.005251  s :     0.005251
      pz      :     0.146813  p :     0.165716
      px      :     0.009553
      py      :     0.009349
      dz2     :     0.000166  d :     0.005145
      dxz     :     0.004851
      dyz     :     0.000154
      dx2y2   :     0.000104
      dxy     :    -0.000131
      f0      :    -0.000039  f :     0.000005
      f+1     :    -0.000046
      f-1     :    -0.000031
      f+2     :     0.000055
      f-2     :     0.000054
      f+3     :     0.000004
      f-3     :     0.000008

  9 C s       :    -0.008378  s :    -0.008378
      pz      :    -0.000726  p :    -0.011506
      px      :    -0.004748
      py      :    -0.006032
      dz2     :    -0.000259  d :     0.003242
      dxz     :     0.000037
      dyz     :     0.004597
      dx2y2   :    -0.001487
      dxy     :     0.000353
      f0      :    -0.000152  f :     0.000582
      f+1     :     0.000045
      f-1     :     0.000057
      f+2     :    -0.000032
      f-2     :     0.000554
      f+3     :    -0.000051
      f-3     :     0.000160

 10 H s       :    -0.001118  s :    -0.001118
      pz      :    -0.000213  p :     0.000258
      px      :     0.000245
      py      :     0.000226
      dz2     :    -0.000005  d :    -0.000154
      dxz     :    -0.000087
      dyz     :     0.000026
      dx2y2   :    -0.000078
      dxy     :    -0.000009

 11 H s       :     0.006575  s :     0.006575
      pz      :     0.000631  p :     0.001144
      px      :     0.000194
      py      :     0.000319
      dz2     :     0.000047  d :    -0.000142
      dxz     :    -0.000023
      dyz     :    -0.000068
      dx2y2   :    -0.000073
      dxy     :    -0.000025

 12 H s       :     0.006595  s :     0.006595
      pz      :     0.000623  p :     0.001151
      px      :     0.000210
      py      :     0.000318
      dz2     :     0.000047  d :    -0.000138
      dxz     :    -0.000021
      dyz     :    -0.000068
      dx2y2   :    -0.000072
      dxy     :    -0.000024

 13 H s       :     0.005885  s :     0.005885
      pz      :     0.000847  p :     0.001296
      px      :    -0.000497
      py      :     0.000946
      dz2     :     0.000067  d :     0.000287
      dxz     :    -0.000085
      dyz     :     0.000239
      dx2y2   :    -0.000032
      dxy     :     0.000099

 14 H s       :    -0.000039  s :    -0.000039
      pz      :    -0.000882  p :     0.000495
      px      :     0.000559
      py      :     0.000818
      dz2     :     0.000151  d :     0.000312
      dxz     :    -0.000170
      dyz     :     0.000069
      dx2y2   :     0.000113
      dxy     :     0.000150

 15 S s       :     0.034836  s :     0.034836
      pz      :     0.307083  p :     0.346906
      px      :     0.017736
      py      :     0.022087
      dz2     :     0.001195  d :     0.010215
      dxz     :     0.006149
      dyz     :     0.000183
      dx2y2   :     0.000847
      dxy     :     0.001840
      f0      :     0.000224  f :     0.000539
      f+1     :    -0.000286
      f-1     :    -0.000452
      f+2     :     0.000539
      f-2     :     0.000016
      f+3     :     0.000182
      f-3     :     0.000316

 16 H s       :    -0.040146  s :    -0.040146
      pz      :     0.000318  p :    -0.003685
      px      :    -0.000415
      py      :    -0.003588
      dz2     :    -0.000031  d :     0.000061
      dxz     :    -0.000027
      dyz     :     0.000432
      dx2y2   :    -0.000054
      dxy     :    -0.000258



                     *******************************
                     * LOEWDIN POPULATION ANALYSIS *
                     *******************************

-------------------------------------------
LOEWDIN ATOMIC CHARGES AND SPIN POPULATIONS
-------------------------------------------
   0 C :   -0.538442    0.163581
   1 C :    0.180863    0.042618
   2 C :    0.264161    0.064971
   3 C :   -0.342077    0.127679
   4 C :    0.266045    0.061760
   5 C :    0.166211    0.061193
   6 H :   -0.167389    0.003612
   7 H :   -0.170353    0.006273
   8 O :    0.653593    0.149082
   9 C :    0.450048    0.015112
  10 H :   -0.165186   -0.000423
  11 H :   -0.156641    0.004167
  12 H :   -0.156444    0.004162
  13 H :   -0.150611    0.007392
  14 H :   -0.169842   -0.000456
  15 S :    1.507940    0.251808
  16 H :   -0.471876    0.037469

----------------------------------------------------
LOEWDIN REDUCED ORBITAL CHARGES AND SPIN POPULATIONS
----------------------------------------------------
CHARGE
  0 C s       :     2.523399  s :     2.523399
      pz      :     0.628383  p :     2.373202
      px      :     0.838805
      py      :     0.906014
      dz2     :     0.101382  d :     1.098532
      dxz     :     0.203080
      dyz     :     0.123599
      dx2y2   :     0.364399
      dxy     :     0.306071
      f0      :     0.038599  f :     0.543309
      f+1     :     0.037619
      f-1     :     0.034226
      f+2     :     0.061239
      f-2     :     0.060058
      f+3     :     0.089071
      f-3     :     0.222497

  1 C s       :     2.491830  s :     2.491830
      pz      :     0.586917  p :     2.276622
      px      :     0.863718
      py      :     0.825987
      dz2     :     0.072032  d :     0.707983
      dxz     :     0.096544
      dyz     :     0.064723
      dx2y2   :     0.199602
      dxy     :     0.275082
      f0      :     0.023052  f :     0.342703
      f+1     :     0.029063
      f-1     :     0.024219
      f+2     :     0.045661
      f-2     :     0.022760
      f+3     :     0.066277
      f-3     :     0.131671

  2 C s       :     2.490429  s :     2.490429
      pz      :     0.581549  p :     2.257186
      px      :     0.852573
      py      :     0.823064
      dz2     :     0.068098  d :     0.649708
      dxz     :     0.097650
      dyz     :     0.048261
      dx2y2   :     0.201102
      dxy     :     0.234597
      f0      :     0.022869  f :     0.338516
      f+1     :     0.031630
      f-1     :     0.022462
      f+2     :     0.036292
      f-2     :     0.031300
      f+3     :     0.068909
      f-3     :     0.125053

  3 C s       :     2.463427  s :     2.463427
      pz      :     0.562274  p :     2.172730
      px      :     0.742731
      py      :     0.867725
      dz2     :     0.101459  d :     1.072404
      dxz     :     0.182268
      dyz     :     0.124014
      dx2y2   :     0.337824
      dxy     :     0.326840
      f0      :     0.039449  f :     0.633516
      f+1     :     0.049208
      f-1     :     0.035649
      f+2     :     0.073228
      f-2     :     0.068741
      f+3     :     0.113554
      f-3     :     0.253686

  4 C s       :     2.480213  s :     2.480213
      pz      :     0.593077  p :     2.264634
      px      :     0.849115
      py      :     0.822442
      dz2     :     0.069642  d :     0.656565
      dxz     :     0.085256
      dyz     :     0.056905
      dx2y2   :     0.196609
      dxy     :     0.248153
      f0      :     0.022593  f :     0.332542
      f+1     :     0.028796
      f-1     :     0.024213
      f+2     :     0.045337
      f-2     :     0.021122
      f+3     :     0.065679
      f-3     :     0.124803

  5 C s       :     2.493268  s :     2.493268
      pz      :     0.576105  p :     2.272794
      px      :     0.867179
      py      :     0.829510
      dz2     :     0.071228  d :     0.718812
      dxz     :     0.117858
      dyz     :     0.052440
      dx2y2   :     0.227950
      dxy     :     0.249335
      f0      :     0.023637  f :     0.348915
      f+1     :     0.031047
      f-1     :     0.022459
      f+2     :     0.036297
      f-2     :     0.034097
      f+3     :     0.069609
      f-3     :     0.131769

  6 H s       :     0.647679  s :     0.647679
      pz      :     0.072102  p :     0.302143
      px      :     0.095023
      py      :     0.135018
      dz2     :     0.024037  d :     0.217568
      dxz     :     0.015567
      dyz     :     0.046706
      dx2y2   :     0.067013
      dxy     :     0.064244

  7 H s       :     0.626454  s :     0.626454
      pz      :     0.076338  p :     0.314684
      px      :     0.118970
      py      :     0.119376
      dz2     :     0.024522  d :     0.229214
      dxz     :     0.026117
      dyz     :     0.039472
      dx2y2   :     0.084457
      dxy     :     0.054646

  8 O s       :     2.984424  s :     2.984424
      pz      :     1.273955  p :     3.776621
      px      :     1.195671
      py      :     1.306995
      dz2     :     0.041719  d :     0.458181
      dxz     :     0.081975
      dyz     :     0.048448
      dx2y2   :     0.143083
      dxy     :     0.142956
      f0      :     0.011535  f :     0.127181
      f+1     :     0.011325
      f-1     :     0.004363
      f+2     :     0.013665
      f-2     :     0.015136
      f+3     :     0.028888
      f-3     :     0.042268

  9 C s       :     2.465979  s :     2.465979
      pz      :     0.817821  p :     2.199415
      px      :     0.707944
      py      :     0.673650
      dz2     :     0.097019  d :     0.595115
      dxz     :     0.040212
      dyz     :     0.155446
      dx2y2   :     0.149872
      dxy     :     0.152566
      f0      :     0.031385  f :     0.289444
      f+1     :     0.024038
      f-1     :     0.034219
      f+2     :     0.009398
      f-2     :     0.052539
      f+3     :     0.061907
      f-3     :     0.075957

 10 H s       :     0.644736  s :     0.644736
      pz      :     0.089588  p :     0.298223
      px      :     0.126126
      py      :     0.082509
      dz2     :     0.016520  d :     0.222226
      dxz     :     0.062631
      dyz     :     0.029854
      dx2y2   :     0.043643
      dxy     :     0.069578

 11 H s       :     0.628349  s :     0.628349
      pz      :     0.133275  p :     0.306003
      px      :     0.083559
      py      :     0.089169
      dz2     :     0.078661  d :     0.222289
      dxz     :     0.039284
      dyz     :     0.047303
      dx2y2   :     0.019607
      dxy     :     0.037434

 12 H s       :     0.628345  s :     0.628345
      pz      :     0.132934  p :     0.305898
      px      :     0.083570
      py      :     0.089393
      dz2     :     0.078706  d :     0.222200
      dxz     :     0.038943
      dyz     :     0.047049
      dx2y2   :     0.019770
      dxy     :     0.037733

 13 H s       :     0.645335  s :     0.645335
      pz      :     0.071731  p :     0.290716
      px      :     0.089939
      py      :     0.129046
      dz2     :     0.023247  d :     0.214560
      dxz     :     0.016782
      dyz     :     0.045007
      dx2y2   :     0.068109
      dxy     :     0.061415

 14 H s       :     0.643783  s :     0.643783
      pz      :     0.073171  p :     0.304138
      px      :     0.106939
      py      :     0.124028
      dz2     :     0.024896  d :     0.221921
      dxz     :     0.024711
      dyz     :     0.038471
      dx2y2   :     0.079776
      dxy     :     0.054067

 15 S s       :     4.945658  s :     4.945658
      pz      :     3.105679  p :     9.036741
      px      :     2.890990
      py      :     3.040073
      dz2     :     0.047073  d :     0.357629
      dxz     :     0.069650
      dyz     :     0.005314
      dx2y2   :     0.111209
      dxy     :     0.124384
      f0      :     0.012158  f :     0.152032
      f+1     :     0.018027
      f-1     :     0.007744
      f+2     :     0.018996
      f-2     :     0.003607
      f+3     :     0.036315
      f-3     :     0.055185

 16 H s       :     0.713422  s :     0.713422
      pz      :     0.121957  p :     0.452771
      px      :     0.091542
      py      :     0.239272
      dz2     :     0.027646  d :     0.305683
      dxz     :     0.008268
      dyz     :     0.098070
      dx2y2   :     0.093304
      dxy     :     0.078395


SPIN
  0 C s       :     0.004934  s :     0.004934
      pz      :     0.118107  p :     0.119287
      px      :     0.000259
      py      :     0.000920
      dz2     :    -0.000795  d :     0.014623
      dxz     :     0.016373
      dyz     :    -0.000920
      dx2y2   :     0.000491
      dxy     :    -0.000526
      f0      :     0.000296  f :     0.024738
      f+1     :    -0.000132
      f-1     :    -0.000234
      f+2     :     0.022667
      f-2     :     0.001914
      f+3     :     0.000280
      f-3     :    -0.000053

  1 C s       :    -0.000230  s :    -0.000230
      pz      :     0.005210  p :     0.001874
      px      :    -0.001166
      py      :    -0.002171
      dz2     :    -0.000043  d :     0.020295
      dxz     :     0.010733
      dyz     :     0.008831
      dx2y2   :     0.000591
      dxy     :     0.000182
      f0      :     0.001164  f :     0.020680
      f+1     :    -0.000109
      f-1     :    -0.000075
      f+2     :     0.016499
      f-2     :     0.002822
      f+3     :     0.000420
      f-3     :    -0.000042

  2 C s       :     0.001174  s :     0.001174
      pz      :     0.040606  p :     0.039357
      px      :    -0.000442
      py      :    -0.000806
      dz2     :    -0.000468  d :     0.011147
      dxz     :     0.007765
      dyz     :     0.004027
      dx2y2   :    -0.000243
      dxy     :     0.000066
      f0      :    -0.000072  f :     0.013292
      f+1     :    -0.000127
      f-1     :    -0.000191
      f+2     :     0.007583
      f-2     :     0.006333
      f+3     :     0.000254
      f-3     :    -0.000488

  3 C s       :     0.002846  s :     0.002846
      pz      :     0.086523  p :     0.084335
      px      :    -0.002105
      py      :    -0.000083
      dz2     :    -0.000463  d :     0.016656
      dxz     :     0.014569
      dyz     :     0.002163
      dx2y2   :     0.000472
      dxy     :    -0.000085
      f0      :    -0.000598  f :     0.023842
      f+1     :    -0.000012
      f-1     :    -0.000201
      f+2     :     0.020747
      f-2     :     0.003364
      f+3     :     0.000435
      f-3     :     0.000109

  4 C s       :     0.000623  s :     0.000623
      pz      :     0.027255  p :     0.025263
      px      :    -0.000539
      py      :    -0.001453
      dz2     :    -0.000307  d :     0.020204
      dxz     :     0.012981
      dyz     :     0.007263
      dx2y2   :     0.000416
      dxy     :    -0.000150
      f0      :     0.000428  f :     0.015671
      f+1     :    -0.000148
      f-1     :    -0.000159
      f+2     :     0.013824
      f-2     :     0.001822
      f+3     :     0.000130
      f-3     :    -0.000226

  5 C s       :     0.000652  s :     0.000652
      pz      :     0.027598  p :     0.025037
      px      :    -0.001176
      py      :    -0.001385
      dz2     :    -0.000307  d :     0.016628
      dxz     :     0.011160
      dyz     :     0.005314
      dx2y2   :    -0.000042
      dxy     :     0.000502
      f0      :     0.000610  f :     0.018876
      f+1     :    -0.000137
      f-1     :    -0.000136
      f+2     :     0.009654
      f-2     :     0.008625
      f+3     :     0.000455
      f-3     :    -0.000194

  6 H s       :    -0.000962  s :    -0.000962
      pz      :     0.001798  p :     0.001672
      px      :    -0.000352
      py      :     0.000226
      dz2     :    -0.000021  d :     0.002903
      dxz     :    -0.000539
      dyz     :     0.003647
      dx2y2   :    -0.000117
      dxy     :    -0.000068

  7 H s       :    -0.000855  s :    -0.000855
      pz      :     0.003759  p :     0.003873
      px      :    -0.000124
      py      :     0.000237
      dz2     :    -0.000013  d :     0.003256
      dxz     :    -0.000631
      dyz     :     0.003984
      dx2y2   :    -0.000141
      dxy     :     0.000057

  8 O s       :     0.003514  s :     0.003514
      pz      :     0.120531  p :     0.126776
      px      :     0.003039
      py      :     0.003207
      dz2     :     0.000075  d :     0.014179
      dxz     :     0.012305
      dyz     :     0.001936
      dx2y2   :     0.000217
      dxy     :    -0.000354
      f0      :     0.002340  f :     0.004613
      f+1     :    -0.000060
      f-1     :    -0.000046
      f+2     :     0.002371
      f-2     :     0.000038
      f+3     :     0.000002
      f-3     :    -0.000032

  9 C s       :    -0.000492  s :    -0.000492
      pz      :     0.000449  p :    -0.003276
      px      :    -0.001595
      py      :    -0.002130
      dz2     :     0.000202  d :     0.011578
      dxz     :     0.000277
      dyz     :     0.011238
      dx2y2   :    -0.000396
      dxy     :     0.000256
      f0      :     0.001973  f :     0.007302
      f+1     :     0.000024
      f-1     :     0.000115
      f+2     :     0.000475
      f-2     :     0.004500
      f+3     :     0.000246
      f-3     :    -0.000032

 10 H s       :    -0.000079  s :    -0.000079
      pz      :    -0.000154  p :    -0.000594
      px      :    -0.000193
      py      :    -0.000248
      dz2     :    -0.000034  d :     0.000251
      dxz     :    -0.000114
      dyz     :     0.000733
      dx2y2   :    -0.000211
      dxy     :    -0.000124

[...]
     42       0.166003  -0.002087  -0.000700   0.000003  -0.001106   0.011187
     43      -0.290875   0.003120  -0.001260   0.000004  -0.001640   0.016175
     44       0.000994   0.000334   0.000021  -0.000263   0.000007  -0.000058
     45      -0.000109  -0.007964   0.000049   0.000001   0.000005  -0.000187
     46      -0.000371  -0.030354   0.000031   0.000003   0.000015  -0.000141
     47      -0.000005  -0.000034   0.000001   0.000011   0.000001  -0.000000
     48       0.005575   0.257117  -0.000288  -0.000003   0.000202  -0.001135
     49       0.002156   0.965857  -0.001028  -0.000023   0.000260   0.000429
     50      -0.000110   0.000870   0.000010   0.000139   0.000003  -0.000007
                 48         49         50    
      0       0.001207  -0.001426   0.000833
      1      -0.001780   0.001909   0.000873
      2       0.000002  -0.000006   0.000001
      3       0.041544  -0.031553   0.000677
      4       0.060043  -0.038019   0.001078
      5      -0.000160   0.000110  -0.000001
      6       0.018114   0.035927   0.000686
      7      -0.041877  -0.066183  -0.000800
      8       0.000020   0.000011   0.000000
      9       0.000530   0.002161  -0.001052
     10       0.000792   0.002251   0.002939
     11      -0.000004  -0.000005   0.000006
     12       0.001012  -0.000031  -0.050517
     13       0.001487   0.000222  -0.070722
     14      -0.000007  -0.000001  -0.000042
     15      -0.000540  -0.001275   0.009337
     16      -0.000195   0.003161  -0.011867
     17      -0.000011   0.000002  -0.000001
     18       0.001165   0.015137  -0.063075
     19      -0.002444  -0.032559   0.130088
     20      -0.000025  -0.000003   0.000033
     21      -0.010825   0.000681   0.564689
     22      -0.015657   0.000676   0.806242
     23      -0.000015  -0.000004   0.000237
     24       0.000081  -0.000296  -0.000053
     25      -0.000088  -0.000213  -0.000461
     26       0.000009   0.000009  -0.000001
     27      -0.000511  -0.000464   0.002614
     28       0.000134   0.000274  -0.002737
     29       0.000001   0.000003  -0.000149
     30       0.004372   0.003583  -0.028226
     31      -0.002286  -0.002132   0.015426
     32      -0.000014  -0.000011   0.000118
     33       0.000132   0.000117  -0.004920
     34       0.000157  -0.000252   0.011537
     35      -0.000214  -0.000709   0.018906
     36       0.000126   0.000113  -0.005008
     37       0.000176  -0.000229   0.010588
     38       0.000137   0.000669  -0.017106
     39      -0.236580  -0.372239  -0.006702
     40       0.483026   0.751638   0.013149
     41      -0.000103  -0.000221  -0.000003
     42      -0.485577   0.312371  -0.007982
     43      -0.683453   0.435261  -0.011299
     44       0.001917  -0.001165   0.000034
     45      -0.000120   0.000141  -0.000057
     46      -0.000006   0.000021  -0.000026
     47       0.000006  -0.000005   0.000001
     48      -0.001389   0.000663  -0.000219
     49       0.000382  -0.001220   0.000390
     50      -0.000127   0.000086  -0.000003


-----------
IR SPECTRUM
-----------

 Mode   freq       eps      Int      T**2         TX        TY        TZ
       cm**-1   L/(mol*cm) km/mol    a.u.
----------------------------------------------------------------------------
  6:     59.33   0.000158    0.80  0.000833  ( 0.000664 -0.000024 -0.028862)
  7:    140.51   0.001533    7.75  0.003405  (-0.002120 -0.000375  0.058315)
  8:    169.93   0.000028    0.14  0.000051  (-0.003589  0.000935 -0.006092)
  9:    199.48   0.001584    8.00  0.002477  (-0.049030  0.008544 -0.000506)
 10:    289.02   0.001245    6.29  0.001344  ( 0.000797  0.000313  0.036651)
 11:    302.06   0.000285    1.44  0.000294  ( 0.014974 -0.008362 -0.000138)
 12:    331.31   0.004011   20.27  0.003778  ( 0.000896  0.000509 -0.061459)
 13:    362.10   0.000258    1.30  0.000222  (-0.011996 -0.008799 -0.000906)
 14:    402.78   0.002089   10.56  0.001619  (-0.000663  0.000425  0.040227)
 15:    496.28   0.005839   29.51  0.003671  (-0.000549 -0.000152  0.060590)
 16:    505.08   0.001265    6.39  0.000781  (-0.027437  0.005309  0.000540)
 17:    610.06   0.000152    0.77  0.000078  (-0.005818  0.006620  0.000093)
 18:    654.06   0.019651   99.31  0.009376  (-0.095481  0.016104  0.000100)
 19:    724.60   0.000142    0.72  0.000061  (-0.000435 -0.000294 -0.007799)
 20:    778.00   0.000031    0.16  0.000012  (-0.000512  0.000273 -0.003479)
 21:    809.61   0.001523    7.70  0.000587  (-0.019753 -0.014015 -0.000740)
 22:    840.67   0.022267  112.53  0.008266  (-0.001029  0.000094  0.090911)
 23:    926.97   0.005858   29.60  0.001972  (-0.035917 -0.026115  0.000355)
 24:    971.70   0.000002    0.01  0.000001  (-0.000839  0.000097 -0.000203)
 25:    975.72   0.000047    0.24  0.000015  ( 0.002320  0.002462  0.001897)
 26:    988.23   0.019471   98.40  0.006149  (-0.065254 -0.043479 -0.000030)
 27:    999.56   0.007673   38.78  0.002396  (-0.048900 -0.002112 -0.000033)
 28:   1128.66   0.009831   49.68  0.002718  (-0.051469  0.008311 -0.000291)
 29:   1135.73   0.003828   19.34  0.001052  ( 0.003499  0.032240 -0.000058)
 30:   1154.40   0.000059    0.30  0.000016  (-0.000378  0.000773 -0.003884)
 31:   1193.30   0.009150   46.24  0.002393  (-0.048605 -0.005502 -0.000080)
 32:   1196.24   0.007547   38.14  0.001969  (-0.044324 -0.002032 -0.000241)
 33:   1314.16   0.002437   12.32  0.000579  ( 0.017195  0.016824 -0.000132)
 34:   1335.74   0.072842  368.11  0.017018  ( 0.130221  0.007763 -0.000093)
 35:   1362.89   0.024172  122.16  0.005535  ( 0.074163 -0.005878 -0.000028)
 36:   1444.32   0.037167  187.83  0.008031  (-0.086027  0.025098  0.000199)
 37:   1464.52   0.004740   23.95  0.001010  (-0.008758 -0.000897 -0.030537)
 38:   1468.32   0.010214   51.62  0.002171  (-0.045737 -0.006222  0.006340)
 39:   1494.42   0.018228   92.12  0.003806  ( 0.059996  0.014377  0.000126)
 40:   1505.16   0.031458  158.98  0.006522  (-0.077149  0.023878 -0.000046)
 41:   1510.50   0.052288  264.24  0.010802  ( 0.103878  0.003432  0.000015)
 42:   1639.54   0.012927   65.33  0.002460  (-0.049594 -0.000971  0.000163)
 43:   2615.75   0.023901  120.79  0.002851  ( 0.046281  0.026635  0.000294)
 44:   3052.55   0.005148   26.02  0.000526  ( 0.020082  0.011087  0.000243)
 45:   3144.82   0.001784    9.02  0.000177  ( 0.000519  0.000426  0.013289)
 46:   3185.81   0.003213   16.24  0.000315  (-0.017513  0.002830  0.000081)
 47:   3188.11   0.000138    0.70  0.000013  (-0.000740  0.003594 -0.000021)
 48:   3194.57   0.000036    0.18  0.000004  ( 0.001855  0.000101  0.000276)
 49:   3208.01   0.000410    2.07  0.000040  ( 0.002652  0.005728  0.000001)
 50:   3228.11   0.000755    3.82  0.000073  (-0.000391  0.008536  0.000044)

* The epsilon (eps) is given for a Dirac delta lineshape.
** The dipole moment derivative (T) already includes vibrational overlap.

The first frequency considered to be a vibration is 6
The total number of vibrations considered is 45


--------------------------
THERMOCHEMISTRY AT 298.15K
--------------------------

Temperature         ...   298.15 K
Pressure            ...     1.00 atm
Total Mass          ...   140.20 AMU
Quasi RRHO          ...     True
Cut-Off Frequency   ...     1.00 cm^-1

Throughout the following assumptions are being made:
  (1) The electronic state is orbitally nondegenerate
      but the spin degeneracy is treated
  (2) There are no thermally accessible electronically excited states
  (3) Hindered rotations indicated by low frequency modes are not
      treated as such but are treated as vibrations and this may
      cause some error
  (4) All equations used are the standard statistical mechanics
      equations for an ideal gas
  (5) All vibrations are strictly harmonic

freq.      59.33  E(vib)   ...       0.51 
freq.     140.51  E(vib)   ...       0.41 
freq.     169.93  E(vib)   ...       0.38 
freq.     199.48  E(vib)   ...       0.35 
freq.     289.02  E(vib)   ...       0.27 
freq.     302.06  E(vib)   ...       0.26 
freq.     331.31  E(vib)   ...       0.24 
freq.     362.10  E(vib)   ...       0.22 
freq.     402.78  E(vib)   ...       0.19 
freq.     496.28  E(vib)   ...       0.14 
freq.     505.08  E(vib)   ...       0.14 
freq.     610.06  E(vib)   ...       0.10 
freq.     654.06  E(vib)   ...       0.08 
freq.     724.60  E(vib)   ...       0.06 
freq.     778.00  E(vib)   ...       0.05 
freq.     809.61  E(vib)   ...       0.05 
freq.     840.67  E(vib)   ...       0.04 
freq.     926.97  E(vib)   ...       0.03 
freq.     971.70  E(vib)   ...       0.03 
freq.     975.72  E(vib)   ...       0.03 
freq.     988.23  E(vib)   ...       0.02 
freq.     999.56  E(vib)   ...       0.02 
freq.    1128.66  E(vib)   ...       0.01 
freq.    1135.73  E(vib)   ...       0.01 
freq.    1154.40  E(vib)   ...       0.01 
freq.    1193.30  E(vib)   ...       0.01 
freq.    1196.24  E(vib)   ...       0.01 
freq.    1314.16  E(vib)   ...       0.01 
freq.    1335.74  E(vib)   ...       0.01 
freq.    1362.89  E(vib)   ...       0.01 
freq.    1444.32  E(vib)   ...       0.00 
freq.    1464.52  E(vib)   ...       0.00 
freq.    1468.32  E(vib)   ...       0.00 
freq.    1494.42  E(vib)   ...       0.00 
freq.    1505.16  E(vib)   ...       0.00 
freq.    1510.50  E(vib)   ...       0.00 
freq.    1639.54  E(vib)   ...       0.00 
freq.    2615.75  E(vib)   ...       0.00 
freq.    3052.55  E(vib)   ...       0.00 
freq.    3144.82  E(vib)   ...       0.00 
freq.    3185.81  E(vib)   ...       0.00 
freq.    3188.11  E(vib)   ...       0.00 
freq.    3194.57  E(vib)   ...       0.00 
freq.    3208.01  E(vib)   ...       0.00 
freq.    3228.11  E(vib)   ...       0.00 

------------
INNER ENERGY
------------

The inner energy is: U= E(el) + E(ZPE) + E(vib) + E(rot) + E(trans)
    E(el)   - is the total energy from the electronic structure calculation
              = E(kin-el) + E(nuc-el) + E(el-el) + E(nuc-nuc)
    E(ZPE)  - the the zero temperature vibrational energy from the frequency calculation
    E(vib)  - the the finite temperature correction to E(ZPE) due to population
              of excited vibrational states
    E(rot)  - is the rotational thermal energy
    E(trans)- is the translational thermal energy

Summary of contributions to the inner energy U:
Electronic energy                ...   -744.70428514 Eh
Zero point energy                ...      0.13145640 Eh      82.49 kcal/mol
Thermal vibrational correction   ...      0.00596885 Eh       3.75 kcal/mol
Thermal rotational correction    ...      0.00141627 Eh       0.89 kcal/mol
Thermal translational correction ...      0.00141627 Eh       0.89 kcal/mol
-----------------------------------------------------------------------
Total thermal energy                   -744.56402735 Eh


Summary of corrections to the electronic energy:
(perhaps to be used in another calculation)
Total thermal correction                  0.00880140 Eh       5.52 kcal/mol
Non-thermal (ZPE) correction              0.13145640 Eh      82.49 kcal/mol
-----------------------------------------------------------------------
Total correction                          0.14025779 Eh      88.01 kcal/mol


--------
ENTHALPY
--------

The enthalpy is H = U + kB*T
                kB is Boltzmann's constant
Total thermal energy              ...   -744.56402735 Eh 
Thermal Enthalpy correction       ...      0.00094421 Eh       0.59 kcal/mol
-----------------------------------------------------------------------
Total Enthalpy                    ...   -744.56308314 Eh


Note: Only C1 symmetry has been detected, increase convergence thresholds 
      if your molecule has a higher symmetry. Symmetry factor of 1.0 is   
      used for the rotational entropy correction. 
 

Note: Rotational entropy computed according to Herzberg 
Infrared and Raman Spectra, Chapter V,1, Van Nostrand Reinhold, 1945 
Point Group:  C1, Symmetry Number:   1  
Rotational constants in cm-1:     0.154624     0.023843     0.020740 

Vibrational entropy computed according to the QRRHO of S. Grimme
Chem.Eur.J. 2012 18 9955 using a reference frequency of 100.0 cm-1


-------
ENTROPY
-------

The entropy contributions are T*S = T*(S(el)+S(vib)+S(rot)+S(trans))
     S(el)   - electronic entropy
     S(vib)  - vibrational entropy
     S(rot)  - rotational entropy
     S(trans)- translational entropy
The entropies will be listed as multiplied by the temperature to get
units of energy

Electronic entropy                ...      0.00065446 Eh      0.41 kcal/mol
Vibrational entropy               ...      0.00994890 Eh      6.24 kcal/mol
Rotational entropy                ...      0.01398560 Eh      8.78 kcal/mol
Translational entropy             ...      0.01934980 Eh     12.14 kcal/mol
-----------------------------------------------------------------------
Final entropy term                ...      0.04393876 Eh     27.57 kcal/mol

In case the symmetry of your molecule has not been determined correctly
or in case you have a reason to use a different symmetry number we print 
out the resulting rotational entropy values for sn=1,12:

 non-linear molecules -----------------------------------
|  sn= 1 | S(rot)=       0.01398560 Eh      8.78 kcal/mol|
|  sn= 2 | S(rot)=       0.01333115 Eh      8.37 kcal/mol|
|  sn= 3 | S(rot)=       0.01294832 Eh      8.13 kcal/mol|
|  sn= 4 | S(rot)=       0.01267669 Eh      7.95 kcal/mol|
|  sn= 5 | S(rot)=       0.01246600 Eh      7.82 kcal/mol|
|  sn= 6 | S(rot)=       0.01229386 Eh      7.71 kcal/mol|
|  sn= 7 | S(rot)=       0.01214831 Eh      7.62 kcal/mol|
|  sn= 8 | S(rot)=       0.01202224 Eh      7.54 kcal/mol|
|  sn= 9 | S(rot)=       0.01191103 Eh      7.47 kcal/mol|
|  sn=10 | S(rot)=       0.01181155 Eh      7.41 kcal/mol|
|  sn=11 | S(rot)=       0.01172156 Eh      7.36 kcal/mol|
|  sn=12 | S(rot)=       0.01163940 Eh      7.30 kcal/mol|
 linear molecules ---------------------------------------
|  Dinfh | S(rot)=       0.00898514 Eh      5.64 kcal/mol|
|  Cinfv | S(rot)=       0.00963960 Eh      6.05 kcal/mol|
 --------------------------------------------------------


-------------------
GIBBS FREE ENERGY
-------------------

The Gibbs free energy is G = H - T*S

Total enthalpy                    ...   -744.56308314 Eh 
Total entropy correction          ...     -0.04393876 Eh    -27.57 kcal/mol
-----------------------------------------------------------------------
Final Gibbs free energy         ...   -744.60702190 Eh

For completeness - the Gibbs free energy minus the electronic energy
G-E(el)                           ...      0.09726324 Eh     61.03 kcal/mol


Maximum memory used throughout the entire PROP-calculation: 121.9 MB

--------------------------------
SUGGESTED CITATIONS FOR THIS RUN
--------------------------------

Below you find a list of papers that are relevant to this ORCA run
We neither can nor want to force you to cite these papers, but we appreciate if you do
You receive ORCA, which is the product of decades of hard work by many enthusiastic individuals, for free
The only thing we kindly ask in return is that you cite our papers,
We deeply appreciate it, if you show your appreciation for ORCA by not just citing the generic ORCA reference.

Please note that relegating all ORCA citations to the supporting information does *not* help us.
SI sections are not indexed - citations you put there will not count into any citation statistics
But we need these citations in order to attract the funding resources that allow us to do what we are doing

Therefore, if you are a happy ORCA user, please consider citing a few of the papers listed below in the main body of your paper

In addition to the list printed below, the program has created the file cs_rporg_078_ox_freq_06.bibtex that contains the list in bibtex format
You can import this file easily into all common literature databanks and citation aid programs


List of essential papers. We consider these as the minimum necessary citations

  1. Neese,F.
     Software update: the ORCA program system, version 5.0
     WIRES Comput. Molec. Sci., 2022 12(1)e1606
     doi.org/10.1002/wcms.1606

List of papers to cite with high priority. The work reported in these papers was absolutely
necessary for this run to complete.
Our perspective: the developers of density functionals and basis sets usually get cited in chemistry papers
Good! But without the algorithms to do something with them, the functionals or basis sets would not do anything.
Hence, in our opinion, the algorithm design and method developments papers are equally worthy of getting cited

  1. Neese,F.
     An improvement of the resolution of the identity approximation for the formation of the Coulomb matrix
     J. Comp. Chem., 2003 24(14)1740-1747
     doi.org/10.1002/jcc.10318
  2. Bykov,D.; Petrenko,T.; Izsak,R.; Kossmann,S.; Becker,U.; Valeev,E.; Neese,F.
     Efficient implementation of the analytic second derivatives of Hartree-Fock and hybrid DFT energies: a detailed analysis of different approximations
     Molec. Phys., 2015 113 1961-1977
     doi.org/10.1080/00268976.2015.1025114
  3. Garcia-Rates,M.; Neese,F.
     Efficient implementation of the analytical second derivatives of hartree-fock and hybrid DFT energies within the framework of the conductor-like polarizable continuum model
     J. Comput. Chem., 2019 40 1816-1828
     doi.org/10.1002/jcc.25833
  4. Garcia-Rates,M.; Neese,F.
     Effect of the Solute Cavity on the Solvation Energy and its Derivatives within the Framework of the Gaussian Charge Scheme
     J. Comput. Chem., 2020 41 922-939
     doi.org/10.1002/jcc.26139
  5. Neese,F.
     The SHARK Integral Generation and Digestion System
     J. Comp. Chem., 2022  1-16
     doi.org/10.1002/jcc.26942
  6. Lehtola,S.; Steigemann,C.; Oliveira,M.; Marques,M.
     Recent developments in Libxc - A comprehensive library of functionals for density functional theory
     Software X, 2018 7 
     doi.org/10.1016/j.softx.2017.11.002
  7. Grimme,S.; Antony,J.; Ehrlich,S.; Krieg,H.
     A consistent and accurate ab initio parametrization of density functional dispersion correction (DFT-D) for the 94 elements H-Pu
     J. Chem. Phys., 2010 132 154104-XXXX
     doi.org/10.1063/1.3382344
  8. Grimme,S.; Ehrlich,S.; Goerigk,L.
     Effect of the damping function in dispersion corrected density functional theory
     J. Comput. Chem., 2011 32(7)1456-1465
     doi.org/10.1002/jcc.21759

List of suggested additional citations. These are papers that are important in the 'surrounding' of 
of this run, or papers that preceded the highly important papers. If you like your results we are grateful for a citation.

  1. Neese,F.
     The ORCA program system
     WIRES Comput. Molec. Sci., 2012 2(1)73-78
     doi.org/10.1002/wcms.81
  2. Neese,F.
     Software update: the ORCA program system, version 4.0
     WIRES Comput. Molec. Sci., 2018 8(1)1-6
     doi.org/10.1002/wcms.1327
  3. Neese,F.; Wennmohs,F.; Becker,U.; Riplinger,C.
     The ORCA quantum chemistry program package
     J. Chem. Phys., 2020 152 Art. No. L224108
     doi.org/10.1063/5.0004608

List of optional additional citations

  1. Neese,F.
     Approximate second-order SCF convergence for spin unrestricted wavefunctions
     Chem. Phys. Lett., 2000 325(1-3)93-98
     doi.org/10.1016/s0009-2614(00)00662-x

Timings for individual modules:

Sum of individual times          ...     2031.531 sec (=  33.859 min)
Startup calculation              ...        6.989 sec (=   0.116 min)   0.3 %
SCF iterations                   ...      166.697 sec (=   2.778 min)   8.2 %
Property integrals               ...      965.614 sec (=  16.094 min)  47.5 %
SCF Response                     ...      750.485 sec (=  12.508 min)  36.9 %
Property calculations            ...      141.746 sec (=   2.362 min)   7.0 %
                             ****ORCA TERMINATED NORMALLY****
TOTAL RUN TIME: 0 days 0 hours 33 minutes 55 seconds 76 msec
