 vasp.5.4.4.18Apr17-6-g9f103f2a35 (build May 01 2020 14:57:12) complex          
  
 executed on             LinuxIFC date 2024.10.08  05:48:33
 running on   60 total cores
 distrk:  each k-point on   60 cores,    1 groups
 distr:  one band on NCORES_PER_BAND=  60 cores,    1 groups


--------------------------------------------------------------------------------------------------------


 INCAR:
 POTCAR:    PAW_PBE C 08Apr2002                   
 POTCAR:    PAW_PBE H 15Jun2001                   

 ----------------------------------------------------------------------------- 
|                                                                             |
|           W    W    AA    RRRRR   N    N  II  N    N   GGGG   !!!           |
|           W    W   A  A   R    R  NN   N  II  NN   N  G    G  !!!           |
|           W    W  A    A  R    R  N N  N  II  N N  N  G       !!!           |
|           W WW W  AAAAAA  RRRRR   N  N N  II  N  N N  G  GGG   !            |
|           WW  WW  A    A  R   R   N   NN  II  N   NN  G    G                |
|           W    W  A    A  R    R  N    N  II  N    N   GGGG   !!!           |
|                                                                             |
|      For optimal performance we recommend to set                            |
|        NCORE= 4 - approx SQRT( number of cores)                             |
|      NCORE specifies how many cores store one orbital (NPAR=cpu/NCORE).     |
|      This setting can  greatly improve the performance of VASP for DFT.     |
|      The default,   NCORE=1            might be grossly inefficient         |
|      on modern multi-core architectures or massively parallel machines.     |
|      Do your own testing !!!!                                               |
|      Unfortunately you need to use the default for GW and RPA calculations. |
|      (for HF NCORE is supported but not extensively tested yet)             |
|                                                                             |
 ----------------------------------------------------------------------------- 

 POTCAR:    PAW_PBE C 08Apr2002                   
   VRHFIN =C: s2p2                                                              
   LEXCH  = PE                                                                  
   EATOM  =   147.1560 eV,   10.8157 Ry                                         
                                                                                
   TITEL  = PAW_PBE C 08Apr2002                                                 
   LULTRA =        F    use ultrasoft PP ?                                      
   IUNSCR =        1    unscreen: 0-lin 1-nonlin 2-no                           
   RPACOR =    1.200    partial core radius                                     
   POMASS =   12.011; ZVAL   =    4.000    mass and valenz                      
   RCORE  =    1.500    outmost cutoff radius                                   
   RWIGS  =    1.630; RWIGS  =    0.863    wigner-seitz radius (au A)           
   ENMAX  =  400.000; ENMIN  =  300.000 eV                                      
   ICORE  =        2    local potential                                         
   LCOR   =        T    correct aug charges                                     
   LPAW   =        T    paw PP                                                  
   EAUG   =  644.873                                                            
   DEXC   =    0.000                                                            
   RMAX   =    1.529    core radius for proj-oper                               
   RAUG   =    1.300    factor for augmentation sphere                          
   RDEP   =    1.501    radius for radial grids                                 
   RDEPT  =    1.300    core radius for aug-charge                              
                                                                                
   Atomic configuration                                                         
    4 entries                                                                   
     n  l   j            E        occ.                                          
     1  0  0.50      -273.3789   2.0000                                         
     2  0  0.50       -13.7508   2.0000                                         
     2  1  0.50        -5.2854   2.0000                                         
     3  2  1.50        -5.4423   0.0000                                         
   Description                                                                  
     l       E           TYP  RCUT    TYP  RCUT                                 
     0    -13.7508458     23  1.200                                             
     0     -8.2022199     23  1.200                                             
     1     -5.2854383     23  1.500                                             
     1     34.0145650     23  1.500                                             
     2     -5.4423304      7  1.500                                             
  local pseudopotential read in
  partial core-charges read in
  partial kinetic energy density read in
  atomic valenz-charges read in
  non local Contribution for L=           0  read in
    real space projection operators read in
  non local Contribution for L=           0  read in
    real space projection operators read in
  non local Contribution for L=           1  read in
    real space projection operators read in
  non local Contribution for L=           1  read in
    real space projection operators read in
    PAW grid and wavefunctions read in
 
   number of l-projection  operators is LMAX  =           4
   number of lm-projection operators is LMMAX =           8
 
 POTCAR:    PAW_PBE H 15Jun2001                   
   VRHFIN =H: ultrasoft test                                                    
   LEXCH  = PE                                                                  
   EATOM  =    12.4884 eV,    0.9179 Ry                                         
                                                                                
   TITEL  = PAW_PBE H 15Jun2001                                                 
   LULTRA =        F    use ultrasoft PP ?                                      
   IUNSCR =        0    unscreen: 0-lin 1-nonlin 2-no                           
   RPACOR =    0.000    partial core radius                                     
   POMASS =    1.000; ZVAL   =    1.000    mass and valenz                      
   RCORE  =    1.100    outmost cutoff radius                                   
   RWIGS  =    0.700; RWIGS  =    0.370    wigner-seitz radius (au A)           
   ENMAX  =  250.000; ENMIN  =  200.000 eV                                      
   RCLOC  =    0.701    cutoff for local pot                                    
   LCOR   =        T    correct aug charges                                     
   LPAW   =        T    paw PP                                                  
   EAUG   =  400.000                                                            
   RMAX   =    1.123    core radius for proj-oper                               
   RAUG   =    1.200    factor for augmentation sphere                          
   RDEP   =    1.112    radius for radial grids                                 
   RDEPT  =    0.926    core radius for aug-charge                              
                                                                                
   Atomic configuration                                                         
    2 entries                                                                   
     n  l   j            E        occ.                                          
     1  0  0.50        -6.4927   1.0000                                         
     2  1  0.50        -3.4015   0.0000                                         
   Description                                                                  
     l       E           TYP  RCUT    TYP  RCUT                                 
     0     -6.4927494     23  1.100                                             
     0      6.8029130     23  1.100                                             
     1     -4.0817478     23  1.100                                             
  local pseudopotential read in
  atomic valenz-charges read in
  non local Contribution for L=           0  read in
    real space projection operators read in
  non local Contribution for L=           0  read in
    real space projection operators read in
  non local Contribution for L=           1  read in
    real space projection operators read in
    PAW grid and wavefunctions read in
 
   number of l-projection  operators is LMAX  =           3
   number of lm-projection operators is LMMAX =           5
 
 Optimization of the real space projectors (new method)

 maximal supplied QI-value         = 25.13
 optimisation between [QCUT,QGAM] = [ 11.31, 22.87] = [ 35.82,146.48] Ry 
 Optimized for a Real-space Cutoff    1.03 Angstroem

   l    n(q)    QCUT    max X(q) W(low)/X(q) W(high)/X(q)  e(spline) 
   0      7    11.310   115.676    0.20E-03    0.90E-03    0.20E-06
   0      7    11.310    87.132    0.20E-03    0.89E-03    0.19E-06
   1      6    11.310     4.429    0.16E-03    0.28E-03    0.12E-06
   1      6    11.310     2.733    0.12E-03    0.21E-03    0.99E-07
 Optimization of the real space projectors (new method)

 maximal supplied QI-value         = 34.20
 optimisation between [QCUT,QGAM] = [ 11.29, 22.57] = [ 35.68,142.71] Ry 
 Optimized for a Real-space Cutoff    1.20 Angstroem

   l    n(q)    QCUT    max X(q) W(low)/X(q) W(high)/X(q)  e(spline) 
   0      8    11.287    19.460    0.22E-03    0.50E-03    0.19E-06
   0      8    11.287    12.209    0.21E-03    0.48E-03    0.18E-06
   1      8    11.287     4.655    0.21E-03    0.11E-04    0.26E-06
  PAW_PBE C 08Apr2002                   :
 energy of atom  1       EATOM= -147.1560
 kinetic energy error for atom=    0.0076 (will be added to EATOM!!)
  PAW_PBE H 15Jun2001                   :
 energy of atom  2       EATOM=  -12.4884
 kinetic energy error for atom=    0.0020 (will be added to EATOM!!)
 
 
 POSCAR: C H                                     
  positions in direct lattice
  velocities in cartesian coordinates
 exchange correlation table for  LEXCH =        8
   RHO(1)=    0.500       N(1)  =     2000
   RHO(2)=  100.500       N(2)  =     4000
 


--------------------------------------------------------------------------------------------------------


 ion  position               nearest neighbor table
   1  0.547  0.469  0.494-  26 1.09   2 1.39   6 1.43
   2  0.582  0.469  0.493-  25 1.09   1 1.39   3 1.40
   3  0.599  0.499  0.501-  24 1.09   2 1.40   4 1.41
   4  0.581  0.528  0.509-  23 1.09   5 1.38   3 1.41
   5  0.547  0.528  0.508-  22 1.09   4 1.38   6 1.43
   6  0.529  0.499  0.500-   5 1.43   1 1.43   7 1.44
   7  0.493  0.499  0.499-   8 1.40   6 1.44  12 1.50
   8  0.475  0.470  0.506-  21 1.09   7 1.40   9 1.47
   9  0.438  0.468  0.508-  20 1.10  19 1.12   8 1.47  10 1.53
  10  0.421  0.502  0.508-  17 1.10  18 1.10  11 1.53   9 1.53
  11  0.438  0.525  0.484-  15 1.10  16 1.10  10 1.53  12 1.53
  12  0.474  0.531  0.493-  13 1.10  14 1.11   7 1.50  11 1.53
  13  0.488  0.545  0.474-  12 1.10
  14  0.476  0.547  0.516-  12 1.11
  15  0.425  0.550  0.483-  11 1.10
  16  0.436  0.515  0.458-  11 1.10
  17  0.394  0.498  0.502-  10 1.10
  18  0.422  0.513  0.534-  10 1.10
  19  0.430  0.452  0.487-   9 1.12
  20  0.432  0.452  0.530-   9 1.10
  21  0.489  0.446  0.509-   8 1.09
  22  0.533  0.551  0.514-   5 1.09
  23  0.595  0.551  0.516-   4 1.09
  24  0.626  0.499  0.501-   3 1.09
  25  0.596  0.447  0.486-   2 1.09
  26  0.534  0.446  0.487-   1 1.09
 
  LATTYP: Found a simple cubic cell.
 ALAT       =    40.0000000000
  
  Lattice vectors:
  
 A1 = (  40.0000000000,   0.0000000000,   0.0000000000)
 A2 = (   0.0000000000,  40.0000000000,   0.0000000000)
 A3 = (   0.0000000000,   0.0000000000,  40.0000000000)


Analysis of symmetry for initial positions (statically):
=====================================================================
 Subroutine PRICEL returns:
 Original cell was already a primitive cell.
 

 Routine SETGRP: Setting up the symmetry group for a 
 simple cubic supercell.


 Subroutine GETGRP returns: Found  1 space group operations
 (whereof  1 operations were pure point group operations)
 out of a pool of 48 trial point group operations.


The static configuration has the point symmetry C_1 .


Analysis of symmetry for dynamics (positions and initial velocities):
=====================================================================
 Subroutine PRICEL returns:
 Original cell was already a primitive cell.
 

 Routine SETGRP: Setting up the symmetry group for a 
 simple cubic supercell.


 Subroutine GETGRP returns: Found  1 space group operations
 (whereof  1 operations were pure point group operations)
 out of a pool of 48 trial point group operations.


The dynamic configuration has the point symmetry C_1 .


Analysis of constrained symmetry for selective dynamics:
=====================================================================
 Subroutine PRICEL returns:
 Original cell was already a primitive cell.
 

 Routine SETGRP: Setting up the symmetry group for a 
 simple cubic supercell.


 Subroutine GETGRP returns: Found  1 space group operations
 (whereof  1 operations were pure point group operations)
 out of a pool of 48 trial point group operations.


The constrained configuration has the point symmetry C_1 .


Analysis of structural, dynamic, and magnetic symmetry:
=====================================================================
 Subroutine PRICEL returns:
 Original cell was already a primitive cell.
 

 Routine SETGRP: Setting up the symmetry group for a 
 simple cubic supercell.


 Subroutine GETGRP returns: Found  1 space group operations
 (whereof  1 operations were pure point group operations)
 out of a pool of 48 trial point group operations.


The magnetic configuration has the point symmetry C_1 .


 Subroutine INISYM returns: Found  1 space group operations
 (whereof  1 operations are pure point group operations),
 and found     1 'primitive' translations

 
 
 KPOINTS: K-Point Grid                            

Automatic generation of k-mesh.
Space group operators:
 irot       det(A)        alpha          n_x          n_y          n_z        tau_x        tau_y        tau_z
    1     1.000000     0.000000     1.000000     0.000000     0.000000     0.000000     0.000000     0.000000
 
 Subroutine IBZKPT returns following result:
 ===========================================
 
 Found      1 irreducible k-points:
 
 Following reciprocal coordinates:
            Coordinates               Weight
  0.000000  0.000000  0.000000      1.000000
 
 Following cartesian coordinates:
            Coordinates               Weight
  0.000000  0.000000  0.000000      1.000000
 


--------------------------------------------------------------------------------------------------------




 Dimension of arrays:
   k-points           NKPTS =      1   k-points in BZ     NKDIM =      1   number of bands    NBANDS=     57
   number of dos      NEDOS =    301   number of ions     NIONS =     26
   non local maximal  LDIM  =      4   non local SUM 2l+1 LMDIM =      8
   total plane-waves  NPLWV = ******
   max r-space proj   IRMAX =   2915   max aug-charges    IRDMAX=   4885
   dimension x,y,z NGX =   294 NGY =  294 NGZ =  294
   dimension x,y,z NGXF=   588 NGYF=  588 NGZF=  588
   support grid    NGXF=   588 NGYF=  588 NGZF=  588
   ions per type =              12  14
   NGX,Y,Z   is equivalent  to a cutoff of  12.22, 12.22, 12.22 a.u.
   NGXF,Y,Z  is equivalent  to a cutoff of  24.44, 24.44, 24.44 a.u.

 SYSTEM =  103_red                                 
 POSCAR =  C H                                     

 Startparameter for this run:
   NWRITE =      2    write-flag & timer
   PREC   = accura    normal or accurate (medium, high low for compatibility)
   ISTART =      1    job   : 0-new  1-cont  2-samecut
   ICHARG =      2    charge: 1-file 2-atom 10-const
   ISPIN  =      2    spin polarized calculation?
   LNONCOLLINEAR =      F non collinear calculations
   LSORBIT =      F    spin-orbit coupling
   INIWAV =      1    electr: 0-lowe 1-rand  2-diag
   LASPH  =      F    aspherical Exc in radial PAW
   METAGGA=      F    non-selfconsistent MetaGGA calc.

 Electronic Relaxation 1
   ENCUT  =  500.0 eV  36.75 Ry    6.06 a.u.  72.93 72.93 72.93*2*pi/ulx,y,z
   ENINI  =  500.0     initial cutoff
   ENAUG  =  644.9 eV  augmentation charge cutoff
   NELM   =    100;   NELMIN=  2; NELMDL=  0     # of ELM steps 
   EDIFF  = 0.1E-04   stopping-criterion for ELM
   LREAL  =      T    real-space projection
   NLSPLINE    = F    spline interpolate recip. space projectors
   LCOMPAT=      F    compatible to vasp.4.4
   GGA_COMPAT  = T    GGA compatible to vasp.4.4-vasp.4.6
   LMAXPAW     = -100 max onsite density
   LMAXMIX     =    2 max onsite mixed and CHGCAR
   VOSKOWN=      0    Vosko Wilk Nusair interpolation
   ROPT   =   -0.00025  -0.00025
 Ionic relaxation
   EDIFFG = -.2E-01   stopping-criterion for IOM
   NSW    =    500    number of steps for IOM
   NBLOCK =      1;   KBLOCK =    500    inner block; outer block 
   IBRION =      2    ionic relax: 0-MD 1-quasi-New 2-CG
   NFREE  =      1    steps in history (QN), initial steepest desc. (CG)
   ISIF   =      2    stress and relaxation
   IWAVPR =     11    prediction:  0-non 1-charg 2-wave 3-comb
   ISYM   =      2    0-nonsym 1-usesym 2-fastsym
   LCORR  =      T    Harris-Foulkes like correction to forces

   POTIM  = 0.5000    time-step for ionic-motion
   TEIN   =    0.0    initial temperature
   TEBEG  =    0.0;   TEEND  =   0.0 temperature during run
   SMASS  =  -3.00    Nose mass-parameter (am)
   estimated Nose-frequenzy (Omega)   =  0.10E-29 period in steps =****** mass=  -0.366E-25a.u.
   SCALEE = 1.0000    scale energy and forces
   NPACO  =    256;   APACO  = 16.0  distance and # of slots for P.C.
   PSTRESS=    0.0 pullay stress

  Mass of Ions in am
   POMASS =  12.01  1.00
  Ionic Valenz
   ZVAL   =   4.00  1.00
  Atomic Wigner-Seitz radii
   RWIGS  =  -1.00 -1.00
  virtual crystal weights 
   VCA    =   1.00  1.00
   NELECT =      61.0000    total number of electrons
   NUPDOWN=      -1.0000    fix difference up-down

 DOS related values:
   EMIN   =  10.00;   EMAX   =-10.00  energy-range for DOS
   EFERMI =   0.00
   ISMEAR =     0;   SIGMA  =   0.05  broadening in eV -4-tet -1-fermi 0-gaus

 Electronic relaxation 2 (details)
   IALGO  =     68    algorithm
   LDIAG  =      T    sub-space diagonalisation (order eigenvalues)
   LSUBROT=      F    optimize rotation matrix (better conditioning)
   TURBO    =      0    0=normal 1=particle mesh
   IRESTART =      0    0=no restart 2=restart with 2 vectors
   NREBOOT  =      0    no. of reboots
   NMIN     =      0    reboot dimension
   EREF     =   0.00    reference energy to select bands
   IMIX   =      4    mixing-type and parameters
     AMIX     =   0.40;   BMIX     =  1.00
     AMIX_MAG =   1.60;   BMIX_MAG =  1.00
     AMIN     =   0.10
     WC   =   100.;   INIMIX=   1;  MIXPRE=   1;  MAXMIX= -45

 Intra band minimization:
   WEIMIN = 0.0010     energy-eigenvalue tresh-hold
   EBREAK =  0.44E-07  absolut break condition
   DEPER  =   0.30     relativ break condition  

   TIME   =   0.40     timestep for ELM

  volume/ion in A,a.u.               =    2461.54     16611.28
  Fermi-wavevector in a.u.,A,eV,Ry     =   0.161111  0.304455  0.353162  0.025957
  Thomas-Fermi vector in A             =   0.855887
 
 Write flags
   LWAVE        =      T    write WAVECAR
   LDOWNSAMPLE  =      F    k-point downsampling of WAVECAR
   LCHARG       =      F    write CHGCAR
   LVTOT        =      F    write LOCPOT, total local potential
   LVHAR        =      F    write LOCPOT, Hartree potential only
   LELF         =      F    write electronic localiz. function (ELF)
   LORBIT       =      0    0 simple, 1 ext, 2 COOP (PROOUT), +10 PAW based schemes


 Dipole corrections
   LMONO  =      F    monopole corrections only (constant potential shift)
   LDIPOL =      F    correct potential (dipole corrections)
   IDIPOL =      0    1-x, 2-y, 3-z, 4-all directions 
   EPSILON=  1.0000000 bulk dielectric constant

 Exchange correlation treatment:
   GGA     =    --    GGA type
   LEXCH   =     8    internal setting for exchange type
   VOSKOWN=      0    Vosko Wilk Nusair interpolation
   LHFCALC =     F    Hartree Fock is set to
   LHFONE  =     F    Hartree Fock one center treatment
   AEXX    =    0.0000 exact exchange contribution

 Linear response parameters
   LEPSILON=     F    determine dielectric tensor
   LRPA    =     F    only Hartree local field effects (RPA)
   LNABLA  =     F    use nabla operator in PAW spheres
   LVEL    =     F    velocity operator in full k-point grid
   LINTERFAST=   F  fast interpolation
   KINTER  =     0    interpolate to denser k-point grid
   CSHIFT  =0.1000    complex shift for real part using Kramers Kronig
   OMEGAMAX=  -1.0    maximum frequency
   DEG_THRESHOLD= 0.2000000E-02 threshold for treating states as degnerate
   RTIME   =   -0.100 relaxation time in fs
  (WPLASMAI=    0.000 imaginary part of plasma frequency in eV, 0.658/RTIME)
   DFIELD  = 0.0000000 0.0000000 0.0000000 field for delta impulse in time
 
 Orbital magnetization related:
   ORBITALMAG=     F  switch on orbital magnetization
   LCHIMAG   =     F  perturbation theory with respect to B field
   DQ        =  0.001000  dq finite difference perturbation B field
   LLRAUG    =     F  two centre corrections for induced B field

 Solvation model:
   LSOL    =     T         switch on solvation model
   EB_K    = 35.688000     relative permittivity of the bulk solvent
   SIGMA_K =  0.600000     width of the dielectric cavity
   NC_K    =  0.002500     cutoff charge density
   TAU     =  0.000000     cavity surface tension
   LAMBDA_D_K    =  3.040000     Debye length in Angstroms
   LRHOB     =     F     write boundcharge  density
   LRHOION     =     F     write ioniccharge density



--------------------------------------------------------------------------------------------------------


 conjugate gradient relaxation of ions
   using selective dynamics as specified on POSCAR
 charge density and potential will be updated during run
 spin polarized calculation
 RMM-DIIS sequential band-by-band and
  variant of blocked Davidson during initial phase
 perform sub-space diagonalisation
    before iterative eigenvector-optimisation
 modified Broyden-mixing scheme, WC =      100.0
 initial mixing is a Kerker type mixing with AMIX =  0.4000 and BMIX =      1.0000
 Hartree-type preconditioning will be used
 using additional bands           26
 real space projection scheme for non local part
 use partial core corrections
 calculate Harris-corrections to forces 
   (improved forces if not selfconsistent)
 use gradient corrections 
 use of overlap-Matrix (Vanderbilt PP)
 Gauss-broadening in eV      SIGMA  =   0.05


--------------------------------------------------------------------------------------------------------


  energy-cutoff  :      500.00
  volume of cell :    64000.00
      direct lattice vectors                 reciprocal lattice vectors
    40.000000000  0.000000000  0.000000000     0.025000000  0.000000000  0.000000000
     0.000000000 40.000000000  0.000000000     0.000000000  0.025000000  0.000000000
     0.000000000  0.000000000 40.000000000     0.000000000  0.000000000  0.025000000

  length of vectors
    40.000000000 40.000000000 40.000000000     0.025000000  0.025000000  0.025000000


 
 old parameters found on file WAVECAR:
  energy-cutoff  :      500.00
  volume of cell :    64000.00
      direct lattice vectors                 reciprocal lattice vectors
    40.000000000  0.000000000  0.000000000     0.025000000  0.000000000  0.000000000
     0.000000000 40.000000000  0.000000000     0.000000000  0.025000000  0.000000000
     0.000000000  0.000000000 40.000000000     0.000000000  0.000000000  0.025000000

  length of vectors

 
 k-points in units of 2pi/SCALE and weight: K-Point Grid                            
   0.00000000  0.00000000  0.00000000       1.000
 
 k-points in reciprocal lattice and weights: K-Point Grid                            
   0.00000000  0.00000000  0.00000000       1.000
 
 position of ions in fractional coordinates (direct lattice) 
   0.54734338  0.46877798  0.49351398
   0.58196252  0.46939802  0.49290718
   0.59913258  0.49897184  0.50083205
   0.58140436  0.52833763  0.50872376
   0.54684333  0.52847248  0.50774245
   0.52889291  0.49857506  0.50042329
   0.49284944  0.49902981  0.49945183
   0.47501757  0.46954491  0.50563729
   0.43845562  0.46798958  0.50848689
   0.42073677  0.50185700  0.50837417
   0.43763523  0.52545499  0.48353273
   0.47429761  0.53107468  0.49311958
   0.48758601  0.54542667  0.47376786
   0.47552086  0.54651517  0.51603745
   0.42470501  0.54965958  0.48267778
   0.43643705  0.51475496  0.45815373
   0.39422710  0.49831794  0.50226746
   0.42181170  0.51278402  0.53362669
   0.42993225  0.45228969  0.48707751
   0.43176788  0.45246927  0.53033145
   0.48876010  0.44630370  0.50941103
   0.53321491  0.55121360  0.51389961
   0.59492463  0.55093653  0.51567496
   0.62637594  0.49922004  0.50090937
   0.59582942  0.44690106  0.48627981
   0.53433383  0.44572280  0.48714010
 
 position of ions in cartesian coordinates  (Angst):
  21.89373507 18.75111915 19.74055922
  23.27850088 18.77592071 19.71628720
  23.96530313 19.95887360 20.03328187
  23.25617434 21.13350520 20.34895035
  21.87373324 21.13889908 20.30969794
  21.15571651 19.94300240 20.01693161
  19.71397742 19.96119244 19.97807328
  19.00070270 18.78179652 20.22549174
  17.53822469 18.71958303 20.33947552
  16.82947088 20.07427996 20.33496667
  17.50540906 21.01819947 19.34130904
  18.97190427 21.24298735 19.72478307
  19.50344053 21.81706679 18.95071455
  19.02083443 21.86060668 20.64149797
  16.98820038 21.98638303 19.30711131
  17.45748193 20.59019832 18.32614930
  15.76908390 19.93271743 20.09069840
  16.87246784 20.51136084 21.34506758
  17.19728986 18.09158775 19.48310021
  17.27071526 18.09877093 21.21325782
  19.55040419 17.85214798 20.37644115
  21.32859659 22.04854402 20.55598446
  23.79698507 22.03746128 20.62699828
  25.05503768 19.96880161 20.03637497
  23.83317676 17.87604243 19.45119241
  21.37335339 17.82891201 19.48560407
 


--------------------------------------------------------------------------------------------------------


 k-point  1 :   0.0000 0.0000 0.0000  plane waves: 1624525

 maximum and minimum number of plane-waves per node :     27086    27066

 maximum number of plane-waves:   1624525
 maximum index in each direction: 
   IXMAX=   72   IYMAX=   72   IZMAX=   72
   IXMIN=  -72   IYMIN=  -72   IZMIN=  -72


 real space projection operators:
  total allocation   :       2859.00 KBytes
  max/ min on nodes  :         83.63         23.78


 parallel 3D FFT for wavefunctions:
    minimum data exchange during FFTs selected (reduces bandwidth)
 parallel 3D FFT for charge:
    minimum data exchange during FFTs selected (reduces bandwidth)


 total amount of memory used by VASP MPI-rank0   521226. kBytes
=======================================================================

   base      :      30000. kBytes
   nonlr-proj:       1363. kBytes
   fftplans  :     128466. kBytes
   grid      :     311978. kBytes
   one-center:          6. kBytes
   wavefun   :      49413. kBytes
 
     INWAV:  cpu time    7.8271: real time    9.4978
 Broyden mixing: mesh for mixing (old mesh)
   NGX =145   NGY =145   NGZ =145
  (NGX  =588   NGY  =588   NGZ  =588)
  gives a total of ****** points

 initial charge density was supplied:
 charge density of overlapping atoms calculated
 number of electron      62.0000000 magnetization      26.0000000
 keeping initial charge density in first step


--------------------------------------------------------------------------------------------------------


 Maximum index for non-local projection operator          188
 Maximum index for augmentation-charges          159 (set IRDMAX)


--------------------------------------------------------------------------------------------------------


 First call to EWALD:  gamma=   0.044
 Maximum number of real-space cells 3x 3x 3
 Maximum number of reciprocal cells 3x 3x 3

    FEWALD:  cpu time    0.0010: real time    0.0010


--------------------------------------- Iteration      1(   1)  ---------------------------------------


    POTLOK:  cpu time  129.9826: real time  130.7019
    SETDIJ:  cpu time    0.0402: real time    0.0404
     EDDAV:  cpu time   17.7427: real time   17.8634
       DOS:  cpu time    0.0002: real time    0.0002
    CHARGE:  cpu time    1.3329: real time    1.3408
    MIXING:  cpu time    0.1070: real time    0.1076
    --------------------------------------------
      LOOP:  cpu time  149.2056: real time  150.0543

 eigenvalue-minimisations  :   312
 total energy-change (2. order) :-0.1376270E+03  (-0.1211517E+02)
 number of electron      61.0000005 magnetization      25.0368054
 augmentation part        1.5536628 magnetization      24.1293283

 Broyden mixing:
  rms(total) = 0.31903E+01    rms(broyden)= 0.31900E+01
  rms(prec ) = 0.32218E+01
  weight for this iteration     100.00

 Free energy of the ion-electron system (eV)
  ---------------------------------------------------
  alpha Z        PSCENC =         0.27177942
  Ewald energy   TEWEN  =      7140.87449808
  -Hartree energ DENC   =     -8369.96737883
  -exchange      EXHF   =         0.00000000
  -V(xc)+E(xc)   XCENC  =       196.12133727
  PAW double counting   =      1325.84619282    -1332.69001867
  entropy T*S    EENTRO =        -0.00000000
  eigenvalues    EBANDS =     -1028.32435502
  atomic energy  EATOM  =      1940.59107836
  Solvation  Ediel_sol  =       -10.35017550
  ---------------------------------------------------
  free energy    TOTEN  =      -137.62704208 eV

  energy without entropy =     -137.62704208  energy(sigma->0) =     -137.62704208


--------------------------------------------------------------------------------------------------------




--------------------------------------- Iteration      1(   2)  ---------------------------------------


    POTLOK:  cpu time  123.2884: real time  123.8991
    SETDIJ:  cpu time    0.0370: real time    0.0372
    EDDIAG:  cpu time    3.0787: real time    3.0985
  RMM-DIIS:  cpu time   12.1851: real time   12.2595
    ORTHCH:  cpu time    0.0552: real time    0.0556
       DOS:  cpu time    0.0002: real time    0.0002
    CHARGE:  cpu time    1.3166: real time    1.3245
    MIXING:  cpu time    0.1070: real time    0.1091
    --------------------------------------------
      LOOP:  cpu time  140.0682: real time  140.7837

 eigenvalue-minimisations  :   228
 total energy-change (2. order) : 0.6482516E+02  (-0.1467995E+02)
 number of electron      61.0000005 magnetization      23.9850207
 augmentation part        1.5526265 magnetization      22.9586603

 Broyden mixing:
  rms(total) = 0.16278E+01    rms(broyden)= 0.16276E+01
  rms(prec ) = 0.16513E+01
  weight for this iteration     100.00

 eigenvalues of (default mixing * dielectric matrix)
  average eigenvalue GAMMA=   0.9602
  0.9602

 Free energy of the ion-electron system (eV)
  ---------------------------------------------------
  alpha Z        PSCENC =         0.27177942
  Ewald energy   TEWEN  =      7140.87449808
  -Hartree energ DENC   =     -8472.08728121
  -exchange      EXHF   =         0.00000000
  -V(xc)+E(xc)   XCENC  =       259.96097268
  PAW double counting   =      2506.99172743    -2515.04681461
  entropy T*S    EENTRO =        -0.00000000
  eigenvalues    EBANDS =      -897.30808555
  atomic energy  EATOM  =      1940.59107836
  Solvation  Ediel_sol  =       -37.04975427
  ---------------------------------------------------
  free energy    TOTEN  =       -72.80187969 eV

  energy without entropy =      -72.80187969  energy(sigma->0) =      -72.80187969


--------------------------------------------------------------------------------------------------------




--------------------------------------- Iteration      1(   3)  ---------------------------------------


    POTLOK:  cpu time  121.9706: real time  122.5708
    SETDIJ:  cpu time    0.0392: real time    0.0395
    EDDIAG:  cpu time    3.0619: real time    3.0811
  RMM-DIIS:  cpu time   12.1271: real time   12.2001
    ORTHCH:  cpu time    0.0554: real time    0.0558
       DOS:  cpu time    0.0002: real time    0.0002
    CHARGE:  cpu time    1.3218: real time    1.3297
    MIXING:  cpu time    0.1107: real time    0.1113
    --------------------------------------------
      LOOP:  cpu time  138.6869: real time  139.3885

 eigenvalue-minimisations  :   228
 total energy-change (2. order) :-0.4044542E+02  (-0.4015150E+01)
 number of electron      61.0000004 magnetization      22.8600255
 augmentation part        1.4888525 magnetization      21.8232516

 Broyden mixing:
  rms(total) = 0.10059E+01    rms(broyden)= 0.10058E+01
  rms(prec ) = 0.10138E+01
  weight for this iteration     100.00

 eigenvalues of (default mixing * dielectric matrix)
  average eigenvalue GAMMA=   1.0552
  1.3209  0.7896

 Free energy of the ion-electron system (eV)
  ---------------------------------------------------
  alpha Z        PSCENC =         0.27177942
  Ewald energy   TEWEN  =      7140.87449808
  -Hartree energ DENC   =     -8545.13583782
  -exchange      EXHF   =         0.00000000
  -V(xc)+E(xc)   XCENC  =       230.73267625
  PAW double counting   =      3575.46678123    -3584.16648608
  entropy T*S    EENTRO =        -0.00000000
  eigenvalues    EBANDS =      -807.18961795
  atomic energy  EATOM  =      1940.59107836
  Solvation  Ediel_sol  =       -64.69216642
  ---------------------------------------------------
  free energy    TOTEN  =      -113.24729493 eV

  energy without entropy =     -113.24729493  energy(sigma->0) =     -113.24729493


--------------------------------------------------------------------------------------------------------




--------------------------------------- Iteration      1(   4)  ---------------------------------------


    POTLOK:  cpu time  123.3394: real time  123.9951
    SETDIJ:  cpu time    0.0396: real time    0.0399
    EDDIAG:  cpu time    3.0654: real time    3.0838
  RMM-DIIS:  cpu time   12.2081: real time   12.2781
    ORTHCH:  cpu time    0.0551: real time    0.0554
       DOS:  cpu time    0.0002: real time    0.0002
    CHARGE:  cpu time    1.3206: real time    1.3283
    MIXING:  cpu time    0.1140: real time    0.1146
    --------------------------------------------
      LOOP:  cpu time  140.1425: real time  140.8954

 eigenvalue-minimisations  :   228
 total energy-change (2. order) :-0.8587807E+01  (-0.6988986E+00)
 number of electron      61.0000004 magnetization      21.4165821
 augmentation part        1.4555828 magnetization      20.3906944

 Broyden mixing:
  rms(total) = 0.64111E+00    rms(broyden)= 0.64107E+00
  rms(prec ) = 0.64557E+00
  weight for this iteration     100.00

 eigenvalues of (default mixing * dielectric matrix)
  average eigenvalue GAMMA=   1.2422
  1.9151  1.1151  0.6962

 Free energy of the ion-electron system (eV)
  ---------------------------------------------------
  alpha Z        PSCENC =         0.27177942
  Ewald energy   TEWEN  =      7140.87449808
  -Hartree energ DENC   =     -8571.07497445
  -exchange      EXHF   =         0.00000000
  -V(xc)+E(xc)   XCENC  =       225.99345720
  PAW double counting   =      4388.94160989    -4397.74855459
  entropy T*S    EENTRO =        -0.00000000
  eigenvalues    EBANDS =      -760.20441286
  atomic energy  EATOM  =      1940.59107836
  Solvation  Ediel_sol  =       -89.47958248
  ---------------------------------------------------
  free energy    TOTEN  =      -121.83510144 eV

  energy without entropy =     -121.83510144  energy(sigma->0) =     -121.83510144


--------------------------------------------------------------------------------------------------------




--------------------------------------- Iteration      1(   5)  ---------------------------------------


    POTLOK:  cpu time  123.2730: real time  123.9385
    SETDIJ:  cpu time    0.0390: real time    0.0393
    EDDIAG:  cpu time    3.0661: real time    3.0852
  RMM-DIIS:  cpu time   12.1187: real time   12.1918
    ORTHCH:  cpu time    0.0623: real time    0.0627
       DOS:  cpu time    0.0002: real time    0.0002
    CHARGE:  cpu time    1.3190: real time    1.3269
    MIXING:  cpu time    0.1207: real time    0.1213
    --------------------------------------------
      LOOP:  cpu time  139.9990: real time  140.7658

 eigenvalue-minimisations  :   228
 total energy-change (2. order) :-0.1575465E+02  (-0.7470792E+00)
 number of electron      61.0000004 magnetization      20.2465501
 augmentation part        1.4374303 magnetization      19.2382206

 Broyden mixing:
  rms(total) = 0.38549E+00    rms(broyden)= 0.38548E+00
  rms(prec ) = 0.38803E+00
  weight for this iteration     100.00

 eigenvalues of (default mixing * dielectric matrix)
  average eigenvalue GAMMA=   1.3018
  2.1743  1.5293  0.8500  0.6536

 Free energy of the ion-electron system (eV)
  ---------------------------------------------------
  alpha Z        PSCENC =         0.27177942
  Ewald energy   TEWEN  =      7140.87449808
  -Hartree energ DENC   =     -8570.76131896
  -exchange      EXHF   =         0.00000000
  -V(xc)+E(xc)   XCENC  =       214.88978862
  PAW double counting   =      4959.64695806    -4968.32901445
  entropy T*S    EENTRO =        -0.00000000
  eigenvalues    EBANDS =      -742.85222408
  atomic energy  EATOM  =      1940.59107836
  Solvation  Ediel_sol  =      -111.92129974
  ---------------------------------------------------
  free energy    TOTEN  =      -137.58975469 eV

  energy without entropy =     -137.58975469  energy(sigma->0) =     -137.58975469


--------------------------------------------------------------------------------------------------------




--------------------------------------- Iteration      1(   6)  ---------------------------------------


    POTLOK:  cpu time  118.8199: real time  119.4561
    SETDIJ:  cpu time    0.0404: real time    0.0407
    EDDIAG:  cpu time    3.0655: real time    3.0849
  RMM-DIIS:  cpu time   12.1257: real time   12.2003
    ORTHCH:  cpu time    0.0552: real time    0.0556
       DOS:  cpu time    0.0002: real time    0.0002
    CHARGE:  cpu time    1.3263: real time    1.3343
    MIXING:  cpu time    0.1304: real time    0.1321
    --------------------------------------------
      LOOP:  cpu time  135.5636: real time  136.3043

 eigenvalue-minimisations  :   228
 total energy-change (2. order) :-0.6257943E+01  (-0.2533169E+00)
 number of electron      61.0000004 magnetization      18.9125234
 augmentation part        1.4306261 magnetization      17.9221004

 Broyden mixing:
  rms(total) = 0.28669E+00    rms(broyden)= 0.28668E+00
  rms(prec ) = 0.28881E+00
  weight for this iteration     100.00

 eigenvalues of (default mixing * dielectric matrix)
  average eigenvalue GAMMA=   1.2856
  2.2430  1.8274  0.8638  0.8638  0.6302

 Free energy of the ion-electron system (eV)
  ---------------------------------------------------
  alpha Z        PSCENC =         0.27177942
  Ewald energy   TEWEN  =      7140.87449808
  -Hartree energ DENC   =     -8560.29703928
  -exchange      EXHF   =         0.00000000
  -V(xc)+E(xc)   XCENC  =       210.24074100
  PAW double counting   =      5107.92784084    -5116.50516890
  entropy T*S    EENTRO =        -0.00000000
  eigenvalues    EBANDS =      -744.60604674
  atomic energy  EATOM  =      1940.59107836
  Solvation  Ediel_sol  =      -122.34538024
  ---------------------------------------------------
  free energy    TOTEN  =      -143.84769746 eV

  energy without entropy =     -143.84769746  energy(sigma->0) =     -143.84769746


--------------------------------------------------------------------------------------------------------




--------------------------------------- Iteration      1(   7)  ---------------------------------------


    POTLOK:  cpu time  114.4611: real time  115.0274
    SETDIJ:  cpu time    0.0387: real time    0.0389
    EDDIAG:  cpu time    3.0748: real time    3.0934
  RMM-DIIS:  cpu time   12.1508: real time   12.2197
    ORTHCH:  cpu time    0.0547: real time    0.0550
       DOS:  cpu time    0.0002: real time    0.0002
    CHARGE:  cpu time    1.3249: real time    1.3338
    MIXING:  cpu time    0.1338: real time    0.1344
    --------------------------------------------
      LOOP:  cpu time  131.2389: real time  131.9028

 eigenvalue-minimisations  :   228
 total energy-change (2. order) :-0.3471987E+01  (-0.1271051E+00)
 number of electron      61.0000004 magnetization      16.6135296
 augmentation part        1.4270842 magnetization      15.6350209

 Broyden mixing:
  rms(total) = 0.22170E+00    rms(broyden)= 0.22169E+00
  rms(prec ) = 0.22337E+00
  weight for this iteration     100.00

 eigenvalues of (default mixing * dielectric matrix)
  average eigenvalue GAMMA=   1.4613
  2.6118  2.4109  1.3622  0.9882  0.7683  0.6264

 Free energy of the ion-electron system (eV)
  ---------------------------------------------------
  alpha Z        PSCENC =         0.27177942
  Ewald energy   TEWEN  =      7140.87449808
  -Hartree energ DENC   =     -8546.07722124
  -exchange      EXHF   =         0.00000000
  -V(xc)+E(xc)   XCENC  =       207.39723130
  PAW double counting   =      5086.15102913    -5094.67656568
  entropy T*S    EENTRO =        -0.00000000
  eigenvalues    EBANDS =      -752.37018517
  atomic energy  EATOM  =      1940.59107836
  Solvation  Ediel_sol  =      -129.48132881
  ---------------------------------------------------
  free energy    TOTEN  =      -147.31968462 eV

  energy without entropy =     -147.31968462  energy(sigma->0) =     -147.31968462


--------------------------------------------------------------------------------------------------------




--------------------------------------- Iteration      1(   8)  ---------------------------------------


    POTLOK:  cpu time  115.5607: real time  116.1506
    SETDIJ:  cpu time    0.0380: real time    0.0382
    EDDIAG:  cpu time    3.0676: real time    3.0860
  RMM-DIIS:  cpu time   12.1754: real time   12.2458
    ORTHCH:  cpu time    0.0545: real time    0.0548
       DOS:  cpu time    0.0002: real time    0.0002
    CHARGE:  cpu time    1.3189: real time    1.3265
    MIXING:  cpu time    0.1409: real time    0.1416
    --------------------------------------------
      LOOP:  cpu time  132.3561: real time  133.0437

 eigenvalue-minimisations  :   228
 total energy-change (2. order) :-0.3934595E+01  (-0.1791950E+00)
 number of electron      61.0000004 magnetization      14.7638642
 augmentation part        1.4241381 magnetization      13.7976315

 Broyden mixing:
  rms(total) = 0.14104E+00    rms(broyden)= 0.14103E+00
  rms(prec ) = 0.14228E+00
  weight for this iteration     100.00

 eigenvalues of (default mixing * dielectric matrix)
  average eigenvalue GAMMA=   1.6102
  4.2525  2.2584  1.5892  0.8890  0.8890  0.6280  0.7654

 Free energy of the ion-electron system (eV)
  ---------------------------------------------------
  alpha Z        PSCENC =         0.27177942
  Ewald energy   TEWEN  =      7140.87449808
  -Hartree energ DENC   =     -8523.86084905
  -exchange      EXHF   =         0.00000000
  -V(xc)+E(xc)   XCENC  =       203.94543562
  PAW double counting   =      5014.40576091    -5022.89844457
  entropy T*S    EENTRO =        -0.00000000
  eigenvalues    EBANDS =      -764.35389957
  atomic energy  EATOM  =      1940.59107836
  Solvation  Ediel_sol  =      -140.22963899
  ---------------------------------------------------
  free energy    TOTEN  =      -151.25427979 eV

  energy without entropy =     -151.25427979  energy(sigma->0) =     -151.25427979


--------------------------------------------------------------------------------------------------------




--------------------------------------- Iteration      1(   9)  ---------------------------------------


    POTLOK:  cpu time  116.1349: real time  116.7267
    SETDIJ:  cpu time    0.0388: real time    0.0390
    EDDIAG:  cpu time    3.0699: real time    3.0880
  RMM-DIIS:  cpu time   12.1627: real time   12.2317
    ORTHCH:  cpu time    0.0549: real time    0.0553
       DOS:  cpu time    0.0002: real time    0.0002
    CHARGE:  cpu time    1.3241: real time    1.3317
    MIXING:  cpu time    0.1503: real time    0.1511
    --------------------------------------------
      LOOP:  cpu time  132.9357: real time  133.6237

 eigenvalue-minimisations  :   228
 total energy-change (2. order) :-0.1326955E+01  (-0.7286796E-01)
 number of electron      61.0000004 magnetization      13.3741380
 augmentation part        1.4213276 magnetization      12.4161728

 Broyden mixing:
  rms(total) = 0.98063E-01    rms(broyden)= 0.98058E-01
  rms(prec ) = 0.98994E-01
  weight for this iteration     100.00

 eigenvalues of (default mixing * dielectric matrix)
  average eigenvalue GAMMA=   1.7327
  5.6546  2.0726  1.8906  0.9850  0.9850  0.9504  0.6241  0.6989

 Free energy of the ion-electron system (eV)
  ---------------------------------------------------
  alpha Z        PSCENC =         0.27177942
  Ewald energy   TEWEN  =      7140.87449808
  -Hartree energ DENC   =     -8509.32440397
  -exchange      EXHF   =         0.00000000
  -V(xc)+E(xc)   XCENC  =       202.70430982
  PAW double counting   =      4975.22839906    -4983.73594134
  entropy T*S    EENTRO =        -0.00000000
  eigenvalues    EBANDS =      -771.01167906
  atomic energy  EATOM  =      1940.59107836
  Solvation  Ediel_sol  =      -148.17927549
  ---------------------------------------------------
  free energy    TOTEN  =      -152.58123512 eV

  energy without entropy =     -152.58123512  energy(sigma->0) =     -152.58123512


--------------------------------------------------------------------------------------------------------




--------------------------------------- Iteration      1(  10)  ---------------------------------------


    POTLOK:  cpu time  114.2689: real time  114.8923
    SETDIJ:  cpu time    0.0390: real time    0.0392
    EDDIAG:  cpu time    3.0632: real time    3.0825
  RMM-DIIS:  cpu time   12.1643: real time   12.2383
    ORTHCH:  cpu time    0.0549: real time    0.0553
       DOS:  cpu time    0.0002: real time    0.0002
    CHARGE:  cpu time    1.3236: real time    1.3316
    MIXING:  cpu time    0.1578: real time    0.1587
    --------------------------------------------
      LOOP:  cpu time  131.0717: real time  131.7982

 eigenvalue-minimisations  :   228
 total energy-change (2. order) :-0.5160797E+00  (-0.1752410E-01)
 number of electron      61.0000004 magnetization      11.8151105
 augmentation part        1.4200364 magnetization      10.8621699

 Broyden mixing:
  rms(total) = 0.73904E-01    rms(broyden)= 0.73901E-01
  rms(prec ) = 0.74479E-01
  weight for this iteration     100.00

 eigenvalues of (default mixing * dielectric matrix)
  average eigenvalue GAMMA=   1.8490
  6.7603  2.1938  2.1938  1.4470  0.9687  0.9687  0.8151  0.6722  0.6218

 Free energy of the ion-electron system (eV)
  ---------------------------------------------------
  alpha Z        PSCENC =         0.27177942
  Ewald energy   TEWEN  =      7140.87449808
  -Hartree energ DENC   =     -8499.66433526
  -exchange      EXHF   =         0.00000000
  -V(xc)+E(xc)   XCENC  =       202.10978408
  PAW double counting   =      4950.01638872    -4958.53846385
  entropy T*S    EENTRO =        -0.00000000
  eigenvalues    EBANDS =      -775.44722053
  atomic energy  EATOM  =      1940.59107836
  Solvation  Ediel_sol  =      -153.31082383
  ---------------------------------------------------
  free energy    TOTEN  =      -153.09731482 eV

  energy without entropy =     -153.09731482  energy(sigma->0) =     -153.09731482


--------------------------------------------------------------------------------------------------------




--------------------------------------- Iteration      1(  11)  ---------------------------------------


    POTLOK:  cpu time  115.7440: real time  116.3621
    SETDIJ:  cpu time    0.0405: real time    0.0408
    EDDIAG:  cpu time    3.0713: real time    3.0909
  RMM-DIIS:  cpu time   12.1409: real time   12.2143
    ORTHCH:  cpu time    0.0549: real time    0.0553
       DOS:  cpu time    0.0002: real time    0.0002
    CHARGE:  cpu time    1.3253: real time    1.3333
    MIXING:  cpu time    0.1677: real time    0.1686
    --------------------------------------------
      LOOP:  cpu time  132.5448: real time  133.2654

 eigenvalue-minimisations  :   228
 total energy-change (2. order) :-0.5872380E+00  (-0.7504090E-02)
 number of electron      61.0000004 magnetization      10.5409129
 augmentation part        1.4198869 magnetization       9.5908207

 Broyden mixing:
  rms(total) = 0.54768E-01    rms(broyden)= 0.54766E-01
  rms(prec ) = 0.55043E-01
  weight for this iteration     100.00

 eigenvalues of (default mixing * dielectric matrix)
  average eigenvalue GAMMA=   1.9213
  7.5581  2.5061  2.5061  1.5878  1.0080  1.0080  0.9919  0.7720  0.6513  0.6235

 Free energy of the ion-electron system (eV)
  ---------------------------------------------------
  alpha Z        PSCENC =         0.27177942
  Ewald energy   TEWEN  =      7140.87449808
  -Hartree energ DENC   =     -8490.72406034
  -exchange      EXHF   =         0.00000000
  -V(xc)+E(xc)   XCENC  =       201.43667829
  PAW double counting   =      4939.16977816    -4947.70012353
  entropy T*S    EENTRO =        -0.00000000
  eigenvalues    EBANDS =      -779.18509992
  atomic energy  EATOM  =      1940.59107836
  Solvation  Ediel_sol  =      -158.41908136
  ---------------------------------------------------
  free energy    TOTEN  =      -153.68455284 eV

  energy without entropy =     -153.68455284  energy(sigma->0) =     -153.68455284


--------------------------------------------------------------------------------------------------------




--------------------------------------- Iteration      1(  12)  ---------------------------------------


    POTLOK:  cpu time  111.4471: real time  112.0438
    SETDIJ:  cpu time    0.0396: real time    0.0398
    EDDIAG:  cpu time    3.0753: real time    3.0943
  RMM-DIIS:  cpu time   12.2003: real time   12.2769
    ORTHCH:  cpu time    0.0552: real time    0.0555
       DOS:  cpu time    0.0002: real time    0.0002
    CHARGE:  cpu time    1.3228: real time    1.3308
    MIXING:  cpu time    0.1755: real time    0.1766
    --------------------------------------------
      LOOP:  cpu time  128.3160: real time  129.0179

 eigenvalue-minimisations  :   229
 total energy-change (2. order) :-0.1508856E+00  (-0.1994252E-02)
 number of electron      61.0000004 magnetization       9.0922205
 augmentation part        1.4196222 magnetization       8.1430800

 Broyden mixing:
  rms(total) = 0.43276E-01    rms(broyden)= 0.43276E-01
  rms(prec ) = 0.43383E-01
  weight for this iteration     100.00

 eigenvalues of (default mixing * dielectric matrix)
  average eigenvalue GAMMA=   2.0198
  8.4798  3.4667  2.0532  2.0532  1.2971  0.9813  0.9813  0.8970  0.7432  0.6236
  0.6410

 Free energy of the ion-electron system (eV)
  ---------------------------------------------------
  alpha Z        PSCENC =         0.27177942
  Ewald energy   TEWEN  =      7140.87449808
  -Hartree energ DENC   =     -8485.77860559
  -exchange      EXHF   =         0.00000000
  -V(xc)+E(xc)   XCENC  =       201.25234583
  PAW double counting   =      4947.96776600    -4956.49979848
  entropy T*S    EENTRO =        -0.00000000
  eigenvalues    EBANDS =      -780.19959497
  atomic energy  EATOM  =      1940.59107836
  Solvation  Ediel_sol  =      -162.31490708
  ---------------------------------------------------
  free energy    TOTEN  =      -153.83543842 eV

  energy without entropy =     -153.83543842  energy(sigma->0) =     -153.83543842


--------------------------------------------------------------------------------------------------------




--------------------------------------- Iteration      1(  13)  ---------------------------------------


    POTLOK:  cpu time  108.6901: real time  109.2514
    SETDIJ:  cpu time    0.0397: real time    0.0399
    EDDIAG:  cpu time    3.0709: real time    3.0904
  RMM-DIIS:  cpu time   12.1921: real time   12.2667
    ORTHCH:  cpu time    0.0589: real time    0.0593
       DOS:  cpu time    0.0002: real time    0.0002
    CHARGE:  cpu time    1.3323: real time    1.3404
    MIXING:  cpu time    0.1857: real time    0.1869
    --------------------------------------------
      LOOP:  cpu time  125.5699: real time  126.2352

 eigenvalue-minimisations  :   229
 total energy-change (2. order) :-0.1476286E+00  (-0.7406027E-03)
 number of electron      61.0000004 magnetization       8.0840082
 augmentation part        1.4198620 magnetization       7.1353556

 Broyden mixing:
  rms(total) = 0.34312E-01    rms(broyden)= 0.34312E-01
  rms(prec ) = 0.34368E-01
  weight for this iteration     100.00

 eigenvalues of (default mixing * dielectric matrix)
  average eigenvalue GAMMA=   2.0989
  9.2244  4.2848  2.2099  2.2099  1.4372  1.0345  1.0345  0.9436  0.8336  0.7147
  0.6226  0.6366

 Free energy of the ion-electron system (eV)
  ---------------------------------------------------
  alpha Z        PSCENC =         0.27177942
  Ewald energy   TEWEN  =      7140.87449808
  -Hartree energ DENC   =     -8481.28320325
  -exchange      EXHF   =         0.00000000
  -V(xc)+E(xc)   XCENC  =       201.05467005
  PAW double counting   =      4955.43911884    -4963.96288649
  entropy T*S    EENTRO =        -0.00000000
  eigenvalues    EBANDS =      -780.75897545
  atomic energy  EATOM  =      1940.59107836
  Solvation  Ediel_sol  =      -166.20914654
  ---------------------------------------------------
  free energy    TOTEN  =      -153.98306698 eV

  energy without entropy =     -153.98306698  energy(sigma->0) =     -153.98306698


--------------------------------------------------------------------------------------------------------




--------------------------------------- Iteration      1(  14)  ---------------------------------------


    POTLOK:  cpu time  108.4100: real time  108.9540
    SETDIJ:  cpu time    0.0399: real time    0.0402
    EDDIAG:  cpu time    3.0707: real time    3.0898
  RMM-DIIS:  cpu time   12.1362: real time   12.2052
    ORTHCH:  cpu time    0.0551: real time    0.0554
       DOS:  cpu time    0.0002: real time    0.0002
    CHARGE:  cpu time    1.3271: real time    1.3348
    MIXING:  cpu time    0.1994: real time    0.2005
    --------------------------------------------
      LOOP:  cpu time  125.2386: real time  125.8800

 eigenvalue-minimisations  :   228
 total energy-change (2. order) :-0.5301865E-01  (-0.1242728E-03)
 number of electron      61.0000004 magnetization       6.6141675
 augmentation part        1.4199781 magnetization       5.6656702

 Broyden mixing:
  rms(total) = 0.29522E-01    rms(broyden)= 0.29522E-01
  rms(prec ) = 0.29557E-01
  weight for this iteration     100.00

 eigenvalues of (default mixing * dielectric matrix)
  average eigenvalue GAMMA=   2.1484
  9.7636  4.9026  2.2514  2.2514  1.7713  1.2070  1.0181  1.0181  0.9825  0.8034
  0.7046  0.6236  0.6316

 Free energy of the ion-electron system (eV)
  ---------------------------------------------------
  alpha Z        PSCENC =         0.27177942
  Ewald energy   TEWEN  =      7140.87449808
  -Hartree energ DENC   =     -8479.62851905
  -exchange      EXHF   =         0.00000000
  -V(xc)+E(xc)   XCENC  =       200.99678127
  PAW double counting   =      4961.72153013    -4970.24261096
  entropy T*S    EENTRO =        -0.00000000
  eigenvalues    EBANDS =      -780.37309648
  atomic energy  EATOM  =      1940.59107836
  Solvation  Ediel_sol  =      -168.24752639
  ---------------------------------------------------
  free energy    TOTEN  =      -154.03608562 eV

  energy without entropy =     -154.03608562  energy(sigma->0) =     -154.03608562


--------------------------------------------------------------------------------------------------------




--------------------------------------- Iteration      1(  15)  ---------------------------------------


    POTLOK:  cpu time  109.8147: real time  110.4072
    SETDIJ:  cpu time    0.0389: real time    0.0391
    EDDIAG:  cpu time    3.0737: real time    3.0929
  RMM-DIIS:  cpu time   12.1479: real time   12.2210
    ORTHCH:  cpu time    0.0550: real time    0.0553
       DOS:  cpu time    0.0002: real time    0.0002
    CHARGE:  cpu time    1.3292: real time    1.3375
    MIXING:  cpu time    0.2122: real time    0.2135
    --------------------------------------------
      LOOP:  cpu time  126.6718: real time  127.3669

 eigenvalue-minimisations  :   228
 total energy-change (2. order) :-0.3402966E-01  (-0.1504676E-03)
 number of electron      61.0000004 magnetization       5.3923521
 augmentation part        1.4198086 magnetization       4.4438393

 Broyden mixing:
  rms(total) = 0.24116E-01    rms(broyden)= 0.24116E-01
  rms(prec ) = 0.24158E-01
  weight for this iteration     100.00

 eigenvalues of (default mixing * dielectric matrix)
  average eigenvalue GAMMA=   2.2143
 10.4346  5.5348  2.8326  2.1162  2.1162  1.3776  1.0394  1.0394  0.8936  0.8936
  0.7703  0.6999  0.6247  0.6270

 Free energy of the ion-electron system (eV)
  ---------------------------------------------------
  alpha Z        PSCENC =         0.27177942
  Ewald energy   TEWEN  =      7140.87449808
  -Hartree energ DENC   =     -8478.83113467
  -exchange      EXHF   =         0.00000000
  -V(xc)+E(xc)   XCENC  =       200.98352690
  PAW double counting   =      4965.96487593    -4974.48949995
  entropy T*S    EENTRO =        -0.00000000
  eigenvalues    EBANDS =      -779.40452092
  atomic energy  EATOM  =      1940.59107836
  Solvation  Ediel_sol  =      -170.03071843
  ---------------------------------------------------
  free energy    TOTEN  =      -154.07011528 eV

  energy without entropy =     -154.07011528  energy(sigma->0) =     -154.07011528


--------------------------------------------------------------------------------------------------------




--------------------------------------- Iteration      1(  16)  ---------------------------------------


    POTLOK:  cpu time  107.1471: real time  107.7287
    SETDIJ:  cpu time    0.0403: real time    0.0406
    EDDIAG:  cpu time    3.0633: real time    3.0831
  RMM-DIIS:  cpu time   12.1702: real time   12.2442
    ORTHCH:  cpu time    0.0548: real time    0.0552
       DOS:  cpu time    0.0002: real time    0.0002
    CHARGE:  cpu time    1.3156: real time    1.3235
    MIXING:  cpu time    0.2295: real time    0.2309
    --------------------------------------------
      LOOP:  cpu time  124.0211: real time  124.7063

 eigenvalue-minimisations  :   228
 total energy-change (2. order) :-0.1872877E-01  (-0.7646782E-04)
 number of electron      61.0000004 magnetization       3.6956379
 augmentation part        1.4198117 magnetization       2.7472054

 Broyden mixing:
  rms(total) = 0.19680E-01    rms(broyden)= 0.19680E-01
  rms(prec ) = 0.19727E-01
  weight for this iteration     100.00

 eigenvalues of (default mixing * dielectric matrix)
  average eigenvalue GAMMA=   2.3223
 11.2227  6.4384  3.5230  2.1241  2.1241  1.5908  1.1990  1.0411  1.0411  0.9853
  0.8653  0.7464  0.6853  0.6208  0.6276

 Free energy of the ion-electron system (eV)
  ---------------------------------------------------
  alpha Z        PSCENC =         0.27177942
  Ewald energy   TEWEN  =      7140.87449808
  -Hartree energ DENC   =     -8478.42285360
  -exchange      EXHF   =         0.00000000
  -V(xc)+E(xc)   XCENC  =       200.95950983
  PAW double counting   =      4960.68638249    -4969.21148875
  entropy T*S    EENTRO =        -0.00000000
  eigenvalues    EBANDS =      -779.25702581
  atomic energy  EATOM  =      1940.59107836
  Solvation  Ediel_sol  =      -170.58072406
  ---------------------------------------------------
  free energy    TOTEN  =      -154.08884405 eV

  energy without entropy =     -154.08884405  energy(sigma->0) =     -154.08884405


--------------------------------------------------------------------------------------------------------




--------------------------------------- Iteration      1(  17)  ---------------------------------------


    POTLOK:  cpu time  103.5332: real time  104.0455
    SETDIJ:  cpu time    0.0396: real time    0.0398
    EDDIAG:  cpu time    3.0677: real time    3.0865
  RMM-DIIS:  cpu time   12.1932: real time   12.2634
    ORTHCH:  cpu time    0.0551: real time    0.0555
       DOS:  cpu time    0.0002: real time    0.0002
    CHARGE:  cpu time    1.3229: real time    1.3306
    MIXING:  cpu time    0.2383: real time    0.2397
    --------------------------------------------
      LOOP:  cpu time  120.4501: real time  121.0610

 eigenvalue-minimisations  :   228
 total energy-change (2. order) :-0.1143512E-01  (-0.1811566E-03)
 number of electron      61.0000004 magnetization       2.5846397
 augmentation part        1.4199036 magnetization       1.6363549

 Broyden mixing:
  rms(total) = 0.14151E-01    rms(broyden)= 0.14151E-01
  rms(prec ) = 0.14232E-01
  weight for this iteration     100.00

 eigenvalues of (default mixing * dielectric matrix)
  average eigenvalue GAMMA=   2.4500
 12.5269  7.5302  4.0733  2.2825  2.2825  1.7685  1.2988  1.0405  1.0405  0.9273
  0.9273  0.8373  0.7412  0.6783  0.6179  0.6270

 Free energy of the ion-electron system (eV)
  ---------------------------------------------------
  alpha Z        PSCENC =         0.27177942
  Ewald energy   TEWEN  =      7140.87449808
  -Hartree energ DENC   =     -8478.48136432
  -exchange      EXHF   =         0.00000000
  -V(xc)+E(xc)   XCENC  =       200.94555659
  PAW double counting   =      4954.89235953    -4963.41710340
  entropy T*S    EENTRO =        -0.00000000
  eigenvalues    EBANDS =      -779.42499860
  atomic energy  EATOM  =      1940.59107836
  Solvation  Ediel_sol  =      -170.35208483
  ---------------------------------------------------
  free energy    TOTEN  =      -154.10027917 eV

  energy without entropy =     -154.10027917  energy(sigma->0) =     -154.10027917


--------------------------------------------------------------------------------------------------------




--------------------------------------- Iteration      1(  18)  ---------------------------------------


    POTLOK:  cpu time  105.4518: real time  105.9673
    SETDIJ:  cpu time    0.0381: real time    0.0383
    EDDIAG:  cpu time    3.0687: real time    3.0871
  RMM-DIIS:  cpu time   12.1787: real time   12.2481
    ORTHCH:  cpu time    0.0552: real time    0.0555
       DOS:  cpu time    0.0002: real time    0.0002
    CHARGE:  cpu time    1.3216: real time    1.3292
    MIXING:  cpu time    0.2549: real time    0.2563
    --------------------------------------------
      LOOP:  cpu time  122.3692: real time  122.9819

 eigenvalue-minimisations  :   228
 total energy-change (2. order) :-0.1189490E-01  (-0.1045981E-03)
 number of electron      61.0000004 magnetization       1.6886650
 augmentation part        1.4198602 magnetization       0.7404446

 Broyden mixing:
  rms(total) = 0.94585E-02    rms(broyden)= 0.94583E-02
  rms(prec ) = 0.95407E-02
  weight for this iteration     100.00

 eigenvalues of (default mixing * dielectric matrix)
  average eigenvalue GAMMA=   2.6694
 15.4756  8.5350  4.6574  2.4599  2.4599  1.8485  1.3516  1.0548  1.0548  1.1683
  0.9490  0.9490  0.7836  0.7158  0.6745  0.6160  0.6260

 Free energy of the ion-electron system (eV)
  ---------------------------------------------------
  alpha Z        PSCENC =         0.27177942
  Ewald energy   TEWEN  =      7140.87449808
  -Hartree energ DENC   =     -8478.98916607
  -exchange      EXHF   =         0.00000000
  -V(xc)+E(xc)   XCENC  =       200.94324753
  PAW double counting   =      4955.18740917    -4963.71418357
  entropy T*S    EENTRO =        -0.00000000
  eigenvalues    EBANDS =      -779.50860560
  atomic energy  EATOM  =      1940.59107836
  Solvation  Ediel_sol  =      -169.76823138
  ---------------------------------------------------
  free energy    TOTEN  =      -154.11217407 eV

  energy without entropy =     -154.11217407  energy(sigma->0) =     -154.11217407


--------------------------------------------------------------------------------------------------------




--------------------------------------- Iteration      1(  19)  ---------------------------------------


    POTLOK:  cpu time  104.0218: real time  104.5449
    SETDIJ:  cpu time    0.0388: real time    0.0390
    EDDIAG:  cpu time    3.0680: real time    3.0863
  RMM-DIIS:  cpu time   12.1687: real time   12.2377
    ORTHCH:  cpu time    0.0541: real time    0.0544
       DOS:  cpu time    0.0002: real time    0.0002
    CHARGE:  cpu time    1.3229: real time    1.3305
    MIXING:  cpu time    0.2709: real time    0.2724
    --------------------------------------------
      LOOP:  cpu time  120.9454: real time  121.5654

 eigenvalue-minimisations  :   229
 total energy-change (2. order) :-0.2386308E-01  (-0.6943220E-04)
 number of electron      61.0000004 magnetization       1.2846978
 augmentation part        1.4198601 magnetization       0.3364927

 Broyden mixing:
  rms(total) = 0.56805E-02    rms(broyden)= 0.56804E-02
  rms(prec ) = 0.57514E-02
  weight for this iteration     100.00

 eigenvalues of (default mixing * dielectric matrix)
  average eigenvalue GAMMA=   2.9199
 19.9852  9.1908  5.1022  2.9257  2.1827  2.1827  1.5534  1.2001  1.0393  1.0393
  0.9576  0.9576  0.8863  0.7590  0.6878  0.6682  0.6148  0.6255

 Free energy of the ion-electron system (eV)
  ---------------------------------------------------
  alpha Z        PSCENC =         0.27177942
  Ewald energy   TEWEN  =      7140.87449808
  -Hartree energ DENC   =     -8479.52400060
  -exchange      EXHF   =         0.00000000
  -V(xc)+E(xc)   XCENC  =       200.91872842
  PAW double counting   =      4956.24941672    -4964.77550656
  entropy T*S    EENTRO =        -0.00000000
  eigenvalues    EBANDS =      -779.66692821
  atomic energy  EATOM  =      1940.59107836
  Solvation  Ediel_sol  =      -169.07510278
  ---------------------------------------------------
  free energy    TOTEN  =      -154.13603715 eV

  energy without entropy =     -154.13603715  energy(sigma->0) =     -154.13603715


--------------------------------------------------------------------------------------------------------




--------------------------------------- Iteration      1(  20)  ---------------------------------------


    POTLOK:  cpu time   99.3881: real time   99.9249
    SETDIJ:  cpu time    0.0397: real time    0.0399
    EDDIAG:  cpu time    3.0697: real time    3.0894
  RMM-DIIS:  cpu time   11.8399: real time   11.9146
    ORTHCH:  cpu time    0.0596: real time    0.0599
       DOS:  cpu time    0.0002: real time    0.0002
    CHARGE:  cpu time    1.3159: real time    1.3238
    MIXING:  cpu time    0.2833: real time    0.2851
    --------------------------------------------
      LOOP:  cpu time  115.9962: real time  116.6378

 eigenvalue-minimisations  :   222
 total energy-change (2. order) :-0.1328424E-01  (-0.2245238E-04)
 number of electron      61.0000004 magnetization       1.1465587
 augmentation part        1.4198747 magnetization       0.1983699

 Broyden mixing:
  rms(total) = 0.35140E-02    rms(broyden)= 0.35139E-02
  rms(prec ) = 0.35706E-02
  weight for this iteration     100.00

 eigenvalues of (default mixing * dielectric matrix)
  average eigenvalue GAMMA=   2.9983
 22.5122  9.4402  5.2901  3.1640  2.2459  2.2459  1.6027  1.1573  1.1573  1.0570
  1.0570  0.9566  0.9566  0.8242  0.7362  0.6747  0.6135  0.6252  0.6513

 Free energy of the ion-electron system (eV)
  ---------------------------------------------------
  alpha Z        PSCENC =         0.27177942
  Ewald energy   TEWEN  =      7140.87449808
  -Hartree energ DENC   =     -8479.83960054
  -exchange      EXHF   =         0.00000000
  -V(xc)+E(xc)   XCENC  =       200.90405032
  PAW double counting   =      4957.91536150    -4966.43969413
  entropy T*S    EENTRO =        -0.00000000
  eigenvalues    EBANDS =      -779.71294548
  atomic energy  EATOM  =      1940.59107836
  Solvation  Ediel_sol  =      -168.71384890
  ---------------------------------------------------
  free energy    TOTEN  =      -154.14932138 eV

  energy without entropy =     -154.14932138  energy(sigma->0) =     -154.14932138


--------------------------------------------------------------------------------------------------------




--------------------------------------- Iteration      1(  21)  ---------------------------------------


    POTLOK:  cpu time   98.0956: real time   98.6119
    SETDIJ:  cpu time    0.0387: real time    0.0389
    EDDIAG:  cpu time    3.0793: real time    3.0978
  RMM-DIIS:  cpu time   11.7161: real time   11.7833
    ORTHCH:  cpu time    0.0588: real time    0.0592
       DOS:  cpu time    0.0002: real time    0.0002
    CHARGE:  cpu time    1.3342: real time    1.3419
    MIXING:  cpu time    0.3020: real time    0.3038
    --------------------------------------------
      LOOP:  cpu time  114.6249: real time  115.2370

 eigenvalue-minimisations  :   219
 total energy-change (2. order) :-0.9851891E-02  (-0.1604121E-04)
 number of electron      61.0000004 magnetization       1.0544298
 augmentation part        1.4198501 magnetization       0.1062319

 Broyden mixing:
  rms(total) = 0.23710E-02    rms(broyden)= 0.23710E-02
  rms(prec ) = 0.24121E-02
  weight for this iteration     100.00

 eigenvalues of (default mixing * dielectric matrix)
  average eigenvalue GAMMA=   3.0701
 24.4473  9.5986  5.5238  3.4975  2.3579  2.3579  1.8887  1.4778  1.0434  1.0434
  1.1767  0.9740  0.9740  0.9850  0.7911  0.7226  0.6720  0.6126  0.6325  0.6259

 Free energy of the ion-electron system (eV)
  ---------------------------------------------------
  alpha Z        PSCENC =         0.27177942
  Ewald energy   TEWEN  =      7140.87449808
  -Hartree energ DENC   =     -8480.03777963
  -exchange      EXHF   =         0.00000000
  -V(xc)+E(xc)   XCENC  =       200.89602181
  PAW double counting   =      4958.96234648    -4967.48642563
  entropy T*S    EENTRO =        -0.00000000
  eigenvalues    EBANDS =      -779.67305239
  atomic energy  EATOM  =      1940.59107836
  Solvation  Ediel_sol  =      -168.55763977
  ---------------------------------------------------
  free energy    TOTEN  =      -154.15917328 eV

  energy without entropy =     -154.15917328  energy(sigma->0) =     -154.15917328


--------------------------------------------------------------------------------------------------------




--------------------------------------- Iteration      1(  22)  ---------------------------------------


    POTLOK:  cpu time   98.3158: real time   98.8408
    SETDIJ:  cpu time    0.0390: real time    0.0392
    EDDIAG:  cpu time    3.0690: real time    3.0876
  RMM-DIIS:  cpu time   11.2648: real time   11.3296
    ORTHCH:  cpu time    0.0620: real time    0.0624
       DOS:  cpu time    0.0002: real time    0.0002
    CHARGE:  cpu time    1.3115: real time    1.3201
    MIXING:  cpu time    0.3212: real time    0.3242
    --------------------------------------------
      LOOP:  cpu time  114.3834: real time  115.0040

 eigenvalue-minimisations  :   210
 total energy-change (2. order) :-0.1088234E-01  (-0.2024141E-04)
 number of electron      61.0000004 magnetization       1.0291610
 augmentation part        1.4198152 magnetization       0.0809580

 Broyden mixing:
  rms(total) = 0.14423E-02    rms(broyden)= 0.14423E-02
  rms(prec ) = 0.14681E-02
  weight for this iteration     100.00

 eigenvalues of (default mixing * dielectric matrix)
  average eigenvalue GAMMA=   3.0416
 25.1140  9.6517  5.6800  3.7549  2.4335  2.4335  2.0631  1.5239  1.0589  1.0589
  1.1180  1.1180  0.9623  0.9623  0.9119  0.7762  0.7160  0.6700  0.6127  0.6266
  0.6266

 Free energy of the ion-electron system (eV)
  ---------------------------------------------------
  alpha Z        PSCENC =         0.27177942
  Ewald energy   TEWEN  =      7140.87449808
  -Hartree energ DENC   =     -8480.21536800
  -exchange      EXHF   =         0.00000000
  -V(xc)+E(xc)   XCENC  =       200.88671097
  PAW double counting   =      4959.09101476    -4967.61544622
  entropy T*S    EENTRO =        -0.00000000
  eigenvalues    EBANDS =      -779.63747224
  atomic energy  EATOM  =      1940.59107836
  Solvation  Ediel_sol  =      -168.41685074
  ---------------------------------------------------
  free energy    TOTEN  =      -154.17005562 eV

  energy without entropy =     -154.17005562  energy(sigma->0) =     -154.17005562


--------------------------------------------------------------------------------------------------------




--------------------------------------- Iteration      1(  23)  ---------------------------------------


    POTLOK:  cpu time   93.4820: real time   93.9415
    SETDIJ:  cpu time    0.0362: real time    0.0364
    EDDIAG:  cpu time    3.0701: real time    3.0885
  RMM-DIIS:  cpu time   10.7029: real time   10.7635
    ORTHCH:  cpu time    0.0549: real time    0.0552
       DOS:  cpu time    0.0002: real time    0.0002
    CHARGE:  cpu time    1.3259: real time    1.3336
    MIXING:  cpu time    0.3370: real time    0.3389
    --------------------------------------------
      LOOP:  cpu time  109.0091: real time  109.5578

 eigenvalue-minimisations  :   199
 total energy-change (2. order) :-0.4043306E-02  (-0.6122648E-05)
 number of electron      61.0000004 magnetization       1.0109427
 augmentation part        1.4198007 magnetization       0.0627406

 Broyden mixing:
  rms(total) = 0.96239E-03    rms(broyden)= 0.96236E-03
  rms(prec ) = 0.97963E-03
  weight for this iteration     100.00

 eigenvalues of (default mixing * dielectric matrix)
  average eigenvalue GAMMA=   3.0371
 25.5260  9.7086  5.8763  4.1884  2.7634  2.2501  2.2501  1.6860  1.3419  1.3419
  1.0473  1.0473  0.9756  0.9756  1.0055  0.8344  0.7604  0.7087  0.6651  0.6146
  0.6249  0.6249

 Free energy of the ion-electron system (eV)
  ---------------------------------------------------
  alpha Z        PSCENC =         0.27177942
  Ewald energy   TEWEN  =      7140.87449808
  -Hartree energ DENC   =     -8480.28247528
  -exchange      EXHF   =         0.00000000
  -V(xc)+E(xc)   XCENC  =       200.88249345
  PAW double counting   =      4958.81060724    -4967.33511729
  entropy T*S    EENTRO =        -0.00000000
  eigenvalues    EBANDS =      -779.64983085
  atomic energy  EATOM  =      1940.59107836
  Solvation  Ediel_sol  =      -168.33713205
  ---------------------------------------------------
  free energy    TOTEN  =      -154.17409893 eV

  energy without entropy =     -154.17409893  energy(sigma->0) =     -154.17409893


--------------------------------------------------------------------------------------------------------




--------------------------------------- Iteration      1(  24)  ---------------------------------------


    POTLOK:  cpu time   93.7425: real time   94.2432
    SETDIJ:  cpu time    0.0390: real time    0.0392
    EDDIAG:  cpu time    3.0650: real time    3.0839
  RMM-DIIS:  cpu time   10.4553: real time   10.5191
    ORTHCH:  cpu time    0.0549: real time    0.0553
       DOS:  cpu time    0.0002: real time    0.0002
    CHARGE:  cpu time    1.3227: real time    1.3309
    MIXING:  cpu time    0.3598: real time    0.3620
    --------------------------------------------
      LOOP:  cpu time  109.0394: real time  109.6338

 eigenvalue-minimisations  :   194
 total energy-change (2. order) :-0.2017909E-02  (-0.3644372E-05)
 number of electron      61.0000004 magnetization       1.0053471
 augmentation part        1.4197980 magnetization       0.0571430

 Broyden mixing:
  rms(total) = 0.61500E-03    rms(broyden)= 0.61498E-03
  rms(prec ) = 0.62781E-03
  weight for this iteration     100.00

 eigenvalues of (default mixing * dielectric matrix)
  average eigenvalue GAMMA=   3.0204
 25.7632  9.7596  6.1940  4.6932  3.0425  2.3289  2.3289  1.8760  1.4854  1.0638
  1.0638  1.1049  1.1049  1.0108  0.9414  0.9414  0.7999  0.7437  0.6999  0.6595
  0.6259  0.6189  0.6189

 Free energy of the ion-electron system (eV)
  ---------------------------------------------------
  alpha Z        PSCENC =         0.27177942
  Ewald energy   TEWEN  =      7140.87449808
  -Hartree energ DENC   =     -8480.34451999
  -exchange      EXHF   =         0.00000000
  -V(xc)+E(xc)   XCENC  =       200.88006380
  PAW double counting   =      4958.48098454    -4967.00549939
  entropy T*S    EENTRO =        -0.00000000
  eigenvalues    EBANDS =      -779.68548792
  atomic energy  EATOM  =      1940.59107836
  Solvation  Ediel_sol  =      -168.23901373
  ---------------------------------------------------
  free energy    TOTEN  =      -154.17611684 eV

  energy without entropy =     -154.17611684  energy(sigma->0) =     -154.17611684


--------------------------------------------------------------------------------------------------------




--------------------------------------- Iteration      1(  25)  ---------------------------------------


    POTLOK:  cpu time   90.7081: real time   91.1693
    SETDIJ:  cpu time    0.0398: real time    0.0401
    EDDIAG:  cpu time    3.0707: real time    3.0899
  RMM-DIIS:  cpu time    9.3499: real time    9.4066
    ORTHCH:  cpu time    0.0549: real time    0.0552
       DOS:  cpu time    0.0002: real time    0.0002
    CHARGE:  cpu time    1.3258: real time    1.3339
    MIXING:  cpu time    0.3756: real time    0.3780
    --------------------------------------------
      LOOP:  cpu time  104.9249: real time  105.4732

 eigenvalue-minimisations  :   171
 total energy-change (2. order) :-0.3107350E-03  (-0.9173843E-06)
 number of electron      61.0000004 magnetization       1.0026103
 augmentation part        1.4197951 magnetization       0.0544078

 Broyden mixing:
  rms(total) = 0.37340E-03    rms(broyden)= 0.37338E-03
  rms(prec ) = 0.38037E-03
  weight for this iteration     100.00

 eigenvalues of (default mixing * dielectric matrix)
  average eigenvalue GAMMA=   2.9791
 25.8463  9.7844  6.4406  4.9150  3.1718  2.3534  2.3534  1.8696  1.5237  1.2623
  1.2623  1.0539  1.0539  0.9848  0.9848  1.0094  0.9015  0.7879  0.7303  0.6893
  0.6569  0.6256  0.6190  0.6190

 Free energy of the ion-electron system (eV)
  ---------------------------------------------------
  alpha Z        PSCENC =         0.27177942
  Ewald energy   TEWEN  =      7140.87449808
  -Hartree energ DENC   =     -8480.37416001
  -exchange      EXHF   =         0.00000000
  -V(xc)+E(xc)   XCENC  =       200.87953059
  PAW double counting   =      4958.34219810    -4966.86674105
  entropy T*S    EENTRO =        -0.00000000
  eigenvalues    EBANDS =      -779.70025362
  atomic energy  EATOM  =      1940.59107836
  Solvation  Ediel_sol  =      -168.19435744
  ---------------------------------------------------
  free energy    TOTEN  =      -154.17642757 eV

  energy without entropy =     -154.17642757  energy(sigma->0) =     -154.17642757


--------------------------------------------------------------------------------------------------------




[...]
  Ewald energy   TEWEN  =      7135.18033271
  -Hartree energ DENC   =     -8474.95412904
  -exchange      EXHF   =         0.00000000
  -V(xc)+E(xc)   XCENC  =       200.87353608
  PAW double counting   =      4955.74925744    -4964.27278423
  entropy T*S    EENTRO =        -0.00000000
  eigenvalues    EBANDS =      -779.66457075
  atomic energy  EATOM  =      1940.59107836
  Solvation  Ediel_sol  =      -167.96850833
  ---------------------------------------------------
  free energy    TOTEN  =      -154.19400833 eV

  energy without entropy =     -154.19400833  energy(sigma->0) =     -154.19400833


--------------------------------------------------------------------------------------------------------




 average (electrostatic) potential at core
  the test charge radii are     0.6991  0.5201
  (the norm of the test charge is              1.0000)
       1 -59.7333       2 -59.4500       3 -59.7467       4 -59.4910       5 -59.6456
       6 -60.1922       7 -60.4835       8 -60.3548       9 -59.2497      10 -58.6711
      11 -58.6769      12 -59.1028      13 -42.2381      14 -42.3601      15 -41.7823
      16 -41.7511      17 -41.7868      18 -41.7817      19 -42.5760      20 -42.4399
      21 -43.0115      22 -42.6736      23 -42.4899      24 -42.5838      25 -42.4760
      26 -42.7511
 
 
 
 E-fermi :  -6.2216     XC(G=0):  -0.0528     alpha+bet : -0.0248


 spin component 1

 k-point     1 :       0.0000    0.0000    0.0000
  band No.  band energies     occupation 
      1     -22.4811      1.00000
      2     -21.6161      1.00000
      3     -20.0014      1.00000
      4     -19.3922      1.00000
      5     -19.0863      1.00000
      6     -18.4967      1.00000
      7     -16.3168      1.00000
      8     -16.1170      1.00000
      9     -15.2133      1.00000
     10     -14.9378      1.00000
     11     -13.6634      1.00000
     12     -13.2046      1.00000
     13     -12.3597      1.00000
     14     -11.9284      1.00000
     15     -11.7992      1.00000
     16     -11.1989      1.00000
     17     -10.9840      1.00000
     18     -10.8861      1.00000
     19     -10.7172      1.00000
     20     -10.2900      1.00000
     21     -10.2446      1.00000
     22      -9.9382      1.00000
     23      -9.6668      1.00000
     24      -9.0915      1.00000
     25      -8.8433      1.00000
     26      -8.2401      1.00000
     27      -8.1618      1.00000
     28      -8.0110      1.00000
     29      -7.8491      1.00000
     30      -7.1838      1.00000
     31      -6.4988      1.00000
     32      -3.1891      0.00000
     33      -1.9295      0.00000
     34      -1.1008      0.00000
     35      -0.5705      0.00000
     36      -0.2730      0.00000
     37      -0.1042      0.00000
     38      -0.0697      0.00000
     39      -0.0057      0.00000
     40       0.0706      0.00000
     41       0.0809      0.00000
     42       0.0905      0.00000
     43       0.0932      0.00000
     44       0.0953      0.00000
     45       0.1039      0.00000
     46       0.1456      0.00000
     47       0.1541      0.00000
     48       0.1633      0.00000
     49       0.1712      0.00000
     50       0.1728      0.00000
     51       0.1740      0.00000
     52       0.1763      0.00000
     53       0.1776      0.00000
     54       0.1965      0.00000
     55       0.2030      0.00000
     56       0.2066      0.00000
     57       0.2099      0.00000

 spin component 2

 k-point     1 :       0.0000    0.0000    0.0000
  band No.  band energies     occupation 
      1     -22.3404      1.00000
      2     -21.4712      1.00000
      3     -19.9258      1.00000
      4     -19.3141      1.00000
      5     -19.0046      1.00000
      6     -18.3372      1.00000
      7     -16.2590      1.00000
      8     -16.0240      1.00000
      9     -15.1183      1.00000
     10     -14.8794      1.00000
     11     -13.6235      1.00000
     12     -13.1102      1.00000
     13     -12.3038      1.00000
     14     -11.8764      1.00000
     15     -11.7067      1.00000
     16     -11.1056      1.00000
     17     -10.9134      1.00000
     18     -10.8405      1.00000
     19     -10.6390      1.00000
     20     -10.2460      1.00000
     21     -10.0867      1.00000
     22      -9.8528      1.00000
     23      -9.4868      1.00000
     24      -9.0649      1.00000
     25      -8.8144      1.00000
     26      -8.1918      1.00000
     27      -8.1106      1.00000
     28      -7.9577      1.00000
     29      -7.5664      1.00000
     30      -7.0739      1.00000
     31      -5.8179      0.00000
     32      -2.6163      0.00000
     33      -1.7888      0.00000
     34      -0.7063      0.00000
     35      -0.5081      0.00000
     36      -0.2531      0.00000
     37      -0.0878      0.00000
     38      -0.0494      0.00000
     39      -0.0046      0.00000
     40       0.0746      0.00000
     41       0.0811      0.00000
     42       0.0921      0.00000
     43       0.0951      0.00000
     44       0.0972      0.00000
     45       0.1057      0.00000
     46       0.1518      0.00000
     47       0.1569      0.00000
     48       0.1674      0.00000
     49       0.1716      0.00000
     50       0.1725      0.00000
     51       0.1763      0.00000
     52       0.1773      0.00000
     53       0.1786      0.00000
     54       0.2000      0.00000
     55       0.2053      0.00000
     56       0.2069      0.00000
     57       0.2096      0.00000


--------------------------------------------------------------------------------------------------------


 soft charge-density along one line, spin component           1
         0         1         2         3         4         5         6         7         8         9
 total charge-density along one line
 
 soft charge-density along one line, spin component           2
         0         1         2         3         4         5         6         7         8         9
 total charge-density along one line
 
 pseudopotential strength for first ion, spin component:           1
 10.323  13.730   0.002  -0.000   0.000  -0.007   0.000  -0.001
 13.730  18.262   0.003  -0.000   0.000  -0.009   0.001  -0.001
  0.002   0.003  -4.429   0.002   0.001   8.662  -0.005  -0.002
 -0.000  -0.000   0.002  -4.435  -0.001  -0.005   8.677   0.002
  0.000   0.000   0.001  -0.001  -4.430  -0.002   0.002   8.663
 -0.007  -0.009   8.662  -0.005  -0.002 -19.082   0.011   0.005
  0.000   0.001  -0.005   8.677   0.002   0.011 -19.116  -0.003
 -0.001  -0.001  -0.002   0.002   8.663   0.005  -0.003 -19.082
 pseudopotential strength for first ion, spin component:           2
 10.303  13.703   0.002   0.000   0.000  -0.006  -0.001  -0.001
 13.703  18.225   0.003   0.000   0.000  -0.008  -0.001  -0.001
  0.002   0.003  -4.428  -0.002   0.001   8.665   0.003  -0.002
  0.000   0.000  -0.002  -4.417   0.000   0.003   8.648  -0.001
  0.000   0.000   0.001   0.000  -4.430  -0.002  -0.001   8.667
 -0.006  -0.008   8.665   0.003  -0.002 -19.095  -0.004   0.004
 -0.001  -0.001   0.003   8.648  -0.001  -0.004 -19.074   0.001
 -0.001  -0.001  -0.002  -0.001   8.667   0.004   0.001 -19.097
 total augmentation occupancy for first ion, spin component:           1
  7.706  -3.319   0.148   0.008   0.176   0.034   0.003   0.032
 -3.319   1.476  -0.116  -0.006  -0.103  -0.022  -0.002  -0.018
  0.148  -0.116   1.724   0.146  -0.004   0.148   0.019  -0.006
  0.008  -0.006   0.146   1.106   0.006   0.018   0.064   0.001
  0.176  -0.103  -0.004   0.006   1.855  -0.006   0.001   0.166
  0.034  -0.022   0.148   0.018  -0.006   0.014   0.002  -0.001
  0.003  -0.002   0.019   0.064   0.001   0.002   0.004   0.000
  0.032  -0.018  -0.006   0.001   0.166  -0.001   0.000   0.016
 total augmentation occupancy for first ion, spin component:           2
  0.009  -0.001   0.003  -0.000  -0.003   0.001   0.000  -0.001
 -0.001  -0.000  -0.002  -0.004   0.003  -0.000  -0.000   0.000
  0.003  -0.002   0.008  -0.029  -0.001   0.000  -0.001  -0.000
 -0.000  -0.004  -0.029   0.118   0.009  -0.001   0.003   0.000
 -0.003   0.003  -0.001   0.009   0.003  -0.000   0.000   0.000
  0.001  -0.000   0.000  -0.001  -0.000   0.000   0.000  -0.000
  0.000  -0.000  -0.001   0.003   0.000   0.000  -0.000  -0.000
 -0.001   0.000  -0.000   0.000   0.000  -0.000  -0.000  -0.000


------------------------ aborting loop because EDIFF is reached ----------------------------------------


    CHARGE:  cpu time    1.3351: real time    1.3435
    FORLOC:  cpu time    0.2938: real time    0.2952
    FORNL :  cpu time    4.9424: real time    4.9763
    STRESS:  cpu time   14.9991: real time   15.0991
    FORCOR:  cpu time    5.0086: real time    5.0345
    FORHAR:  cpu time    0.8875: real time    0.8920
    MIXING:  cpu time    0.1097: real time    0.1103
    OFIELD:  cpu time    0.0000: real time    0.0000

 ---------------------------------------------------------------------------------------------

         DFTD3 V3.0 Rev 1        
 Edisp (eV)   -0.32883

 E6    (eV) :    -0.1428
 E8    (eV) :    -0.1860
 % E8        : 56.57
    FORVDW:  cpu time    0.0094: real time    0.0387

  FORCE on cell =-STRESS in cart. coord.  units (eV):
  Direction    XX          YY          ZZ          XY          YZ          ZX
  --------------------------------------------------------------------------------------
  Alpha Z     0.27178     0.27178     0.27178
  Ewald    4620.39258  2517.16156    -2.37405   -11.48878    30.20559     0.88893
  Hartree  4599.15374  2758.92405  1116.88004   -18.02987   -21.49911     0.93236
  E(xc)    -218.52222  -218.97431  -223.24347    -0.00202     0.41375     0.00844
  Local   -9780.53544 -5835.98651 -1727.31014    30.69757     2.00450    -0.70034
  n-local   -82.79536   -83.76025   -76.44126    -0.04292    -1.16727     0.03045
  augment    -2.56095    -2.59450    -2.51147    -0.00668    -0.05744    -0.01135
  Kinetic   864.80901   865.70187   913.61553    -0.92617    -9.33400    -1.11713
  Fock        0.00000     0.00000     0.00000     0.00000     0.00000     0.00000
  vdW        -0.09068    -0.01482     0.01751     0.00319     0.00932    -0.00016
  -------------------------------------------------------------------------------------
  Total       0.12247     0.72887    -1.09553     0.20432     0.57535     0.03119
  in kB       0.00307     0.01825    -0.02743     0.00511     0.01440     0.00078
  external pressure =       -0.00 kB  Pullay stress =        0.00 kB


 VOLUME and BASIS-vectors are now :
 -----------------------------------------------------------------------------
  energy-cutoff  :      500.00
  volume of cell :    64000.00
      direct lattice vectors                 reciprocal lattice vectors
    40.000000000  0.000000000  0.000000000     0.025000000  0.000000000  0.000000000
     0.000000000 40.000000000  0.000000000     0.000000000  0.025000000  0.000000000
     0.000000000  0.000000000 40.000000000     0.000000000  0.000000000  0.025000000

  length of vectors
    40.000000000 40.000000000 40.000000000     0.025000000  0.025000000  0.025000000


 FORCES acting on ions
    electron-ion (+dipol)            ewald-force                    non-local-force                 convergence-correction
 -----------------------------------------------------------------------------------------------
   -.172E+02 0.178E+03 0.361E+02   0.180E+02 -.179E+03 -.361E+02   0.255E+00 0.213E+01 0.742E-01   0.266E-02 0.598E-04 -.648E-03
   -.155E+03 0.162E+03 0.309E+02   0.156E+03 -.164E+03 -.313E+02   -.121E+01 0.190E+01 0.359E+00   0.191E-02 0.180E-03 0.404E-04
   -.228E+03 -.694E+00 -.615E+01   0.230E+03 0.709E+00 0.618E+01   -.185E+01 0.428E-01 -.550E-01   -.217E-05 -.825E-03 -.125E-03
   -.153E+03 -.162E+03 -.363E+02   0.155E+03 0.163E+03 0.366E+02   -.104E+01 -.191E+01 -.390E+00   0.172E-02 -.211E-02 -.137E-03
   -.190E+02 -.175E+03 -.331E+02   0.195E+02 0.177E+03 0.331E+02   0.424E+00 -.216E+01 -.886E-02   0.794E-03 -.262E-03 0.206E-03
   -.182E+02 0.589E+01 0.224E+01   0.194E+02 -.566E+01 -.237E+01   -.389E+00 0.102E-01 0.113E+00   0.889E-03 -.231E-03 -.295E-03
   0.890E+00 -.208E+01 0.774E+01   -.120E+01 0.435E+01 -.837E+01   0.457E+00 -.187E+01 0.529E+00   0.160E-02 0.176E-02 -.149E-04
   0.102E+02 0.178E+03 -.258E+02   -.112E+02 -.179E+03 0.261E+02   0.710E+00 0.190E+01 -.257E+00   0.249E-03 0.747E-03 0.115E-02
   0.134E+03 0.157E+03 -.366E+02   -.138E+03 -.156E+03 0.373E+02   0.264E+01 -.927E+00 -.644E+00   -.901E-03 0.744E-03 0.920E-03
   0.204E+03 -.163E+02 -.639E+02   -.206E+03 0.179E+02 0.641E+02   0.115E+01 -.107E+01 -.145E+00   -.866E-03 0.124E-02 0.765E-03
   0.136E+03 -.122E+03 0.105E+03   -.139E+03 0.123E+03 -.106E+03   0.128E+01 -.334E+00 0.569E+00   0.289E-03 0.883E-03 -.245E-03
   0.146E+02 -.175E+03 0.181E+02   -.167E+02 0.177E+03 -.193E+02   0.158E+01 -.200E+01 0.894E+00   0.347E-03 0.120E-02 -.887E-03
   -.192E+02 -.684E+02 0.553E+02   0.217E+02 0.717E+02 -.591E+02   -.263E+01 -.331E+01 0.375E+01   0.198E-03 0.165E-03 -.237E-03
   0.571E+01 -.652E+02 -.635E+02   -.571E+01 0.681E+02 0.681E+02   -.138E+00 -.279E+01 -.471E+01   0.994E-04 0.314E-03 -.236E-03
   0.518E+02 -.759E+02 0.136E+02   -.547E+02 0.809E+02 -.138E+02   0.266E+01 -.495E+01 0.888E-01   0.908E-04 0.224E-04 -.218E-03
   0.276E+02 0.429E+01 0.857E+02   -.281E+02 -.596E+01 -.910E+02   0.225E+00 0.191E+01 0.519E+01   0.147E-03 0.858E-04 -.719E-04
   0.917E+02 0.626E+01 0.939E+01   -.974E+02 -.679E+01 -.107E+02   0.542E+01 0.678E+00 0.136E+01   0.496E-04 0.156E-03 0.159E-03
   0.349E+02 -.282E+02 -.773E+02   -.352E+02 0.303E+02 0.824E+02   -.121E-01 -.206E+01 -.515E+01   -.835E-04 0.299E-03 0.222E-04
   0.432E+02 0.629E+02 0.499E+02   -.451E+02 -.658E+02 -.538E+02   0.172E+01 0.303E+01 0.404E+01   -.224E-03 0.445E-04 0.137E-03
   0.352E+02 0.591E+02 -.604E+02   -.367E+02 -.622E+02 0.647E+02   0.126E+01 0.316E+01 -.435E+01   -.106E-03 0.164E-03 0.404E-03
   -.168E+02 0.854E+02 -.118E+02   0.196E+02 -.904E+02 0.124E+02   -.290E+01 0.526E+01 -.585E+00   0.583E-03 -.426E-03 0.210E-03
   0.123E+02 -.837E+02 -.182E+02   -.150E+02 0.887E+02 0.192E+02   0.289E+01 -.514E+01 -.996E+00   -.218E-03 -.703E-04 0.173E-03
   -.514E+02 -.721E+02 -.164E+02   0.543E+02 0.770E+02 0.175E+02   -.295E+01 -.505E+01 -.114E+01   0.647E-04 -.120E-03 0.395E-04
   -.893E+02 -.308E+00 -.264E+01   0.952E+02 0.341E+00 0.281E+01   -.599E+01 -.282E-01 -.187E+00   -.543E-03 -.758E-04 -.138E-04
   -.524E+02 0.717E+02 0.146E+02   0.555E+02 -.766E+02 -.156E+02   -.304E+01 0.501E+01 0.103E+01   -.683E-04 0.489E-03 0.124E-03
   0.124E+02 0.836E+02 0.214E+02   -.148E+02 -.885E+02 -.226E+02   0.273E+01 0.516E+01 0.129E+01   0.422E-03 -.280E-03 -.377E-03
 -----------------------------------------------------------------------------------------------
   -.327E+01 0.341E+01 -.627E+00   0.204E-12 -.853E-13 0.178E-13   0.324E+01 -.342E+01 0.663E+00   0.910E-02 0.415E-02 0.840E-03
 
 
 POSITION                                       TOTAL-FORCE (eV/Angst)
 -----------------------------------------------------------------------------------
     21.90437     18.74418     19.77342        -0.011253      0.011762      0.009763
     23.28865     18.76007     19.79320        -0.002065     -0.001908     -0.002496
     23.97456     19.95786     20.05252         0.005597      0.006458     -0.007828
     23.26247     21.15344     20.26681         0.013855      0.001849      0.000769
     21.88007     21.15511     20.21803         0.005532     -0.003965     -0.003874
     21.15960     19.94663     19.98491        -0.000074     -0.005393      0.010752
     19.71686     19.96165     19.96695         0.003889     -0.005760     -0.000127
     18.99814     18.77652     20.17742        -0.001499      0.001456     -0.012146
     17.53601     18.71081     20.31001         0.011298     -0.014037     -0.001054
     16.81414     20.05852     20.32825         0.005189      0.003944     -0.014933
     17.50308     21.03648     19.37768        -0.006540     -0.008027     -0.014176
     18.96405     21.24835     19.78872         0.011934     -0.005325      0.004196
     19.48957     21.88217     19.06071        -0.000009      0.006051     -0.003328
     18.99799     21.80034     20.74697        -0.002382      0.010805      0.009323
     16.98844     22.00670     19.36881        -0.003584     -0.003804      0.006064
     17.46780     20.64323     18.34812        -0.006281      0.009241      0.008333
     15.75974     19.91916     20.05601        -0.003684     -0.004895      0.004953
     16.83184     20.46693     21.35106        -0.005987      0.002736      0.009917
     17.19020     18.08133     19.45883         0.001955      0.006153      0.004032
     17.29391     18.07908     21.18438        -0.010108     -0.011587     -0.011781
     19.53663     17.83325     20.27754        -0.010053      0.001781      0.006423
     21.33960     22.08306     20.39630        -0.004603      0.003329     -0.005240
     23.80266     22.07649     20.47479        -0.001067      0.008122     -0.005217
     25.06425     19.96327     20.08642         0.004653      0.000180     -0.003672
     23.84582     17.84308     19.60516         0.002669     -0.009207      0.000645
     21.38946     17.81227     19.54698         0.002614      0.000040      0.010703
 -----------------------------------------------------------------------------------
    total drift:                               -0.017843     -0.007799      0.037035


--------------------------------------------------------------------------------------------------------



  FREE ENERGIE OF THE ION-ELECTRON SYSTEM (eV)
  ---------------------------------------------------
  free  energy   TOTEN  =      -154.52283537 eV

  energy  without entropy=     -154.52283537  energy(sigma->0) =     -154.52283537
 
 d Force = 0.9512269E-04[ 0.674E-04, 0.123E-03]  d Energy = 0.9683757E-04-0.171E-05
 d Force = 0.1410238E+00[ 0.141E+00, 0.141E+00]  d Ewald  = 0.1410238E+00-0.114E-07


--------------------------------------------------------------------------------------------------------


    POTLOK:  cpu time   88.8412: real time   89.3258


--------------------------------------------------------------------------------------------------------


 Conjugate gradient step on ions:
 trial-energy change:   -0.000097  1 .order   -0.000095   -0.000123   -0.000067
  (g-gl).g = 0.391E-03      g.g   = 0.376E-03  gl.gl    = 0.568E-03
 g(Force)  = 0.376E-03   g(Stress)= 0.000E+00 ortho     = 0.231E-04
 gamma     =   0.68811
 trial     =   0.31326
 opt step  =   0.69314  (harmonic =   0.69314) maximal distance =0.00291313
 next E    =  -154.522874   (d E  =  -0.00014)


--------------------------------------------------------------------------------------------------------


  
 reached required accuracy - stopping structural energy minimisation
 writing wavefunctions
     LOOP+:  cpu time  460.6277: real time  478.1543
    4ORBIT:  cpu time    0.0000: real time    0.0000

 total amount of memory used by VASP MPI-rank0   521226. kBytes
=======================================================================

   base      :      30000. kBytes
   nonlr-proj:       1363. kBytes
   fftplans  :     128466. kBytes
   grid      :     311978. kBytes
   one-center:          6. kBytes
   wavefun   :      49413. kBytes
 
  
  
 General timing and accounting informations for this job:
 ========================================================
  
                  Total CPU time used (sec):    38955.398
                            User time (sec):    35929.613
                          System time (sec):     3025.783
                         Elapsed time (sec):    39194.723
  
                   Maximum memory used (kb):     2457592.
                   Average memory used (kb):           0.
  
                          Minor page faults:     10482634
                          Major page faults:          495
                 Voluntary context switches:        35164
