 vasp.6.3.2 27Jun22 (build Oct 25 2024 11:36:28) complex                        
  
 executed on             LinuxIFC date 2025.01.04  12:06:17
 running on   80 total cores
 distrk:  each k-point on   80 cores,    1 groups
 distr:  one band on NCORE=  10 cores,    8 groups


--------------------------------------------------------------------------------------------------------


 INCAR:
   SYSTEM = 018_red
   ISTART = 1
   ICHARG = 2
   INIWAV = 1
   METAGGA = R2SCAN
   LASPH = .TRUE.
   NELM = 100
   ALGO = fast   	
   ISPIN = 2
   EDIFF = 1E-05
   ISMEAR = 0
   SIGMA = 0.05
   PREC = accurate
   ENCUT = 500
   LREAL = auto  	
   LWAVE = .TRUE.
   LCHARG = .FALSE.
   LAECHG = .FALSE.
   LVHAR = .FALSE.
   LVTOT = .FALSE.
   EDIFFG = -0.02
   IBRION = 2
   NSW = 500
   ISIF = 2
   POTIM = 0.5
   IVDW = 12
   VDW_A1 = 0.49484001
   VDW_S8 = 0.78981345
   VDW_A2 = 5.73083694
   LPLANE = .TRUE.
   NCORE = 10
   LSCALU = .FALSE.
   NSIM = 4
   LSOL = .TRUE.
   ISOL = 2
   EPSILON_INF = 1.8069
   N_MOL = 0.0115
   P_MOL = 0.82
   R_SOLV = 2.1900
   EB_K = 35.6880

 POTCAR:    PAW_PBE C 08Apr2002                   
 POTCAR:    PAW_PBE O 08Apr2002                   
 POTCAR:    PAW_PBE H 15Jun2001                   
 -----------------------------------------------------------------------------
|                                                                             |
|           W    W    AA    RRRRR   N    N  II  N    N   GGGG   !!!           |
|           W    W   A  A   R    R  NN   N  II  NN   N  G    G  !!!           |
|           W    W  A    A  R    R  N N  N  II  N N  N  G       !!!           |
|           W WW W  AAAAAA  RRRRR   N  N N  II  N  N N  G  GGG   !            |
|           WW  WW  A    A  R   R   N   NN  II  N   NN  G    G                |
|           W    W  A    A  R    R  N    N  II  N    N   GGGG   !!!           |
|                                                                             |
|     You use a magnetic or noncollinear calculation, but did not specify     |
|     the initial magnetic moment with the MAGMOM tag. Note that a            |
|     default of 1 will be used for all atoms. This ferromagnetic setup       |
|     may break the symmetry of the crystal, in particular it may rule        |
|     out finding an antiferromagnetic solution. Thence, we recommend         |
|     setting the initial magnetic moment manually or verifying carefully     |
|     that this magnetic setup is desired.                                    |
|                                                                             |
 -----------------------------------------------------------------------------

 POTCAR:    PAW_PBE C 08Apr2002                   
   SHA256 =  253f7b50bb8d59471dbedb8285d89021f4a42ed1a2c5d38a03a736e69125dd95 C/POTCAR              
   COPYR  = (c) Copyright 08Apr2002 Georg Kresse                                                    
   COPYR  = This file is part of the software VASP. Any use, copying, and all other rights are regul
   COPYR  = If you do not have a valid VASP license, you may not use, copy or distribute this file. 
   VRHFIN =C: s2p2                                                                                  
   LEXCH  = PE                                                                                      
   EATOM  =   147.1560 eV,   10.8157 Ry                                                             
                                                                                                    
   TITEL  = PAW_PBE C 08Apr2002                                                                     
   LULTRA =        F    use ultrasoft PP ?                                                          
   IUNSCR =        1    unscreen: 0-lin 1-nonlin 2-no                                               
   RPACOR =    1.200    partial core radius                                                         
   POMASS =   12.011; ZVAL   =    4.000    mass and valenz                                          
   RCORE  =    1.500    outmost cutoff radius                                                       
   RWIGS  =    1.630; RWIGS  =    0.863    wigner-seitz radius (au A)                               
   ENMAX  =  400.000; ENMIN  =  300.000 eV                                                          
   ICORE  =        2    local potential                                                             
   LCOR   =        T    correct aug charges                                                         
   LPAW   =        T    paw PP                                                                      
   EAUG   =  644.873                                                                                
   DEXC   =    0.000                                                                                
   RMAX   =    1.529    core radius for proj-oper                                                   
   RAUG   =    1.300    factor for augmentation sphere                                              
   RDEP   =    1.501    radius for radial grids                                                     
   RDEPT  =    1.300    core radius for aug-charge                                                  
                                                                                                    
   Atomic configuration                                                                             
    4 entries                                                                                       
     n  l   j            E        occ.                                                              
     1  0  0.50      -273.3789   2.0000                                                             
     2  0  0.50       -13.7508   2.0000                                                             
     2  1  0.50        -5.2854   2.0000                                                             
     3  2  1.50        -5.4423   0.0000                                                             
   Description                                                                                      
     l       E           TYP  RCUT    TYP  RCUT                                                     
     0    -13.7508458     23  1.200                                                                 
     0     -8.2022199     23  1.200                                                                 
     1     -5.2854383     23  1.500                                                                 
     1     34.0145650     23  1.500                                                                 
     2     -5.4423304      7  1.500                                                                 
  local pseudopotential read in
  partial core-charges read in
  partial kinetic energy density read in
  atomic valenz-charges read in
  non local Contribution for L=           0  read in
    real space projection operators read in
  non local Contribution for L=           0  read in
    real space projection operators read in
  non local Contribution for L=           1  read in
    real space projection operators read in
  non local Contribution for L=           1  read in
    real space projection operators read in
    PAW grid and wavefunctions read in
 
   number of l-projection  operators is LMAX  =           4
   number of lm-projection operators is LMMAX =           8
 
 POTCAR:    PAW_PBE O 08Apr2002                   
   SHA256 =  818f92134a0a090dccd8ba1447fa70422a3b330e708bb4f08108d8ae51209ddf O/POTCAR              
   COPYR  = (c) Copyright 08Apr2002 Georg Kresse                                                    
   COPYR  = This file is part of the software VASP. Any use, copying, and all other rights are regul
   COPYR  = If you do not have a valid VASP license, you may not use, copy or distribute this file. 
   VRHFIN =O: s2p4                                                                                  
   LEXCH  = PE                                                                                      
   EATOM  =   432.3788 eV,   31.7789 Ry                                                             
                                                                                                    
   TITEL  = PAW_PBE O 08Apr2002                                                                     
   LULTRA =        F    use ultrasoft PP ?                                                          
   IUNSCR =        1    unscreen: 0-lin 1-nonlin 2-no                                               
   RPACOR =    1.200    partial core radius                                                         
   POMASS =   16.000; ZVAL   =    6.000    mass and valenz                                          
   RCORE  =    1.520    outmost cutoff radius                                                       
   RWIGS  =    1.550; RWIGS  =    0.820    wigner-seitz radius (au A)                               
   ENMAX  =  400.000; ENMIN  =  300.000 eV                                                          
   ICORE  =        2    local potential                                                             
   LCOR   =        T    correct aug charges                                                         
   LPAW   =        T    paw PP                                                                      
   EAUG   =  605.392                                                                                
   DEXC   =    0.000                                                                                
   RMAX   =    1.553    core radius for proj-oper                                                   
   RAUG   =    1.300    factor for augmentation sphere                                              
   RDEP   =    1.550    radius for radial grids                                                     
   RDEPT  =    1.329    core radius for aug-charge                                                  
                                                                                                    
   Atomic configuration                                                                             
    4 entries                                                                                       
     n  l   j            E        occ.                                                              
     1  0  0.50      -514.6923   2.0000                                                             
     2  0  0.50       -23.9615   2.0000                                                             
     2  1  0.50        -9.0305   4.0000                                                             
     3  2  1.50        -9.5241   0.0000                                                             
   Description                                                                                      
     l       E           TYP  RCUT    TYP  RCUT                                                     
     0    -23.9615318     23  1.200                                                                 
     0     -9.5240782     23  1.200                                                                 
     1     -9.0304911     23  1.520                                                                 
     1      8.1634956     23  1.520                                                                 
     2     -9.5240782      7  1.500                                                                 
  local pseudopotential read in
  partial core-charges read in
  partial kinetic energy density read in
  kinetic energy density of atom read in
  atomic valenz-charges read in
  non local Contribution for L=           0  read in
    real space projection operators read in
  non local Contribution for L=           0  read in
    real space projection operators read in
  non local Contribution for L=           1  read in
    real space projection operators read in
  non local Contribution for L=           1  read in
    real space projection operators read in
    PAW grid and wavefunctions read in
 
   number of l-projection  operators is LMAX  =           4
   number of lm-projection operators is LMMAX =           8
 
 POTCAR:    PAW_PBE H 15Jun2001                   
   SHA256 =  030f79b5d3ab3cf0e668861823c8fb652ff669f3e15e46930bd03bfd63a607b6 H/POTCAR              
   COPYR  = (c) Copyright 15Jun2001 Georg Kresse                                                    
   COPYR  = This file is part of the software VASP. Any use, copying, and all other rights are regul
   COPYR  = If you do not have a valid VASP license, you may not use, copy or distribute this file. 
   VRHFIN =H: ultrasoft test                                                                        
   LEXCH  = PE                                                                                      
   EATOM  =    12.4884 eV,    0.9179 Ry                                                             
                                                                                                    
   TITEL  = PAW_PBE H 15Jun2001                                                                     
   LULTRA =        F    use ultrasoft PP ?                                                          
   IUNSCR =        0    unscreen: 0-lin 1-nonlin 2-no                                               
   RPACOR =    0.000    partial core radius                                                         
   POMASS =    1.000; ZVAL   =    1.000    mass and valenz                                          
   RCORE  =    1.100    outmost cutoff radius                                                       
   RWIGS  =    0.700; RWIGS  =    0.370    wigner-seitz radius (au A)                               
   ENMAX  =  250.000; ENMIN  =  200.000 eV                                                          
   RCLOC  =    0.701    cutoff for local pot                                                        
   LCOR   =        T    correct aug charges                                                         
   LPAW   =        T    paw PP                                                                      
   EAUG   =  400.000                                                                                
   RMAX   =    1.123    core radius for proj-oper                                                   
   RAUG   =    1.200    factor for augmentation sphere                                              
   RDEP   =    1.112    radius for radial grids                                                     
   RDEPT  =    0.926    core radius for aug-charge                                                  
                                                                                                    
   Atomic configuration                                                                             
    2 entries                                                                                       
     n  l   j            E        occ.                                                              
     1  0  0.50        -6.4927   1.0000                                                             
     2  1  0.50        -3.4015   0.0000                                                             
   Description                                                                                      
     l       E           TYP  RCUT    TYP  RCUT                                                     
     0     -6.4927494     23  1.100                                                                 
     0      6.8029130     23  1.100                                                                 
     1     -4.0817478     23  1.100                                                                 
  local pseudopotential read in
  atomic valenz-charges read in
  non local Contribution for L=           0  read in
    real space projection operators read in
  non local Contribution for L=           0  read in
    real space projection operators read in
  non local Contribution for L=           1  read in
    real space projection operators read in
    PAW grid and wavefunctions read in
 
   number of l-projection  operators is LMAX  =           3
   number of lm-projection operators is LMMAX =           5
 
 Optimization of the real space projectors (new method)

 maximal supplied QI-value         = 25.13
 optimisation between [QCUT,QGAM] = [ 11.31, 22.87] = [ 35.82,146.48] Ry 
 Optimized for a Real-space Cutoff    1.03 Angstroem

   l    n(q)    QCUT    max X(q) W(low)/X(q) W(high)/X(q)  e(spline) 
   0      7    11.310   115.676    0.20E-03    0.90E-03    0.20E-06
   0      7    11.310    87.132    0.20E-03    0.89E-03    0.19E-06
   1      6    11.310     4.429    0.16E-03    0.28E-03    0.12E-06
   1      6    11.310     2.733    0.12E-03    0.21E-03    0.99E-07
 Optimization of the real space projectors (new method)

 maximal supplied QI-value         = 24.76
 optimisation between [QCUT,QGAM] = [ 11.39, 22.77] = [ 36.31,145.25] Ry 
 Optimized for a Real-space Cutoff    1.10 Angstroem

   l    n(q)    QCUT    max X(q) W(low)/X(q) W(high)/X(q)  e(spline) 
   0      7    11.387    20.381    0.22E-03    0.48E-03    0.18E-06
   0      7    11.387    15.268    0.22E-03    0.52E-03    0.19E-06
   1      7    11.387     5.964    0.22E-03    0.73E-03    0.24E-06
   1      7    11.387     5.382    0.19E-03    0.60E-03    0.21E-06
 Optimization of the real space projectors (new method)

 maximal supplied QI-value         = 34.20
 optimisation between [QCUT,QGAM] = [ 11.29, 22.57] = [ 35.68,142.71] Ry 
 Optimized for a Real-space Cutoff    1.20 Angstroem

   l    n(q)    QCUT    max X(q) W(low)/X(q) W(high)/X(q)  e(spline) 
   0      8    11.287    19.460    0.22E-03    0.50E-03    0.19E-06
   0      8    11.287    12.209    0.21E-03    0.48E-03    0.18E-06
   1      8    11.287     4.655    0.21E-03    0.11E-04    0.26E-06
  PAW_PBE C 08Apr2002                   :
 energy of atom  1       EATOM= -147.1560
 kinetic energy error for atom=    0.0076 (will be added to EATOM!!)
  PAW_PBE O 08Apr2002                   :
 energy of atom  2       EATOM= -432.3788
 kinetic energy error for atom=    0.0224 (will be added to EATOM!!)
  PAW_PBE H 15Jun2001                   :
 energy of atom  3       EATOM=  -12.4884
 kinetic energy error for atom=    0.0020 (will be added to EATOM!!)
 
 
 POSCAR: C O H
  positions in direct lattice
  velocities in cartesian coordinates

 METAGGA = R2SCA    LMAXTAU =  6    LMIXTAU =  F

 exchange correlation table for  LEXCH =        8
   RHO(1)=    0.500       N(1)  =     2000
   RHO(2)=  100.500       N(2)  =     4000
 
 POSCAR: C O H
  positions in direct lattice
  velocities in cartesian coordinates
 
 POSCAR: C O H
  positions in direct lattice
  velocities in cartesian coordinates
 


--------------------------------------------------------------------------------------------------------


 ion  position               nearest neighbor table
   1  0.486  0.520  0.500-  23 1.09   6 1.40   2 1.40
   2  0.454  0.507  0.500-  11 1.37   3 1.39   1 1.40
   3  0.449  0.472  0.500-  19 1.08   2 1.39   4 1.40
   4  0.477  0.451  0.500-  18 1.09   5 1.39   3 1.40
   5  0.509  0.465  0.500-  17 1.08   4 1.39   6 1.41
   6  0.514  0.499  0.500-   1 1.40   5 1.41   7 1.46
   7  0.547  0.515  0.500-  16 1.09   8 1.34   6 1.46
   8  0.577  0.500  0.500-  15 1.09   7 1.34   9 1.49
   9  0.610  0.518  0.500-  14 1.09  13 1.10  12 1.10   8 1.49
  10  0.395  0.517  0.500-  20 1.09  22 1.09  21 1.09  11 1.43
  11  0.428  0.529  0.500-   2 1.37  10 1.43
  12  0.624  0.511  0.478-   9 1.10
  13  0.624  0.511  0.522-   9 1.10
  14  0.606  0.545  0.500-   9 1.09
  15  0.578  0.473  0.500-   8 1.09
  16  0.547  0.543  0.500-   7 1.09
  17  0.530  0.448  0.500-   5 1.08
  18  0.474  0.425  0.500-   4 1.09
  19  0.424  0.461  0.500-   3 1.08
  20  0.379  0.539  0.500-  10 1.09
  21  0.390  0.502  0.522-  10 1.09
  22  0.390  0.502  0.478-  10 1.09
  23  0.489  0.547  0.500-   1 1.09
 
  LATTYP: Found a simple cubic cell.
 ALAT       =    40.0000000000
  
  Lattice vectors:
  
 A1 = (  40.0000000000,   0.0000000000,   0.0000000000)
 A2 = (   0.0000000000,  40.0000000000,   0.0000000000)
 A3 = (   0.0000000000,   0.0000000000,  40.0000000000)


Analysis of symmetry for initial positions (statically):
=====================================================================
 Subroutine PRICEL returns:
 Original cell was already a primitive cell.
 

 Routine SETGRP: Setting up the symmetry group for a 
 simple cubic supercell.


 Subroutine GETGRP returns: Found  1 space group operations
 (whereof  1 operations were pure point group operations)
 out of a pool of 48 trial point group operations.


The static configuration has the point symmetry C_1 .


Analysis of symmetry for dynamics (positions and initial velocities):
=====================================================================
 Subroutine PRICEL returns:
 Original cell was already a primitive cell.
 

 Routine SETGRP: Setting up the symmetry group for a 
 simple cubic supercell.


 Subroutine GETGRP returns: Found  1 space group operations
 (whereof  1 operations were pure point group operations)
 out of a pool of 48 trial point group operations.


The dynamic configuration has the point symmetry C_1 .


Analysis of constrained symmetry for selective dynamics:
=====================================================================
 Subroutine PRICEL returns:
 Original cell was already a primitive cell.
 

 Routine SETGRP: Setting up the symmetry group for a 
 simple cubic supercell.


 Subroutine GETGRP returns: Found  1 space group operations
 (whereof  1 operations were pure point group operations)
 out of a pool of 48 trial point group operations.


The constrained configuration has the point symmetry C_1 .


Analysis of structural, dynamic, and magnetic symmetry:
=====================================================================
 Subroutine PRICEL returns:
 Original cell was already a primitive cell.
 

 Routine SETGRP: Setting up the symmetry group for a 
 simple cubic supercell.


 Subroutine GETGRP returns: Found  1 space group operations
 (whereof  1 operations were pure point group operations)
 out of a pool of 48 trial point group operations.


The overall configuration has the point symmetry C_1 .


 Subroutine INISYM returns: Found  1 space group operations
 (whereof  1 operations are pure point group operations),
 and found     1 'primitive' translations


----------------------------------------------------------------------------------------

                                     Primitive cell                                     

  volume of cell :   64000.0000

  direct lattice vectors                    reciprocal lattice vectors
    40.000000000  0.000000000  0.000000000     0.025000000  0.000000000  0.000000000
     0.000000000 40.000000000  0.000000000     0.000000000  0.025000000  0.000000000
     0.000000000  0.000000000 40.000000000     0.000000000  0.000000000  0.025000000

  length of vectors
    40.000000000 40.000000000 40.000000000     0.025000000  0.025000000  0.025000000

  position of ions in fractional coordinates (direct lattice)
     0.485817601  0.520034785  0.499993525
     0.453564432  0.506623143  0.499996672
     0.448916726  0.472065447  0.500001045
     0.477154285  0.451462903  0.500001112
     0.509212394  0.464551972  0.499999112
     0.514015677  0.499432060  0.499996472
     0.547004884  0.515331218  0.499997053
     0.576795558  0.500035326  0.500003510
     0.609569110  0.517794665  0.500000672
     0.394631149  0.517152510  0.500002373
     0.428218744  0.529492243  0.499997850
     0.624449057  0.510773266  0.478105735
     0.624444713  0.510787028  0.521902565
     0.606373402  0.544900382  0.499991693
     0.578045722  0.472863444  0.500011029
     0.546602210  0.542576013  0.499989670
     0.530470025  0.447782773  0.499999305
     0.473688596  0.424555100  0.500003531
     0.424182068  0.461127133  0.500003439
     0.378766860  0.539220441  0.500002935
     0.389742129  0.502204913  0.522345868
     0.389737066  0.502201954  0.477662076
     0.488597590  0.547031281  0.499992758

  ion indices of the primitive-cell ions
   primitive index   ion index
                 1           1
                 2           2
                 3           3
                 4           4
                 5           5
                 6           6
                 7           7
                 8           8
                 9           9
                10          10
                11          11
                12          12
                13          13
                14          14
                15          15
                16          16
                17          17
                18          18
                19          19
                20          20
                21          21
                22          22
                23          23

----------------------------------------------------------------------------------------

 
 
 KPOINTS: K-Point Grid                            

Automatic generation of k-mesh.
 Grid dimensions read from file:
 generate k-points for:    1    1    1

 Generating k-lattice:

  Cartesian coordinates                     Fractional coordinates (reciprocal lattice)
     0.025000000  0.000000000  0.000000000     1.000000000  0.000000000  0.000000000
     0.000000000  0.025000000  0.000000000     0.000000000  1.000000000  0.000000000
     0.000000000  0.000000000  0.025000000     0.000000000  0.000000000  1.000000000

  Length of vectors
     0.025000000  0.025000000  0.025000000

  Shift w.r.t. Gamma in fractional coordinates (k-lattice)
     0.000000000  0.000000000  0.000000000

 
 Subroutine IBZKPT returns following result:
 ===========================================
 
 Found      1 irreducible k-points:
 
 Following reciprocal coordinates:
            Coordinates               Weight
  0.000000  0.000000  0.000000      1.000000
 
 Following cartesian coordinates:
            Coordinates               Weight
  0.000000  0.000000  0.000000      1.000000
 


--------------------------------------------------------------------------------------------------------




 Dimension of arrays:
   k-points           NKPTS =      1   k-points in BZ     NKDIM =      1   number of bands    NBANDS=     56
   number of dos      NEDOS =    301   number of ions     NIONS =     23
   non local maximal  LDIM  =      4   non local SUM 2l+1 LMDIM =      8
   total plane-waves  NPLWV = ******
   max r-space proj   IRMAX =   2915   max aug-charges    IRDMAX=   5350
   dimension x,y,z NGX =   294 NGY =  294 NGZ =  294
   dimension x,y,z NGXF=   588 NGYF=  588 NGZF=  588
   support grid    NGXF=   588 NGYF=  588 NGZF=  588
   ions per type =              10   1  12
   NGX,Y,Z   is equivalent  to a cutoff of  12.22, 12.22, 12.22 a.u.
   NGXF,Y,Z  is equivalent  to a cutoff of  24.44, 24.44, 24.44 a.u.

 SYSTEM =  018_red                                 
 POSCAR =  C O H                                   

 Startparameter for this run:
   NWRITE =      2    write-flag & timer
   PREC   = accura    normal or accurate (medium, high low for compatibility)
   ISTART =      1    job   : 0-new  1-cont  2-samecut
   ICHARG =      2    charge: 1-file 2-atom 10-const
   ISPIN  =      2    spin polarized calculation?
   LNONCOLLINEAR =      F non collinear calculations
   LSORBIT =      F    spin-orbit coupling
   INIWAV =      1    electr: 0-lowe 1-rand  2-diag
   LASPH  =      T    aspherical Exc in radial PAW
 Electronic Relaxation 1
   ENCUT  =  500.0 eV  36.75 Ry    6.06 a.u.  72.93 72.93 72.93*2*pi/ulx,y,z
   ENINI  =  500.0     initial cutoff
   ENAUG  =  644.9 eV  augmentation charge cutoff
   NELM   =    100;   NELMIN=  2; NELMDL=  0     # of ELM steps 
   EDIFF  = 0.1E-04   stopping-criterion for ELM
   LREAL  =      T    real-space projection
   NLSPLINE    = F    spline interpolate recip. space projectors
   LCOMPAT=      F    compatible to vasp.4.4
   GGA_COMPAT  = T    GGA compatible to vasp.4.4-vasp.4.6
   LMAXPAW     = -100 max onsite density
   LMAXMIX     =    2 max onsite mixed and CHGCAR
   VOSKOWN=      0    Vosko Wilk Nusair interpolation
   ROPT   =   -0.00025  -0.00025  -0.00025
 Ionic relaxation
   EDIFFG = -.2E-01   stopping-criterion for IOM
   NSW    =    500    number of steps for IOM
   NBLOCK =      1;   KBLOCK =    500    inner block; outer block 
   IBRION =      2    ionic relax: 0-MD 1-quasi-New 2-CG
   NFREE  =      1    steps in history (QN), initial steepest desc. (CG)
   ISIF   =      2    stress and relaxation
   IWAVPR =     11    prediction:  0-non 1-charg 2-wave 3-comb
   ISYM   =      2    0-nonsym 1-usesym 2-fastsym
   LCORR  =      T    Harris-Foulkes like correction to forces

   POTIM  = 0.5000    time-step for ionic-motion
   TEIN   =    0.0    initial temperature
   TEBEG  =    0.0;   TEEND  =   0.0 temperature during run
   SMASS  =  -3.00    Nose mass-parameter (am)
   estimated Nose-frequenzy (Omega)   =  0.10E-29 period in steps = 0.13E+47 mass=  -0.366E-25a.u.
   SCALEE = 1.0000    scale energy and forces
   NPACO  =    256;   APACO  = 10.0  distance and # of slots for P.C.
   PSTRESS=    0.0 pullay stress

  Mass of Ions in am
   POMASS =  12.01 16.00  1.00
  Ionic Valenz
   ZVAL   =   4.00  6.00  1.00
  Atomic Wigner-Seitz radii
   RWIGS  =  -1.00 -1.00 -1.00
  virtual crystal weights 
   VCA    =   1.00  1.00  1.00
   NELECT =      58.0000    total number of electrons
   NUPDOWN=      -1.0000    fix difference up-down

 DOS related values:
   EMIN   =  10.00;   EMAX   =-10.00  energy-range for DOS
   EFERMI =   0.00
   ISMEAR =     0;   SIGMA  =   0.05  broadening in eV -4-tet -1-fermi 0-gaus

 Electronic relaxation 2 (details)
   IALGO  =     68    algorithm
   LDIAG  =      T    sub-space diagonalisation (order eigenvalues)
   LSUBROT=      F    optimize rotation matrix (better conditioning)
   TURBO    =      0    0=normal 1=particle mesh
   IRESTART =      0    0=no restart 2=restart with 2 vectors
   NREBOOT  =      0    no. of reboots
   NMIN     =      0    reboot dimension
   EREF     =   0.00    reference energy to select bands
   IMIX   =      4    mixing-type and parameters
     AMIX     =   0.40;   BMIX     =  1.00
     AMIX_MAG =   1.60;   BMIX_MAG =  1.00
     AMIN     =   0.10
     WC   =   100.;   INIMIX=   1;  MIXPRE=   1;  MAXMIX= -45

 Intra band minimization:
   WEIMIN = 0.0010     energy-eigenvalue tresh-hold
   EBREAK =  0.45E-07  absolut break condition
   DEPER  =   0.30     relativ break condition  

   TIME   =   0.40     timestep for ELM

  volume/ion in A,a.u.               =    2782.61     18777.97
  Fermi-wavevector in a.u.,A,eV,Ry     =   0.158425  0.299380  0.341486  0.025099
  Thomas-Fermi vector in A             =   0.848723
 
 Write flags
   LWAVE        =      T    write WAVECAR
   LDOWNSAMPLE  =      F    k-point downsampling of WAVECAR
   LCHARG       =      F    write CHGCAR
   LVTOT        =      F    write LOCPOT, total local potential
   LVHAR        =      F    write LOCPOT, Hartree potential only
   LELF         =      F    write electronic localiz. function (ELF)
   LORBIT       =      0    0 simple, 1 ext, 2 COOP (PROOUT), +10 PAW based schemes


 Dipole corrections
   LMONO  =      F    monopole corrections only (constant potential shift)
   LDIPOL =      F    correct potential (dipole corrections)
   IDIPOL =      0    1-x, 2-y, 3-z, 4-all directions 
   EPSILON=  1.0000000 bulk dielectric constant

 Exchange correlation treatment:
   GGA     =    --    GGA type
   LEXCH   =     8    internal setting for exchange type
   LIBXC   =     F    Libxc                    
   VOSKOWN =     0    Vosko Wilk Nusair interpolation
   LHFCALC =     F    Hartree Fock is set to
   LHFONE  =     F    Hartree Fock one center treatment
   AEXX    =    0.0000 exact exchange contribution

 Linear response parameters
   LEPSILON=     F    determine dielectric tensor
   LRPA    =     F    only Hartree local field effects (RPA)
   LNABLA  =     F    use nabla operator in PAW spheres
   LVEL    =     F    velocity operator in full k-point grid
   CSHIFT  =0.1000    complex shift for real part using Kramers Kronig
   OMEGAMAX=  -1.0    maximum frequency
   DEG_THRESHOLD= 0.2000000E-02 threshold for treating states as degnerate
   RTIME   =   -0.100 relaxation time in fs
  (WPLASMAI=    0.000 imaginary part of plasma frequency in eV, 0.658/RTIME)
   DFIELD  = 0.0000000 0.0000000 0.0000000 field for delta impulse in time
 
  Optional k-point grid parameters
   LKPOINTS_OPT  =     F    use optional k-point grid
   KPOINTS_OPT_MODE=     1    mode for optional k-point grid
 
 Orbital magnetization related:
   ORBITALMAG=     F  switch on orbital magnetization
   LCHIMAG   =     F  perturbation theory with respect to B field
   DQ        =  0.001000  dq finite difference perturbation B field
   LLRAUG    =     F  two centre corrections for induced B field

 Solvation model:
   LSOL             =     T         switch on solvation model
   LSOL_SCF         =     T         include solvation in SCF
   ISOL             =     2         solvation model type
   EFERMI_ref       =  0.000000         reference Fermi level
   capacitance_init =  1.000000         initial capacitance
 Nonlinear solvation model:
   LNLDIEL     =     T         switch on non-linear dielectric mode
   LNLION      =     T         switch on non-linear ionic mode
   LNLTEST     =     F         test non-linear model in linear regime
   I_NLOC_SOL  =     1         type of nonlocal dielectric response
   NC_K        =  0.015000     cutoff charge density for cavities (1/Angstrom**3)
   TAU         =  0.000879     cavity formation energy (eV/Angstrom**2)
   SIGMA_K     =  0.600000     cavity width
   A_K         =  0.125000     smoothing length (Angstrom)
   R_SOLV      =  2.190000     solvent radius (Angstrom)
   R_CAV       =  0.000000     cavity radius (Angstrom)
   R_DIEL      =  1.000000     dielectric radius (Angstrom)
   R_ION       =  0.000000     ionic radius (Angstrom)
   R_B         =  0.000000     bound charge radius (Angstrom)
   SOLTEMP     =298.000000     solvent temperature (K)
   EB_K        = 35.688000     relative permittivity of the bulk solvent
   EPSILON_INF =  1.806900     optical relative permittivity of bulk solvent
   N_MOL       =  0.011500     molar density of solvent (1/Angstrom**3)
   P_MOL       =  0.820000     solvent dipole moment (e*Angstrom)
   C_MOLAR     =  0.000000     electrolyte concentration (mol/L)
   LAMBDA_D_K  =  0.000000     Debye length (Angstrom)
   ZION        =  1.000000     charge of ions in electrolyte (e)
   D_ION       = -1.000000     minimum ion packing diameter (Angstrom)



--------------------------------------------------------------------------------------------------------


 conjugate gradient relaxation of ions
   using selective dynamics as specified on POSCAR
 charge density and potential will be updated during run
 spin polarized calculation
 RMM-DIIS sequential band-by-band and
  variant of blocked Davidson during initial phase
 perform sub-space diagonalisation
    before iterative eigenvector-optimisation
 modified Broyden-mixing scheme, WC =      100.0
 initial mixing is a Kerker type mixing with AMIX =  0.4000 and BMIX =      1.0000
 Hartree-type preconditioning will be used
 using additional bands           27
 real space projection scheme for non local part
 use partial core corrections
 calculate Harris-corrections to forces 
   (improved forces if not selfconsistent)
 use gradient corrections 
 use of overlap-Matrix (Vanderbilt PP)
 Gauss-broadening in eV      SIGMA  =   0.05


--------------------------------------------------------------------------------------------------------


  energy-cutoff  :      500.00
  volume of cell :    64000.00
      direct lattice vectors                 reciprocal lattice vectors
    40.000000000  0.000000000  0.000000000     0.025000000  0.000000000  0.000000000
     0.000000000 40.000000000  0.000000000     0.000000000  0.025000000  0.000000000
     0.000000000  0.000000000 40.000000000     0.000000000  0.000000000  0.025000000

  length of vectors
    40.000000000 40.000000000 40.000000000     0.025000000  0.025000000  0.025000000


 
 old parameters found on file WAVECAR:
  energy-cutoff  :      500.00
  volume of cell :    64000.00
      direct lattice vectors                 reciprocal lattice vectors
    40.000000000  0.000000000  0.000000000     0.025000000  0.000000000  0.000000000
     0.000000000 40.000000000  0.000000000     0.000000000  0.025000000  0.000000000
     0.000000000  0.000000000 40.000000000     0.000000000  0.000000000  0.025000000

  length of vectors

 
 k-points in units of 2pi/SCALE and weight: K-Point Grid                            
   0.00000000  0.00000000  0.00000000       1.000
 
 k-points in reciprocal lattice and weights: K-Point Grid                            
   0.00000000  0.00000000  0.00000000       1.000
 
 position of ions in fractional coordinates (direct lattice) 
   0.48581760  0.52003479  0.49999352
   0.45356443  0.50662314  0.49999667
   0.44891673  0.47206545  0.50000104
   0.47715428  0.45146290  0.50000111
   0.50921239  0.46455197  0.49999911
   0.51401568  0.49943206  0.49999647
   0.54700488  0.51533122  0.49999705
   0.57679556  0.50003533  0.50000351
   0.60956911  0.51779466  0.50000067
   0.39463115  0.51715251  0.50000237
   0.42821874  0.52949224  0.49999785
   0.62444906  0.51077327  0.47810574
   0.62444471  0.51078703  0.52190257
   0.60637340  0.54490038  0.49999169
   0.57804572  0.47286344  0.50001103
   0.54660221  0.54257601  0.49998967
   0.53047003  0.44778277  0.49999930
   0.47368860  0.42455510  0.50000353
   0.42418207  0.46112713  0.50000344
   0.37876686  0.53922044  0.50000293
   0.38974213  0.50220491  0.52234587
   0.38973707  0.50220195  0.47766208
   0.48859759  0.54703128  0.49999276
 
 position of ions in cartesian coordinates  (Angst):
  19.43270405 20.80139142 19.99974099
  18.14257730 20.26492572 19.99986689
  17.95666905 18.88261789 20.00004179
  19.08617139 18.05851612 20.00004450
  20.36849578 18.58207889 19.99996449
  20.56062707 19.97728240 19.99985887
  21.88019537 20.61324872 19.99988211
  23.07182233 20.00141305 20.00014041
  24.38276441 20.71178659 20.00002688
  15.78524598 20.68610039 20.00009492
  17.12874975 21.17968973 19.99991399
  24.97796226 20.43093064 19.12422941
  24.97778853 20.43148113 20.87610260
  24.25493609 21.79601527 19.99966773
  23.12182890 18.91453776 20.00044117
  21.86408841 21.70304050 19.99958681
  21.21880101 17.91131091 19.99997219
  18.94754383 16.98220401 20.00014123
  16.96728270 18.44508530 20.00013755
  15.15067440 21.56881763 20.00011739
  15.58968515 20.08819652 20.89383471
  15.58948264 20.08807817 19.10648304
  19.54390359 21.88125123 19.99971034
 


--------------------------------------------------------------------------------------------------------


 k-point   1 :   0.0000 0.0000 0.0000  plane waves: 1624525

 maximum and minimum number of plane-waves per node :    162473   162437

 maximum number of plane-waves:   1624525
 maximum index in each direction: 
   IXMAX=   72   IYMAX=   72   IZMAX=   72
   IXMIN=  -72   IYMIN=  -72   IZMIN=  -72


 real space projection operators:
  total allocation   :       2556.30 KBytes
  max/ min on nodes  :        259.61        248.52


 parallel 3D FFT for wavefunctions:
    minimum data exchange during FFTs selected (reduces bandwidth)
 parallel 3D FFT for charge:
    minimum data exchange during FFTs selected (reduces bandwidth)


 total amount of memory used by VASP MPI-rank0   897726. kBytes
=======================================================================

   base      :      30000. kBytes
   nonlr-proj:       1448. kBytes
   fftplans  :     167689. kBytes
   grid      :     662171. kBytes
   one-center:         18. kBytes
   wavefun   :      36400. kBytes
 
     INWAV:  cpu time     10.1571: real time     10.2401
 Broyden mixing: mesh for mixing (old mesh)
   NGX =145   NGY =145   NGZ =145
  (NGX  =588   NGY  =588   NGZ  =588)
  gives a total of ****** points

 initial charge density was supplied:
 charge density of overlapping atoms calculated
 number of electron      58.0000000 magnetization      23.0000000
 keeping initial charge density in first step


--------------------------------------------------------------------------------------------------------


 Maximum index for non-local projection operator          320
 Maximum index for augmentation-charges          325 (set IRDMAX)


--------------------------------------------------------------------------------------------------------


 First call to EWALD:  gamma=   0.044
 Maximum number of real-space cells 3x 3x 3
 Maximum number of reciprocal cells 3x 3x 3

    FEWALD:  cpu time      0.0015: real time      0.0015


--------------------------------------- Iteration      1(   1)  ---------------------------------------


    POTLOK:  cpu time      9.7359: real time      9.7630
    SETDIJ:  cpu time      0.4088: real time      0.4097
     EDDAV:  cpu time     63.9365: real time     64.0820
       DOS:  cpu time      0.0059: real time      0.0059
    CHARGE:  cpu time      7.7820: real time      7.7977
    MIXING:  cpu time      0.2367: real time      0.2370
    --------------------------------------------
      LOOP:  cpu time     82.1058: real time     82.2953

 eigenvalue-minimisations  :   280
 total energy-change (2. order) :-0.1434338E+03  (-0.9455596E+01)
 number of electron      57.9999998 magnetization      22.1138610
 augmentation part        1.9408696 magnetization      22.1568520

 Broyden mixing:
  rms(total) = 0.30492E+01    rms(broyden)= 0.30488E+01
  rms(prec ) = 0.30774E+01
  weight for this iteration     100.00

 Free energy of the ion-electron system (eV)
  ---------------------------------------------------
  alpha Z        PSCENC =         0.23359489
  Ewald energy   TEWEN  =      6175.83655834
  -Hartree energ DENC   =     -7552.05849662
  -exchange      EXHF   =         0.00000000
  -V(xc)+E(xc)   XCENC  =       226.88612629
  PAW double counting   =      1418.29993913    -1442.03472814
  entropy T*S    EENTRO =        -0.00000000
  eigenvalues    EBANDS =     -1024.27464470
  atomic energy  EATOM  =      2053.67780985
  Solvation  Ecorr_sol  =         0.00000000
  ---------------------------------------------------
  free energy    TOTEN  =      -143.43384096 eV

  energy without entropy =     -143.43384096  energy(sigma->0) =     -143.43384096


--------------------------------------------------------------------------------------------------------




--------------------------------------- Iteration      1(   2)  ---------------------------------------


    --------------------------------------------
      INIT:  cpu time      0.2505: real time      0.2505
  FINALIZE:  cpu time     22.8248: real time     22.8700
    --------------------------------------------
    POTLOK:  cpu time     32.8181: real time     32.8972
    SETDIJ:  cpu time      0.4062: real time      0.4070
    EDDIAG:  cpu time     13.5023: real time     13.5309
  RMM-DIIS:  cpu time     74.6827: real time     74.8471
    ORTHCH:  cpu time      0.2094: real time      0.2099
       DOS:  cpu time      0.0003: real time      0.0003
    CHARGE:  cpu time      7.6955: real time      7.7072
    MIXING:  cpu time      0.1735: real time      0.1731
    --------------------------------------------
      LOOP:  cpu time    129.4879: real time    129.7726

 eigenvalue-minimisations  :   224
 total energy-change (2. order) : 0.1792431E+02  (-0.9409450E+01)
 number of electron      57.9999997 magnetization      21.1564793
 augmentation part        1.9412719 magnetization      21.0896446

 Broyden mixing:
  rms(total) = 0.14701E+01    rms(broyden)= 0.14700E+01
  rms(prec ) = 0.14920E+01
  weight for this iteration     100.00

 eigenvalues of (default mixing * dielectric matrix)
  average eigenvalue GAMMA=   0.9581
  0.9581

 Free energy of the ion-electron system (eV)
  ---------------------------------------------------
  alpha Z        PSCENC =         0.23359489
  Ewald energy   TEWEN  =      6175.83655834
  -Hartree energ DENC   =     -7664.20057989
  -exchange      EXHF   =         0.00000000
  -V(xc)+E(xc)   XCENC  =       246.98392448
  PAW double counting   =      2473.36734270    -2498.30764427
  entropy T*S    EENTRO =        -0.00000000
  eigenvalues    EBANDS =      -908.49284921
  atomic energy  EATOM  =      2053.67780985
  Solvation  Ecorr_sol  =        -4.60769149
  ---------------------------------------------------
  free energy    TOTEN  =      -125.50953460 eV

  energy without entropy =     -125.50953460  energy(sigma->0) =     -125.50953460


--------------------------------------------------------------------------------------------------------




--------------------------------------- Iteration      1(   3)  ---------------------------------------


    --------------------------------------------
      INIT:  cpu time      0.2512: real time      0.2513
  FINALIZE:  cpu time     27.0132: real time     27.0460
    --------------------------------------------
    POTLOK:  cpu time     36.9947: real time     37.0555
    SETDIJ:  cpu time      0.4058: real time      0.4066
    EDDIAG:  cpu time     13.5079: real time     13.5341
  RMM-DIIS:  cpu time     80.4594: real time     80.6310
    ORTHCH:  cpu time      0.2143: real time      0.2148
       DOS:  cpu time      0.0002: real time      0.0002
    CHARGE:  cpu time      7.6903: real time      7.7030
    MIXING:  cpu time      0.1782: real time      0.1778
    --------------------------------------------
      LOOP:  cpu time    139.4508: real time    139.7230

 eigenvalue-minimisations  :   243
 total energy-change (2. order) :-0.2314703E+02  (-0.3783605E+01)
 number of electron      57.9999996 magnetization      19.9417750
 augmentation part        1.9084842 magnetization      19.8559253

 Broyden mixing:
  rms(total) = 0.90609E+00    rms(broyden)= 0.90605E+00
  rms(prec ) = 0.91503E+00
  weight for this iteration     100.00

 eigenvalues of (default mixing * dielectric matrix)
  average eigenvalue GAMMA=   1.1269
  0.8002  1.4536

 Free energy of the ion-electron system (eV)
  ---------------------------------------------------
  alpha Z        PSCENC =         0.23359489
  Ewald energy   TEWEN  =      6175.83655834
  -Hartree energ DENC   =     -7749.31112836
  -exchange      EXHF   =         0.00000000
  -V(xc)+E(xc)   XCENC  =       232.79906715
  PAW double counting   =      3438.80452974    -3464.43970296
  entropy T*S    EENTRO =        -0.00000000
  eigenvalues    EBANDS =      -828.06379891
  atomic energy  EATOM  =      2053.67780985
  Solvation  Ecorr_sol  =        -8.19349095
  ---------------------------------------------------
  free energy    TOTEN  =      -148.65656121 eV

  energy without entropy =     -148.65656121  energy(sigma->0) =     -148.65656121


--------------------------------------------------------------------------------------------------------




--------------------------------------- Iteration      1(   4)  ---------------------------------------


    --------------------------------------------
      INIT:  cpu time      0.2507: real time      0.2509
  FINALIZE:  cpu time     27.1517: real time     27.1886
    --------------------------------------------
    POTLOK:  cpu time     37.1066: real time     37.1698
    SETDIJ:  cpu time      0.4065: real time      0.4074
    EDDIAG:  cpu time     13.5105: real time     13.5385
  RMM-DIIS:  cpu time     92.0984: real time     92.2930
    ORTHCH:  cpu time      0.2085: real time      0.2089
       DOS:  cpu time      0.0004: real time      0.0004
    CHARGE:  cpu time      7.6881: real time      7.7005
    MIXING:  cpu time      0.1819: real time      0.1815
    --------------------------------------------
      LOOP:  cpu time    151.2009: real time    151.5001

 eigenvalue-minimisations  :   293
 total energy-change (2. order) :-0.7309045E+01  (-0.1810703E+01)
 number of electron      57.9999996 magnetization      18.8968320
 augmentation part        1.8596883 magnetization      18.8210642

 Broyden mixing:
  rms(total) = 0.60109E+00    rms(broyden)= 0.60102E+00
  rms(prec ) = 0.60536E+00
  weight for this iteration     100.00

 eigenvalues of (default mixing * dielectric matrix)
  average eigenvalue GAMMA=   1.2133
  1.8211  1.1156  0.7032

 Free energy of the ion-electron system (eV)
  ---------------------------------------------------
  alpha Z        PSCENC =         0.23359489
  Ewald energy   TEWEN  =      6175.83655834
  -Hartree energ DENC   =     -7811.88441903
  -exchange      EXHF   =         0.00000000
  -V(xc)+E(xc)   XCENC  =       230.94953026
  PAW double counting   =      4375.33981578    -4401.09603439
  entropy T*S    EENTRO =        -0.00000000
  eigenvalues    EBANDS =      -768.41378711
  atomic energy  EATOM  =      2053.67780985
  Solvation  Ecorr_sol  =       -10.60867438
  ---------------------------------------------------
  free energy    TOTEN  =      -155.96560580 eV

  energy without entropy =     -155.96560580  energy(sigma->0) =     -155.96560580


--------------------------------------------------------------------------------------------------------




--------------------------------------- Iteration      1(   5)  ---------------------------------------


    --------------------------------------------
      INIT:  cpu time      0.2517: real time      0.2518
  FINALIZE:  cpu time     30.0343: real time     30.0702
    --------------------------------------------
    POTLOK:  cpu time     40.0310: real time     40.0954
    SETDIJ:  cpu time      0.4097: real time      0.4105
    EDDIAG:  cpu time     13.5098: real time     13.5387
  RMM-DIIS:  cpu time    104.6472: real time    104.8653
    ORTHCH:  cpu time      0.2151: real time      0.2156
       DOS:  cpu time      0.0021: real time      0.0021
    CHARGE:  cpu time      7.7037: real time      7.7194
    MIXING:  cpu time      0.1949: real time      0.1950
    --------------------------------------------
      LOOP:  cpu time    166.7134: real time    167.0420

 eigenvalue-minimisations  :   338
 total energy-change (2. order) :-0.2675192E+01  (-0.4520753E+00)
 number of electron      57.9999996 magnetization      17.1309664
 augmentation part        1.8453980 magnetization      17.0711737

 Broyden mixing:
  rms(total) = 0.41672E+00    rms(broyden)= 0.41669E+00
  rms(prec ) = 0.41954E+00
  weight for this iteration     100.00

 eigenvalues of (default mixing * dielectric matrix)
  average eigenvalue GAMMA=   1.3834
  2.2191  1.7685  0.8778  0.6681

 Free energy of the ion-electron system (eV)
  ---------------------------------------------------
  alpha Z        PSCENC =         0.23359489
  Ewald energy   TEWEN  =      6175.83655834
  -Hartree energ DENC   =     -7822.24760622
  -exchange      EXHF   =         0.00000000
  -V(xc)+E(xc)   XCENC  =       229.51054632
  PAW double counting   =      4739.84922784    -4765.44546298
  entropy T*S    EENTRO =        -0.00000000
  eigenvalues    EBANDS =      -759.81617978
  atomic energy  EATOM  =      2053.67780985
  Solvation  Ecorr_sol  =       -10.23928626
  ---------------------------------------------------
  free energy    TOTEN  =      -158.64079800 eV

  energy without entropy =     -158.64079800  energy(sigma->0) =     -158.64079800


--------------------------------------------------------------------------------------------------------




--------------------------------------- Iteration      1(   6)  ---------------------------------------


    --------------------------------------------
      INIT:  cpu time      0.2544: real time      0.2545
  FINALIZE:  cpu time     30.4886: real time     30.5300
    --------------------------------------------
    POTLOK:  cpu time     40.5627: real time     40.6316
    SETDIJ:  cpu time      0.4054: real time      0.4062
    EDDIAG:  cpu time     13.4939: real time     13.5234
  RMM-DIIS:  cpu time    101.2900: real time    101.5099
    ORTHCH:  cpu time      0.2141: real time      0.2147
       DOS:  cpu time      0.0003: real time      0.0003
    CHARGE:  cpu time      7.6878: real time      7.7032
    MIXING:  cpu time      0.1933: real time      0.1934
    --------------------------------------------
      LOOP:  cpu time    163.8475: real time    164.1827

 eigenvalue-minimisations  :   326
 total energy-change (2. order) :-0.2839619E+01  (-0.2476767E+00)
 number of electron      57.9999996 magnetization      16.3486618
 augmentation part        1.8453964 magnetization      16.3014780

 Broyden mixing:
  rms(total) = 0.23561E+00    rms(broyden)= 0.23560E+00
  rms(prec ) = 0.23663E+00
  weight for this iteration     100.00

 eigenvalues of (default mixing * dielectric matrix)
  average eigenvalue GAMMA=   1.4075
  2.8231  1.6953  1.1008  0.7738  0.6446

 Free energy of the ion-electron system (eV)
  ---------------------------------------------------
  alpha Z        PSCENC =         0.23359489
  Ewald energy   TEWEN  =      6175.83655834
  -Hartree energ DENC   =     -7827.99161408
  -exchange      EXHF   =         0.00000000
  -V(xc)+E(xc)   XCENC  =       227.37934526
  PAW double counting   =      5103.80801058    -5129.02305020
  entropy T*S    EENTRO =        -0.00000000
  eigenvalues    EBANDS =      -757.71382975
  atomic energy  EATOM  =      2053.67780985
  Solvation  Ecorr_sol  =        -7.68724210
  ---------------------------------------------------
  free energy    TOTEN  =      -161.48041722 eV

  energy without entropy =     -161.48041722  energy(sigma->0) =     -161.48041722


--------------------------------------------------------------------------------------------------------




--------------------------------------- Iteration      1(   7)  ---------------------------------------


    --------------------------------------------
      INIT:  cpu time      0.2528: real time      0.2529
  FINALIZE:  cpu time     31.5261: real time     31.5643
    --------------------------------------------
    POTLOK:  cpu time     41.5338: real time     41.5965
    SETDIJ:  cpu time      0.4095: real time      0.4103
    EDDIAG:  cpu time     13.4624: real time     13.4966
  RMM-DIIS:  cpu time    105.2127: real time    105.4331
    ORTHCH:  cpu time      0.2149: real time      0.2154
       DOS:  cpu time      0.0005: real time      0.0005
    CHARGE:  cpu time      7.6997: real time      7.7153
    MIXING:  cpu time      0.1934: real time      0.1935
    --------------------------------------------
      LOOP:  cpu time    168.7267: real time    169.0612

 eigenvalue-minimisations  :   340
 total energy-change (2. order) : 0.2853085E+00  (-0.7501429E-01)
 number of electron      57.9999996 magnetization      15.2893206
 augmentation part        1.8399880 magnetization      15.2480574

 Broyden mixing:
  rms(total) = 0.19811E+00    rms(broyden)= 0.19810E+00
  rms(prec ) = 0.19895E+00
  weight for this iteration     100.00

 eigenvalues of (default mixing * dielectric matrix)
  average eigenvalue GAMMA=   1.3282
  2.8819  1.7577  0.9914  0.9914  0.7116  0.6349

 Free energy of the ion-electron system (eV)
  ---------------------------------------------------
  alpha Z        PSCENC =         0.23359489
  Ewald energy   TEWEN  =      6175.83655834
  -Hartree energ DENC   =     -7835.37632970
  -exchange      EXHF   =         0.00000000
  -V(xc)+E(xc)   XCENC  =       228.11997074
  PAW double counting   =      5160.73173030    -5185.95910455
  entropy T*S    EENTRO =        -0.00000000
  eigenvalues    EBANDS =      -752.43213530
  atomic energy  EATOM  =      2053.67780985
  Solvation  Ecorr_sol  =        -6.02720329
  ---------------------------------------------------
  free energy    TOTEN  =      -161.19510873 eV

  energy without entropy =     -161.19510873  energy(sigma->0) =     -161.19510873


--------------------------------------------------------------------------------------------------------




--------------------------------------- Iteration      1(   8)  ---------------------------------------


    --------------------------------------------
      INIT:  cpu time      0.2522: real time      0.2524
  FINALIZE:  cpu time     29.9925: real time     30.0322
    --------------------------------------------
    POTLOK:  cpu time     39.9643: real time     40.0267
    SETDIJ:  cpu time      0.4058: real time      0.4067
    EDDIAG:  cpu time     13.4746: real time     13.5032
  RMM-DIIS:  cpu time    105.3480: real time    105.5652
    ORTHCH:  cpu time      0.2223: real time      0.2229
       DOS:  cpu time      0.0026: real time      0.0026
    CHARGE:  cpu time      7.6976: real time      7.7188
    MIXING:  cpu time      0.2102: real time      0.2103
    --------------------------------------------
      LOOP:  cpu time    167.3255: real time    167.6564

 eigenvalue-minimisations  :   340
 total energy-change (2. order) : 0.1671702E+01  (-0.4785929E-01)
 number of electron      57.9999996 magnetization      11.9388639
 augmentation part        1.8364600 magnetization      11.9030647

 Broyden mixing:
  rms(total) = 0.15634E+00    rms(broyden)= 0.15634E+00
  rms(prec ) = 0.15685E+00
  weight for this iteration     100.00

 eigenvalues of (default mixing * dielectric matrix)
  average eigenvalue GAMMA=   1.7364
  4.5117  2.6435  1.6658  1.1749  0.8173  0.7193  0.6219

 Free energy of the ion-electron system (eV)
  ---------------------------------------------------
  alpha Z        PSCENC =         0.23359489
  Ewald energy   TEWEN  =      6175.83655834
  -Hartree energ DENC   =     -7839.64314947
  -exchange      EXHF   =         0.00000000
  -V(xc)+E(xc)   XCENC  =       229.73745030
  PAW double counting   =      5108.05628306    -5133.30524588
  entropy T*S    EENTRO =        -0.00000000
  eigenvalues    EBANDS =      -750.53201285
  atomic energy  EATOM  =      2053.67780985
  Solvation  Ecorr_sol  =        -3.58469540
  ---------------------------------------------------
  free energy    TOTEN  =      -159.52340717 eV

  energy without entropy =     -159.52340717  energy(sigma->0) =     -159.52340717


--------------------------------------------------------------------------------------------------------




--------------------------------------- Iteration      1(   9)  ---------------------------------------


    --------------------------------------------
      INIT:  cpu time      0.2520: real time      0.2522
  FINALIZE:  cpu time     30.1253: real time     30.1769
    --------------------------------------------
    POTLOK:  cpu time     40.0711: real time     40.1496
    SETDIJ:  cpu time      0.4155: real time      0.4163
    EDDIAG:  cpu time     13.4592: real time     13.4873
  RMM-DIIS:  cpu time    105.2945: real time    105.5193
    ORTHCH:  cpu time      0.2105: real time      0.2110
       DOS:  cpu time      0.0008: real time      0.0008
    CHARGE:  cpu time      7.7056: real time      7.7188
    MIXING:  cpu time      0.2039: real time      0.2038
    --------------------------------------------
      LOOP:  cpu time    167.3611: real time    167.7070

 eigenvalue-minimisations  :   340
 total energy-change (2. order) : 0.2682653E+01  (-0.8772668E-01)
 number of electron      57.9999995 magnetization      11.3614910
 augmentation part        1.8328087 magnetization      11.3344353

 Broyden mixing:
  rms(total) = 0.85891E-01    rms(broyden)= 0.85885E-01
  rms(prec ) = 0.86441E-01
  weight for this iteration     100.00

 eigenvalues of (default mixing * dielectric matrix)
  average eigenvalue GAMMA=   1.7665
  5.7843  2.6009  1.7212  0.9872  0.9323  0.7399  0.7399  0.6266

 Free energy of the ion-electron system (eV)
  ---------------------------------------------------
  alpha Z        PSCENC =         0.23359489
  Ewald energy   TEWEN  =      6175.83655834
  -Hartree energ DENC   =     -7850.41632749
  -exchange      EXHF   =         0.00000000
  -V(xc)+E(xc)   XCENC  =       232.41240726
  PAW double counting   =      5026.38832306    -5051.62665573
  entropy T*S    EENTRO =        -0.00000000
  eigenvalues    EBANDS =      -746.77395256
  atomic energy  EATOM  =      2053.67780985
  Solvation  Ecorr_sol  =         3.42748799
  ---------------------------------------------------
  free energy    TOTEN  =      -156.84075439 eV

  energy without entropy =     -156.84075439  energy(sigma->0) =     -156.84075439


--------------------------------------------------------------------------------------------------------




--------------------------------------- Iteration      1(  10)  ---------------------------------------


    --------------------------------------------
      INIT:  cpu time      0.2525: real time      0.2526
  FINALIZE:  cpu time     31.6234: real time     31.6669
    --------------------------------------------
    POTLOK:  cpu time     41.5953: real time     41.6636
    SETDIJ:  cpu time      0.4047: real time      0.4055
    EDDIAG:  cpu time     13.3639: real time     13.3908
  RMM-DIIS:  cpu time    105.3149: real time    105.5299
    ORTHCH:  cpu time      0.2141: real time      0.2146
       DOS:  cpu time      0.0004: real time      0.0004
    CHARGE:  cpu time      7.6892: real time      7.7022
    MIXING:  cpu time      0.2119: real time      0.2115
    --------------------------------------------
      LOOP:  cpu time    168.7944: real time    169.1185

 eigenvalue-minimisations  :   340
 total energy-change (2. order) : 0.3637792E+00  (-0.2014076E-01)
 number of electron      57.9999995 magnetization      10.2228227
 augmentation part        1.8308949 magnetization      10.1996786

 Broyden mixing:
  rms(total) = 0.69503E-01    rms(broyden)= 0.69500E-01
  rms(prec ) = 0.69889E-01
  weight for this iteration     100.00

 eigenvalues of (default mixing * dielectric matrix)
  average eigenvalue GAMMA=   1.7682
  6.4898  2.4856  1.5438  1.5438  0.9808  0.6230  0.7394  0.7394  0.7686

 Free energy of the ion-electron system (eV)
  ---------------------------------------------------
  alpha Z        PSCENC =         0.23359489
  Ewald energy   TEWEN  =      6175.83655834
  -Hartree energ DENC   =     -7851.51972425
  -exchange      EXHF   =         0.00000000
  -V(xc)+E(xc)   XCENC  =       232.81858381
  PAW double counting   =      5048.72853371    -5073.95510534
  entropy T*S    EENTRO =        -0.00000000
  eigenvalues    EBANDS =      -746.51397860
  atomic energy  EATOM  =      2053.67780985
  Solvation  Ecorr_sol  =         4.21675240
  ---------------------------------------------------
  free energy    TOTEN  =      -156.47697519 eV

  energy without entropy =     -156.47697519  energy(sigma->0) =     -156.47697519


--------------------------------------------------------------------------------------------------------




--------------------------------------- Iteration      1(  11)  ---------------------------------------


    --------------------------------------------
      INIT:  cpu time      0.2510: real time      0.2512
  FINALIZE:  cpu time     27.1883: real time     27.2237
    --------------------------------------------
    POTLOK:  cpu time     37.1339: real time     37.1954
    SETDIJ:  cpu time      0.4096: real time      0.4104
    EDDIAG:  cpu time     13.4452: real time     13.4740
  RMM-DIIS:  cpu time    105.1044: real time    105.3252
    ORTHCH:  cpu time      0.2143: real time      0.2148
       DOS:  cpu time      0.0004: real time      0.0004
    CHARGE:  cpu time      7.6950: real time      7.7109
    MIXING:  cpu time      0.2238: real time      0.2239
    --------------------------------------------
      LOOP:  cpu time    164.2265: real time    164.5550

 eigenvalue-minimisations  :   340
 total energy-change (2. order) : 0.1223339E+01  (-0.1532150E-01)
 number of electron      57.9999995 magnetization       8.7116980
 augmentation part        1.8310720 magnetization       8.6919029

 Broyden mixing:
  rms(total) = 0.53867E-01    rms(broyden)= 0.53864E-01
  rms(prec ) = 0.54024E-01
  weight for this iteration     100.00

 eigenvalues of (default mixing * dielectric matrix)
  average eigenvalue GAMMA=   1.9670
  7.8770  2.5742  2.5742  1.7755  1.0220  1.0220  0.7507  0.7507  0.6248  0.6988

 Free energy of the ion-electron system (eV)
  ---------------------------------------------------
  alpha Z        PSCENC =         0.23359489
  Ewald energy   TEWEN  =      6175.83655834
  -Hartree energ DENC   =     -7850.91362916
  -exchange      EXHF   =         0.00000000
  -V(xc)+E(xc)   XCENC  =       233.96064630
  PAW double counting   =      5056.83439568    -5082.03626250
  entropy T*S    EENTRO =        -0.00000000
  eigenvalues    EBANDS =      -748.47895743
  atomic energy  EATOM  =      2053.67780985
  Solvation  Ecorr_sol  =         5.63220738
  ---------------------------------------------------
  free energy    TOTEN  =      -155.25363665 eV

  energy without entropy =     -155.25363665  energy(sigma->0) =     -155.25363665


--------------------------------------------------------------------------------------------------------




--------------------------------------- Iteration      1(  12)  ---------------------------------------


    --------------------------------------------
      INIT:  cpu time      0.2513: real time      0.2513
  FINALIZE:  cpu time     27.1160: real time     27.1544
    --------------------------------------------
    POTLOK:  cpu time     37.0650: real time     37.1296
    SETDIJ:  cpu time      0.4120: real time      0.4128
    EDDIAG:  cpu time     13.5190: real time     13.5460
  RMM-DIIS:  cpu time    105.0886: real time    105.3296
    ORTHCH:  cpu time      0.2097: real time      0.2102
       DOS:  cpu time      0.0004: real time      0.0003
    CHARGE:  cpu time      7.7202: real time      7.7331
    MIXING:  cpu time      0.2245: real time      0.2238
    --------------------------------------------
      LOOP:  cpu time    164.2393: real time    164.5855

 eigenvalue-minimisations  :   340
 total energy-change (2. order) : 0.1412962E+01  (-0.1238418E-01)
 number of electron      57.9999995 magnetization       8.0828072
 augmentation part        1.8307592 magnetization       8.0663245

 Broyden mixing:
  rms(total) = 0.41390E-01    rms(broyden)= 0.41387E-01
  rms(prec ) = 0.41600E-01
  weight for this iteration     100.00

 eigenvalues of (default mixing * dielectric matrix)
  average eigenvalue GAMMA=   1.9177
  8.2780  3.0184  2.3038  1.6084  1.0874  1.0874  0.9070  0.7411  0.7411  0.6267
  0.6956

 Free energy of the ion-electron system (eV)
  ---------------------------------------------------
  alpha Z        PSCENC =         0.23359489
  Ewald energy   TEWEN  =      6175.83655834
  -Hartree energ DENC   =     -7851.67685934
  -exchange      EXHF   =         0.00000000
  -V(xc)+E(xc)   XCENC  =       235.35325895
  PAW double counting   =      5039.71041503    -5064.93248581
  entropy T*S    EENTRO =        -0.00000000
  eigenvalues    EBANDS =      -749.41328198
  atomic energy  EATOM  =      2053.67780985
  Solvation  Ecorr_sol  =         7.37031500
  ---------------------------------------------------
  free energy    TOTEN  =      -153.84067507 eV

  energy without entropy =     -153.84067507  energy(sigma->0) =     -153.84067507


--------------------------------------------------------------------------------------------------------




--------------------------------------- Iteration      1(  13)  ---------------------------------------


    --------------------------------------------
      INIT:  cpu time      0.2526: real time      0.2528
  FINALIZE:  cpu time     28.6253: real time     28.6658
    --------------------------------------------
    POTLOK:  cpu time     38.5776: real time     38.6460
    SETDIJ:  cpu time      0.4059: real time      0.4067
    EDDIAG:  cpu time     13.4509: real time     13.4803
  RMM-DIIS:  cpu time    105.1436: real time    105.3618
    ORTHCH:  cpu time      0.2202: real time      0.2207
       DOS:  cpu time      0.0010: real time      0.0010
    CHARGE:  cpu time      7.7283: real time      7.7443
    MIXING:  cpu time      0.2354: real time      0.2355
    --------------------------------------------
      LOOP:  cpu time    165.7628: real time    166.0964

 eigenvalue-minimisations  :   340
 total energy-change (2. order) : 0.4982712E+00  (-0.1967048E-02)
 number of electron      57.9999995 magnetization       6.4147548
 augmentation part        1.8301759 magnetization       6.3998403

 Broyden mixing:
  rms(total) = 0.35542E-01    rms(broyden)= 0.35541E-01
  rms(prec ) = 0.35616E-01
  weight for this iteration     100.00

 eigenvalues of (default mixing * dielectric matrix)
  average eigenvalue GAMMA=   2.0148
  8.8177  3.4225  2.1794  2.1794  1.8763  1.1448  1.0260  0.7356  0.7356  0.7599
  0.6260  0.6746

 Free energy of the ion-electron system (eV)
  ---------------------------------------------------
  alpha Z        PSCENC =         0.23359489
  Ewald energy   TEWEN  =      6175.83655834
  -Hartree energ DENC   =     -7852.08881471
  -exchange      EXHF   =         0.00000000
  -V(xc)+E(xc)   XCENC  =       235.87501682
  PAW double counting   =      5039.39936399    -5064.63234637
  entropy T*S    EENTRO =        -0.00000000
  eigenvalues    EBANDS =      -749.22743607
  atomic energy  EATOM  =      2053.67780985
  Solvation  Ecorr_sol  =         7.58384937
  ---------------------------------------------------
  free energy    TOTEN  =      -153.34240389 eV

  energy without entropy =     -153.34240389  energy(sigma->0) =     -153.34240389


--------------------------------------------------------------------------------------------------------




--------------------------------------- Iteration      1(  14)  ---------------------------------------


    --------------------------------------------
      INIT:  cpu time      0.2512: real time      0.2513
  FINALIZE:  cpu time     28.5362: real time     28.5821
    --------------------------------------------
    POTLOK:  cpu time     38.5763: real time     38.6489
    SETDIJ:  cpu time      0.4057: real time      0.4065
    EDDIAG:  cpu time     13.5403: real time     13.5687
  RMM-DIIS:  cpu time    105.3359: real time    105.5563
    ORTHCH:  cpu time      0.2126: real time      0.2130
       DOS:  cpu time      0.0003: real time      0.0003
    CHARGE:  cpu time      7.7207: real time      7.7366
    MIXING:  cpu time      0.2424: real time      0.2425
    --------------------------------------------
      LOOP:  cpu time    166.0341: real time    166.3727

 eigenvalue-minimisations  :   340
 total energy-change (2. order) : 0.1280643E+01  ( 0.6509904E-02)
 number of electron      57.9999995 magnetization       5.6674770
 augmentation part        1.8294525 magnetization       5.6541208

 Broyden mixing:
  rms(total) = 0.28395E-01    rms(broyden)= 0.28393E-01
  rms(prec ) = 0.28489E-01
  weight for this iteration     100.00

 eigenvalues of (default mixing * dielectric matrix)
  average eigenvalue GAMMA=   2.0987
  9.6587  4.7414  2.4461  2.1060  1.5588  1.1969  1.1969  0.9364  0.7123  0.7123
  0.7379  0.6316  0.6479

 Free energy of the ion-electron system (eV)
  ---------------------------------------------------
  alpha Z        PSCENC =         0.23359489
  Ewald energy   TEWEN  =      6175.83655834
  -Hartree energ DENC   =     -7851.46822407
  -exchange      EXHF   =         0.00000000
  -V(xc)+E(xc)   XCENC  =       237.13091172
  PAW double counting   =      5048.01710747    -5073.25107521
  entropy T*S    EENTRO =        -0.00000000
  eigenvalues    EBANDS =      -750.23807303
  atomic energy  EATOM  =      2053.67780985
  Solvation  Ecorr_sol  =         7.99962953
  ---------------------------------------------------
  free energy    TOTEN  =      -152.06176052 eV

  energy without entropy =     -152.06176052  energy(sigma->0) =     -152.06176052


--------------------------------------------------------------------------------------------------------




--------------------------------------- Iteration      1(  15)  ---------------------------------------


    --------------------------------------------
      INIT:  cpu time      0.2525: real time      0.2528
  FINALIZE:  cpu time     27.3492: real time     27.3883
    --------------------------------------------
    POTLOK:  cpu time     37.2803: real time     37.3468
    SETDIJ:  cpu time      0.4085: real time      0.4093
    EDDIAG:  cpu time     13.5158: real time     13.5439
  RMM-DIIS:  cpu time    105.3955: real time    105.6198
    ORTHCH:  cpu time      0.2125: real time      0.2130
       DOS:  cpu time      0.0004: real time      0.0004
    CHARGE:  cpu time      7.7214: real time      7.7338
    MIXING:  cpu time      0.2533: real time      0.2533
    --------------------------------------------
      LOOP:  cpu time    164.7877: real time    165.1202

 eigenvalue-minimisations  :   340
 total energy-change (2. order) : 0.4238600E+00  (-0.2381805E-02)
 number of electron      57.9999995 magnetization       4.7546687
 augmentation part        1.8284403 magnetization       4.7426809

 Broyden mixing:
  rms(total) = 0.24856E-01    rms(broyden)= 0.24855E-01
  rms(prec ) = 0.24919E-01
  weight for this iteration     100.00

 eigenvalues of (default mixing * dielectric matrix)
  average eigenvalue GAMMA=   2.0895
 10.0892  5.1757  2.5785  2.1542  1.4622  1.4622  1.1729  0.8851  0.8851  0.7329
  0.6993  0.6993  0.6281  0.6281

 Free energy of the ion-electron system (eV)
  ---------------------------------------------------
  alpha Z        PSCENC =         0.23359489
  Ewald energy   TEWEN  =      6175.83655834
  -Hartree energ DENC   =     -7850.69240449
  -exchange      EXHF   =         0.00000000
  -V(xc)+E(xc)   XCENC  =       237.51783113
  PAW double counting   =      5049.02025737    -5074.24837510
  entropy T*S    EENTRO =        -0.00000000
  eigenvalues    EBANDS =      -751.10491356
  atomic energy  EATOM  =      2053.67780985
  Solvation  Ecorr_sol  =         8.12174109
  ---------------------------------------------------
  free energy    TOTEN  =      -151.63790048 eV

  energy without entropy =     -151.63790048  energy(sigma->0) =     -151.63790048


--------------------------------------------------------------------------------------------------------




--------------------------------------- Iteration      1(  16)  ---------------------------------------


    --------------------------------------------
      INIT:  cpu time      0.2550: real time      0.2551
  FINALIZE:  cpu time     28.5414: real time     28.5737
    --------------------------------------------
    POTLOK:  cpu time     38.5340: real time     38.5925
    SETDIJ:  cpu time      0.4054: real time      0.4062
    EDDIAG:  cpu time     13.5127: real time     13.5405
  RMM-DIIS:  cpu time    105.4033: real time    105.6272
    ORTHCH:  cpu time      0.2087: real time      0.2092
       DOS:  cpu time      0.0010: real time      0.0010
    CHARGE:  cpu time      7.7140: real time      7.7300
    MIXING:  cpu time      0.2627: real time      0.2629
    --------------------------------------------
      LOOP:  cpu time    166.0419: real time    166.3696

 eigenvalue-minimisations  :   340
 total energy-change (2. order) : 0.5571919E+00  (-0.1672917E-02)
 number of electron      57.9999995 magnetization       2.9599581
 augmentation part        1.8286077 magnetization       2.9493358

 Broyden mixing:
  rms(total) = 0.20995E-01    rms(broyden)= 0.20994E-01
  rms(prec ) = 0.21020E-01
  weight for this iteration     100.00

 eigenvalues of (default mixing * dielectric matrix)
  average eigenvalue GAMMA=   2.2234
 10.8572  6.0619  3.0584  2.4654  1.6448  1.6448  1.2510  1.2510  0.9437  0.7138
  0.7138  0.7463  0.7463  0.6262  0.6262

 Free energy of the ion-electron system (eV)
  ---------------------------------------------------
  alpha Z        PSCENC =         0.23359489
  Ewald energy   TEWEN  =      6175.83655834
  -Hartree energ DENC   =     -7849.40200824
  -exchange      EXHF   =         0.00000000
  -V(xc)+E(xc)   XCENC  =       238.02809079
  PAW double counting   =      5050.11883365    -5075.33206504
  entropy T*S    EENTRO =        -0.00000000
  eigenvalues    EBANDS =      -752.18900089
  atomic energy  EATOM  =      2053.67780985
  Solvation  Ecorr_sol  =         7.94747806
  ---------------------------------------------------
  free energy    TOTEN  =      -151.08070857 eV

  energy without entropy =     -151.08070857  energy(sigma->0) =     -151.08070857


--------------------------------------------------------------------------------------------------------




--------------------------------------- Iteration      1(  17)  ---------------------------------------


    --------------------------------------------
      INIT:  cpu time      0.2531: real time      0.2524
  FINALIZE:  cpu time     28.5406: real time     28.5767
    --------------------------------------------
    POTLOK:  cpu time     38.4998: real time     38.5624
    SETDIJ:  cpu time      0.4086: real time      0.4095
    EDDIAG:  cpu time     13.5026: real time     13.5293
  RMM-DIIS:  cpu time    105.5273: real time    105.7465
    ORTHCH:  cpu time      0.2065: real time      0.2070
       DOS:  cpu time      0.0002: real time      0.0002
    CHARGE:  cpu time      7.7227: real time      7.7354
    MIXING:  cpu time      0.2815: real time      0.2814
    --------------------------------------------
      LOOP:  cpu time    166.1492: real time    166.4717

 eigenvalue-minimisations  :   340
 total energy-change (2. order) : 0.1048820E+01  ( 0.1226079E-02)
 number of electron      57.9999995 magnetization       2.1753253
 augmentation part        1.8284739 magnetization       2.1657765

 Broyden mixing:
  rms(total) = 0.17598E-01    rms(broyden)= 0.17597E-01
  rms(prec ) = 0.17687E-01
  weight for this iteration     100.00

 eigenvalues of (default mixing * dielectric matrix)
  average eigenvalue GAMMA=   2.2401
 11.4175  6.6519  3.3414  2.5820  1.8444  1.4660  1.4660  1.1825  0.8837  0.8837
  0.6854  0.6854  0.7449  0.7449  0.6311  0.6311

 Free energy of the ion-electron system (eV)
  ---------------------------------------------------
  alpha Z        PSCENC =         0.23359489
  Ewald energy   TEWEN  =      6175.83655834
  -Hartree energ DENC   =     -7848.00386154
  -exchange      EXHF   =         0.00000000
  -V(xc)+E(xc)   XCENC  =       239.04043390
  PAW double counting   =      5051.40912997    -5076.61332374
  entropy T*S    EENTRO =        -0.00000000
  eigenvalues    EBANDS =      -753.09092822
  atomic energy  EATOM  =      2053.67780985
  Solvation  Ecorr_sol  =         7.47869805
  ---------------------------------------------------
  free energy    TOTEN  =      -150.03188850 eV

  energy without entropy =     -150.03188850  energy(sigma->0) =     -150.03188850


--------------------------------------------------------------------------------------------------------




--------------------------------------- Iteration      1(  18)  ---------------------------------------


    --------------------------------------------
      INIT:  cpu time      0.2559: real time      0.2560
  FINALIZE:  cpu time     30.0511: real time     30.0425
    --------------------------------------------
    POTLOK:  cpu time     40.0373: real time     40.0508
    SETDIJ:  cpu time      0.4115: real time      0.4123
    EDDIAG:  cpu time     13.5198: real time     13.5453
  RMM-DIIS:  cpu time    105.4941: real time    105.7108
    ORTHCH:  cpu time      0.2083: real time      0.2089
       DOS:  cpu time      0.0006: real time      0.0006
[...]
    --------------------------------------------
    POTLOK:  cpu time     38.6411: real time     38.7004
    SETDIJ:  cpu time      0.4059: real time      0.4068
    EDDIAG:  cpu time     13.4821: real time     13.5108
  RMM-DIIS:  cpu time     74.4142: real time     74.5698
    ORTHCH:  cpu time      0.2196: real time      0.2201
       DOS:  cpu time      0.0005: real time      0.0005
    --------------------------------------------
      LOOP:  cpu time    127.1634: real time    127.4083

 eigenvalue-minimisations  :   220
 total energy-change (2. order) :-0.3797319E-05  (-0.7158459E-05)
 number of electron      57.9999996 magnetization       0.0000889
 augmentation part        1.8290381 magnetization       0.0000891

 Free energy of the ion-electron system (eV)
  ---------------------------------------------------
  alpha Z        PSCENC =         0.23359489
  Ewald energy   TEWEN  =      6181.30891810
  -Hartree energ DENC   =     -7852.56783707
  -exchange      EXHF   =         0.00000000
  -V(xc)+E(xc)   XCENC  =       240.50024599
  PAW double counting   =      5063.89882129    -5089.12040502
  entropy T*S    EENTRO =        -0.00000000
  eigenvalues    EBANDS =      -753.74818840
  atomic energy  EATOM  =      2053.67780985
  Solvation  Ecorr_sol  =         7.14411429
  ---------------------------------------------------
  free energy    TOTEN  =      -148.67292608 eV

  energy without entropy =     -148.67292608  energy(sigma->0) =     -148.67292608


--------------------------------------------------------------------------------------------------------




 average (electrostatic) potential at core
  the test charge radii are     0.6991  0.7215  0.5201
  (the norm of the test charge is              1.0000)
       1 -60.7518       2 -62.2734       3 -60.8075       4 -60.9020       5 -60.6574
       6 -61.1208       7 -60.7623       8 -60.8675       9 -60.5525      10 -61.8594
      11 -84.9799      12 -44.0932      13 -44.0932      14 -44.0513      15 -44.3145
      16 -44.2193      17 -44.3040      18 -44.3433      19 -44.5584      20 -44.5176
      21 -44.4418      22 -44.4417      23 -44.3828
 
 
 
 E-fermi :  -5.1471     XC(G=0):  -0.0399     alpha+bet : -0.0220

 Fermi energy:        -5.1471389649

 spin component 1

 k-point     1 :       0.0000    0.0000    0.0000
  band No.  band energies     occupation 
      1     -28.1019      1.00000
      2     -22.4736      1.00000
      3     -20.9258      1.00000
      4     -19.7365      1.00000
      5     -19.5875      1.00000
      6     -18.0625      1.00000
      7     -17.7061      1.00000
      8     -15.6402      1.00000
      9     -15.5401      1.00000
     10     -14.1726      1.00000
     11     -13.4410      1.00000
     12     -12.4196      1.00000
     13     -12.2348      1.00000
     14     -11.8708      1.00000
     15     -11.7338      1.00000
     16     -10.9700      1.00000
     17     -10.6256      1.00000
     18     -10.4705      1.00000
     19     -10.1018      1.00000
     20      -9.7543      1.00000
     21      -9.7280      1.00000
     22      -9.2572      1.00000
     23      -8.8001      1.00000
     24      -8.6006      1.00000
     25      -8.3319      1.00000
     26      -8.0417      1.00000
     27      -7.3206      1.00000
     28      -5.7879      1.00000
     29      -5.4371      1.00000
     30      -1.6176      0.00000
     31      -0.8254      0.00000
     32      -0.0377      0.00000
     33       0.0332      0.00000
     34       0.0895      0.00000
     35       0.0968      0.00000
     36       0.0991      0.00000
     37       0.1025      0.00000
     38       0.1034      0.00000
     39       0.1474      0.00000
     40       0.1638      0.00000
     41       0.1785      0.00000
     42       0.1869      0.00000
     43       0.1929      0.00000
     44       0.1934      0.00000
     45       0.1949      0.00000
     46       0.1960      0.00000
     47       0.1967      0.00000
     48       0.1970      0.00000
     49       0.1972      0.00000
     50       0.1982      0.00000
     51       0.2641      0.00000
     52       0.2707      0.00000
     53       0.2756      0.00000
     54       0.2825      0.00000
     55       0.2868      0.00000
     56       0.2893      0.00000
 Fermi energy:        -5.1471389649

 spin component 2

 k-point     1 :       0.0000    0.0000    0.0000
  band No.  band energies     occupation 
      1     -28.1019      1.00000
      2     -22.4736      1.00000
      3     -20.9258      1.00000
      4     -19.7365      1.00000
      5     -19.5875      1.00000
      6     -18.0625      1.00000
      7     -17.7061      1.00000
      8     -15.6402      1.00000
      9     -15.5401      1.00000
     10     -14.1726      1.00000
     11     -13.4410      1.00000
     12     -12.4196      1.00000
     13     -12.2348      1.00000
     14     -11.8708      1.00000
     15     -11.7338      1.00000
     16     -10.9700      1.00000
     17     -10.6256      1.00000
     18     -10.4705      1.00000
     19     -10.1018      1.00000
     20      -9.7543      1.00000
     21      -9.7280      1.00000
     22      -9.2572      1.00000
     23      -8.8001      1.00000
     24      -8.6006      1.00000
     25      -8.3319      1.00000
     26      -8.0417      1.00000
     27      -7.3206      1.00000
     28      -5.7879      1.00000
     29      -5.4371      1.00000
     30      -1.6176      0.00000
     31      -0.8254      0.00000
     32      -0.0370      0.00000
     33       0.0359      0.00000
     34       0.0919      0.00000
     35       0.0996      0.00000
     36       0.1018      0.00000
     37       0.1054      0.00000
     38       0.1061      0.00000
     39       0.1495      0.00000
     40       0.1664      0.00000
     41       0.1806      0.00000
     42       0.1890      0.00000
     43       0.1960      0.00000
     44       0.1963      0.00000
     45       0.1982      0.00000
     46       0.1988      0.00000
     47       0.1995      0.00000
     48       0.2000      0.00000
     49       0.2002      0.00000
     50       0.2005      0.00000
     51       0.2668      0.00000
     52       0.2732      0.00000
     53       0.2775      0.00000
     54       0.2849      0.00000
     55       0.2896      0.00000
     56       0.2913      0.00000


--------------------------------------------------------------------------------------------------------


 soft charge-density along one line, spin component           1
         0         1         2         3         4         5         6         7         8         9
 total charge-density along one line
 
 soft charge-density along one line, spin component           2
         0         1         2         3         4         5         6         7         8         9
 total charge-density along one line
 
 pseudopotential strength for first ion, spin component:           1
 10.442  13.884   0.001  -0.000  -0.002   0.002   0.000   0.004
 13.884  18.460   0.001  -0.000  -0.002   0.003   0.000   0.006
  0.001   0.001  -4.353   0.000   0.002   8.444  -0.000  -0.004
 -0.000  -0.000   0.000  -4.305   0.000  -0.000   8.370  -0.000
 -0.002  -0.002   0.002   0.000  -4.362  -0.004  -0.000   8.457
  0.002   0.003   8.444  -0.000  -0.004 -18.647   0.000   0.005
  0.000   0.000  -0.000   8.370  -0.000   0.000 -18.547   0.000
  0.004   0.006  -0.004  -0.000   8.457   0.005   0.000 -18.666
 pseudopotential strength for first ion, spin component:           2
 10.442  13.884   0.001  -0.000  -0.002   0.002   0.000   0.004
 13.884  18.460   0.001  -0.000  -0.002   0.003   0.000   0.006
  0.001   0.001  -4.353   0.000   0.002   8.444  -0.000  -0.004
 -0.000  -0.000   0.000  -4.305   0.000  -0.000   8.370  -0.000
 -0.002  -0.002   0.002   0.000  -4.362  -0.004  -0.000   8.457
  0.002   0.003   8.444  -0.000  -0.004 -18.647   0.000   0.005
  0.000   0.000  -0.000   8.370  -0.000   0.000 -18.547   0.000
  0.004   0.006  -0.004  -0.000   8.457   0.005   0.000 -18.666
 total augmentation occupancy for first ion, spin component:           1
  9.007  -4.096  -0.252   0.000  -0.066  -0.052   0.000  -0.013
 -4.096   1.907   0.167  -0.000   0.053   0.032  -0.000   0.008
 -0.252   0.167   1.774  -0.000  -0.024   0.167  -0.000  -0.003
  0.000  -0.000  -0.000   1.236  -0.000  -0.000   0.079  -0.000
 -0.066   0.053  -0.024  -0.000   1.887  -0.003  -0.000   0.189
 -0.052   0.032   0.167  -0.000  -0.003   0.016  -0.000  -0.000
  0.000  -0.000  -0.000   0.079  -0.000  -0.000   0.005  -0.000
 -0.013   0.008  -0.003  -0.000   0.189  -0.000  -0.000   0.020
 total augmentation occupancy for first ion, spin component:           2
 -0.000   0.000  -0.000   0.000  -0.000  -0.000   0.000  -0.000
  0.000  -0.000   0.000  -0.000   0.000   0.000  -0.000   0.000
 -0.000   0.000   0.000  -0.000   0.000  -0.000   0.000  -0.000
  0.000  -0.000  -0.000  -0.000   0.000  -0.000   0.000  -0.000
 -0.000   0.000   0.000   0.000   0.000  -0.000  -0.000   0.000
 -0.000   0.000  -0.000  -0.000  -0.000  -0.000   0.000  -0.000
  0.000  -0.000   0.000   0.000  -0.000   0.000   0.000  -0.000
 -0.000   0.000  -0.000  -0.000   0.000  -0.000  -0.000   0.000


------------------------ aborting loop because EDIFF is reached ----------------------------------------


    CHARGE:  cpu time      1.6662: real time      1.6697
    FORLOC:  cpu time      0.4052: real time      0.4055
    FORNL :  cpu time      5.3326: real time      5.3442
    STRESS:  cpu time    135.1092: real time    135.3392
    FORCOR:  cpu time      7.7294: real time      7.7433
    FORHAR:  cpu time      0.9283: real time      0.9287
    MIXING:  cpu time      0.1138: real time      0.1141
    OFIELD:  cpu time      0.0000: real time      0.0000

 ---------------------------------------------------------------------------------------------

         DFTD3 V3.0 Rev 1        
 Edisp (eV)   -0.19010

 E6    (eV) :    -0.1496
 E8    (eV) :    -0.0405
 % E8        : 21.29
    FORVDW:  cpu time      0.0066: real time      0.0066

  FORCE on cell =-STRESS in cart. coord.  units (eV):
  Direction    XX          YY          ZZ          XY          YZ          ZX
  --------------------------------------------------------------------------------------
  Alpha Z     0.23359     0.23359     0.23359
  Ewald    4482.86959  2067.13307  -368.69420   -73.69431    -0.21710    -0.04685
  Hartree  4508.38642  2447.78372   889.45903   -43.80659    -0.12359    -0.02920
  E(xc)    -219.00309  -219.01858  -220.64578     0.09260    -0.00019     0.00009
  Local   -9523.17129 -5056.67120 -1156.46789   109.44944     0.32921     0.07289
  n-local   -85.63111   -90.98993   -87.18385     0.59672    -0.00113    -0.00062
  augment     2.68843     3.94419     5.42360     0.35449     0.00013     0.00024
  Kinetic   833.36410   847.44261   937.61614     6.99511     0.01060     0.00308
  Fock        0.00000     0.00000     0.00000     0.00000     0.00000     0.00000
  vdW        -0.11515    -0.02903    -0.00137    -0.00464     0.00000     0.00000
  -------------------------------------------------------------------------------------
  Total      -0.37850    -0.17155    -0.26072    -0.01720    -0.00207    -0.00037
  in kB      -0.00948    -0.00429    -0.00653    -0.00043    -0.00005    -0.00001
  external pressure =       -0.01 kB  Pullay stress =        0.00 kB


 VOLUME and BASIS-vectors are now :
 -----------------------------------------------------------------------------
  energy-cutoff  :      500.00
  volume of cell :    64000.00
      direct lattice vectors                 reciprocal lattice vectors
    40.000000000  0.000000000  0.000000000     0.025000000  0.000000000  0.000000000
     0.000000000 40.000000000  0.000000000     0.000000000  0.025000000  0.000000000
     0.000000000  0.000000000 40.000000000     0.000000000  0.000000000  0.025000000

  length of vectors
    40.000000000 40.000000000 40.000000000     0.025000000  0.025000000  0.025000000


 FORCES acting on ions
    electron-ion (+dipol)            ewald-force                    non-local-force                 convergence-correction
 -----------------------------------------------------------------------------------------------
   -.306E+02 -.170E+03 0.298E-01   0.316E+02 0.172E+03 -.298E-01   -.101E+01 -.122E+01 0.290E-03   0.360E-02 -.974E-02 -.278E-05
   0.259E+02 -.902E+01 0.196E-01   -.208E+02 0.456E+01 -.196E-01   -.510E+01 0.442E+01 0.118E-04   0.714E-02 -.841E-02 0.745E-06
   0.142E+03 0.149E+03 -.140E-01   -.143E+03 -.150E+03 0.143E-01   0.768E+00 0.145E+01 -.239E-03   0.939E-02 0.623E-02 0.128E-05
   0.290E+02 0.227E+03 -.193E-01   -.286E+02 -.227E+03 0.193E-01   -.377E+00 0.762E+00 -.114E-02   0.146E-02 0.983E-02 0.146E-04
   -.109E+03 0.165E+03 -.193E-02   0.110E+03 -.166E+03 0.195E-02   -.691E+00 0.725E+00 -.779E-04   -.105E-01 0.851E-02 -.946E-05
   -.776E+02 -.211E+02 0.187E-01   0.779E+02 0.206E+02 -.186E-01   -.313E+00 0.518E+00 0.448E-04   -.691E-02 0.137E-02 -.496E-05
   -.568E+02 -.110E+03 0.925E-02   0.572E+02 0.110E+03 -.873E-02   -.384E+00 -.483E+00 -.507E-03   -.853E-02 -.198E-03 -.331E-04
   -.129E+03 0.677E+02 -.167E-01   0.129E+03 -.677E+02 0.164E-01   -.503E-01 0.650E-01 -.666E-03   0.154E-02 -.217E-02 -.956E-04
   -.164E+03 -.482E+02 -.263E-02   0.164E+03 0.488E+02 0.269E-02   -.188E+00 -.642E+00 -.325E-04   -.571E-03 -.466E-03 -.939E-04
   0.242E+03 -.464E+01 -.237E-01   -.249E+03 0.250E+01 0.244E-01   0.632E+01 0.212E+01 -.321E-02   -.350E-02 -.992E-03 0.387E-04
   0.126E+03 -.280E+03 0.257E-01   -.121E+03 0.325E+03 -.304E-01   -.531E+01 -.447E+02 0.486E-02   -.420E-03 0.176E-02 -.576E-04
   -.579E+02 0.917E+01 0.507E+02   0.610E+02 -.106E+02 -.552E+02   -.312E+01 0.141E+01 0.454E+01   -.118E-03 -.163E-04 -.136E-03
   -.578E+02 0.914E+01 -.507E+02   0.610E+02 -.105E+02 0.552E+02   -.312E+01 0.141E+01 -.454E+01   -.106E-03 -.212E-04 0.133E-03
   -.235E+02 -.710E+02 0.205E-01   0.228E+02 0.767E+02 -.223E-01   0.622E+00 -.575E+01 0.189E-02   -.195E-03 0.529E-04 -.986E-05
   -.323E+02 0.715E+02 -.261E-01   0.325E+02 -.774E+02 0.279E-01   -.260E+00 0.591E+01 -.201E-02   -.145E-03 -.137E-03 -.166E-04
   -.132E+02 -.827E+02 0.206E-01   0.132E+02 0.886E+02 -.221E-01   0.223E-01 -.587E+01 0.160E-02   -.867E-03 -.262E-03 -.113E-05
   -.552E+02 0.687E+02 -.456E-03   0.599E+02 -.724E+02 0.540E-03   -.468E+01 0.374E+01 -.558E-04   -.160E-03 0.378E-03 -.148E-05
   0.117E+02 0.912E+02 -.663E-02   -.125E+02 -.971E+02 0.711E-02   0.755E+00 0.596E+01 -.432E-03   0.145E-03 0.110E-02 0.419E-05
   0.717E+02 0.558E+02 -.866E-02   -.772E+02 -.583E+02 0.923E-02   0.549E+01 0.250E+01 -.613E-03   0.232E-03 0.700E-03 -.279E-06
   0.688E+02 -.559E+02 -.367E-02   -.725E+02 0.608E+02 0.375E-02   0.361E+01 -.489E+01 -.100E-03   0.749E-03 -.137E-02 0.524E-05
   0.524E+02 0.310E+02 -.588E+02   -.535E+02 -.342E+02 0.637E+02   0.115E+01 0.320E+01 -.482E+01   0.305E-03 0.616E-03 -.110E-02
   0.524E+02 0.310E+02 0.588E+02   -.535E+02 -.342E+02 -.636E+02   0.115E+01 0.320E+01 0.482E+01   0.305E-03 0.610E-03 0.110E-02
   -.102E+02 -.907E+02 0.928E-02   0.107E+02 0.967E+02 -.971E-02   -.578E+00 -.594E+01 0.473E-03   0.252E-03 -.113E-02 -.114E-05
 -----------------------------------------------------------------------------------------------
   0.530E+01 0.321E+02 -.146E-02   0.764E-13 -.284E-13 0.195E-13   -.529E+01 -.321E+02 -.219E-02   -.688E-02 0.623E-02 -.266E-03
 
 
 POSITION                                       TOTAL-FORCE (eV/Angst)
 -----------------------------------------------------------------------------------
     19.43181     20.79973     19.99978         0.004323      0.011513      0.000471
     18.14208     20.26510     19.99988         0.010337      0.008901      0.000246
     17.95806     18.88388     20.00003        -0.013543     -0.004385      0.000226
     19.08660     18.06050     20.00006        -0.002354     -0.007608     -0.000901
     20.36718     18.58344     19.99997         0.007537     -0.001339      0.000106
     20.55931     19.97732     19.99985         0.004828     -0.001081      0.000275
     21.87870     20.61105     19.99989         0.008448     -0.002099      0.000130
     23.07048     20.00188     20.00008        -0.013549     -0.008775     -0.000884
     24.38151     20.71066     20.00003        -0.005347      0.001832      0.000104
     15.79109     20.68648     20.00010         0.009232      0.003160     -0.002337
     17.12858     21.17988     19.99990        -0.005156      0.002837      0.000229
     24.97810     20.43244     19.12493        -0.001058      0.002406     -0.002183
     24.97794     20.43299     20.87541        -0.001287      0.002330      0.002465
     24.25500     21.79452     19.99967        -0.008004      0.002600      0.000190
     23.11964     18.91522     20.00043        -0.012454     -0.013753     -0.000075
     21.86446     21.70060     19.99960        -0.005196      0.003928      0.000296
     21.21774     17.91272     19.99998        -0.001438      0.006248      0.000197
     18.94805     16.98452     20.00014         0.000632      0.007451      0.000220
     16.96927     18.44581     20.00014        -0.001021     -0.000716      0.000127
     15.15201     21.56612     20.00011         0.003364      0.000782      0.000154
     15.59001     20.08812     20.89353         0.014650     -0.008800      0.007583
     15.58981     20.08800     19.10678         0.014618     -0.008570     -0.006854
     19.54257     21.87903     19.99970        -0.007563      0.003137      0.000212
 -----------------------------------------------------------------------------------
    total drift:                                0.007066     -0.037404     -0.003917


--------------------------------------------------------------------------------------------------------



  FREE ENERGIE OF THE ION-ELECTRON SYSTEM (eV)
  ---------------------------------------------------
  free  energy   TOTEN  =      -148.86302385 eV

  energy  without entropy=     -148.86302385  energy(sigma->0) =     -148.86302385
 
 d Force = 0.2609968E-04[-0.440E-05, 0.566E-04]  d Energy = 0.2981283E-04-0.371E-05
 d Force = 0.4673512E+00[ 0.467E+00, 0.467E+00]  d Ewald  = 0.4673512E+00 0.134E-07


--------------------------------------------------------------------------------------------------------


    --------------------------------------------
      INIT:  cpu time      0.2520: real time      0.2517
  FINALIZE:  cpu time     27.1629: real time     27.1727
    --------------------------------------------
    POTLOK:  cpu time     37.5933: real time     37.6217


--------------------------------------------------------------------------------------------------------




--------------------------------------------------------------------------------------------------------


  
 reached required accuracy - stopping structural energy minimisation
 writing wavefunctions
     LOOP+:  cpu time    447.9856: real time    449.6346
    4ORBIT:  cpu time      0.0000: real time      0.0000

 total amount of memory used by VASP MPI-rank0   897726. kBytes
=======================================================================

   base      :      30000. kBytes
   nonlr-proj:       1448. kBytes
   fftplans  :     167689. kBytes
   grid      :     662171. kBytes
   one-center:         18. kBytes
   wavefun   :      36400. kBytes
 
  
  
 General timing and accounting informations for this job:
 ========================================================
  
                  Total CPU time used (sec):    13510.996
                            User time (sec):    12894.289
                          System time (sec):      616.707
                         Elapsed time (sec):    13538.648
  
                   Maximum memory used (kb):     2517396.
                   Average memory used (kb):          N/A
  
                          Minor page faults:    116631068
                          Major page faults:            0
                 Voluntary context switches:       304704
