 vasp.6.4.2 20Jul23 (build Oct 03 2024 14:39:03) complex                        
  
 executed on             LinuxIFC date 2025.09.03  10:44:33
 running   90 mpi-ranks, on    3 nodes
 distrk:  each k-point on   90 cores,    1 groups
 distr:  one band on NCORE=  30 cores,    3 groups


--------------------------------------------------------------------------------------------------------


 INCAR:
   SYSTEM = 103_red
   ISTART = 1
   ICHARG = 2
   INIWAV = 1
   LHFCALC = .TRUE.
   HFSCREEN = 0.2
   NELM = 500
   ALGO = Damped
   ISPIN = 2
   EDIFF = 1E-05
   ISMEAR = 0
   SIGMA = 0.05
   PREC = accurate
   ENCUT = 500
   LREAL = auto  	
   LDIAG = .FALSE.
   LWAVE = .TRUE.
   LCHARG = .FALSE.
   LAECHG = .FALSE.
   LVHAR = .FALSE.
   LVTOT = .FALSE.
   EDIFFG = -0.02
   IBRION = 2
   NSW = 500
   ISIF = 2
   POTIM = 0.5
   IVDW = 12
   VDW_A1 = 0.383
   VDW_S8 = 2.310
   VDW_A2 = 5.685
   LPLANE = .TRUE.
   NCORE = 30
   LSCALU = .FALSE.
   NSIM = 4
   LSOL = .TRUE.
   EB_K = 35.6880
   LAMBDA_D_K = 3.04
   NELECT = 43
   TAU = 0

 POTCAR:    PAW_PBE C 08Apr2002                   
 POTCAR:    PAW_PBE O 08Apr2002                   
 POTCAR:    PAW_PBE H 15Jun2001                   
 -----------------------------------------------------------------------------
|                                                                             |
|           W    W    AA    RRRRR   N    N  II  N    N   GGGG   !!!           |
|           W    W   A  A   R    R  NN   N  II  NN   N  G    G  !!!           |
|           W    W  A    A  R    R  N N  N  II  N N  N  G       !!!           |
|           W WW W  AAAAAA  RRRRR   N  N N  II  N  N N  G  GGG   !            |
|           WW  WW  A    A  R   R   N   NN  II  N   NN  G    G                |
|           W    W  A    A  R    R  N    N  II  N    N   GGGG   !!!           |
|                                                                             |
|     You use a magnetic or noncollinear calculation, but did not specify     |
|     the initial magnetic moment with the MAGMOM tag. Note that a            |
|     default of 1 will be used for all atoms. This ferromagnetic setup       |
|     may break the symmetry of the crystal, in particular it may rule        |
|     out finding an antiferromagnetic solution. Thence, we recommend         |
|     setting the initial magnetic moment manually or verifying carefully     |
|     that this magnetic setup is desired.                                    |
|                                                                             |
 -----------------------------------------------------------------------------

 -----------------------------------------------------------------------------
|                                                                             |
|           W    W    AA    RRRRR   N    N  II  N    N   GGGG   !!!           |
|           W    W   A  A   R    R  NN   N  II  NN   N  G    G  !!!           |
|           W    W  A    A  R    R  N N  N  II  N N  N  G       !!!           |
|           W WW W  AAAAAA  RRRRR   N  N N  II  N  N N  G  GGG   !            |
|           WW  WW  A    A  R   R   N   NN  II  N   NN  G    G                |
|           W    W  A    A  R    R  N    N  II  N    N   GGGG   !!!           |
|                                                                             |
|     For optimal performance we recommend to set                             |
|       NCORE = 2 up to number-of-cores-per-socket                            |
|     NCORE specifies how many cores store one orbital (NPAR=cpu/NCORE).      |
|     This setting can greatly improve the performance of VASP for DFT.       |
|     The default, NCORE=1 might be grossly inefficient on modern             |
|     multi-core architectures or massively parallel machines. Do your        |
|     own testing! More info at https://www.vasp.at/wiki/index.php/NCORE      |
|     Unfortunately you need to use the default for GW and RPA                |
|     calculations (for HF NCORE is supported but not extensively tested      |
|     yet).                                                                   |
|                                                                             |
 -----------------------------------------------------------------------------

 POTCAR:    PAW_PBE C 08Apr2002                   
   SHA256 =  253f7b50bb8d59471dbedb8285d89021f4a42ed1a2c5d38a03a736e69125dd95 C/POTCAR              
   COPYR  = (c) Copyright 08Apr2002 Georg Kresse                                                    
   COPYR  = This file is part of the software VASP. Any use, copying, and all other rights are regul
   COPYR  = If you do not have a valid VASP license, you may not use, copy or distribute this file. 
   VRHFIN =C: s2p2                                                                                  
   LEXCH  = PE                                                                                      
   EATOM  =   147.1560 eV,   10.8157 Ry                                                             
                                                                                                    
   TITEL  = PAW_PBE C 08Apr2002                                                                     
   LULTRA =        F    use ultrasoft PP ?                                                          
   IUNSCR =        1    unscreen: 0-lin 1-nonlin 2-no                                               
   RPACOR =    1.200    partial core radius                                                         
   POMASS =   12.011; ZVAL   =    4.000    mass and valenz                                          
   RCORE  =    1.500    outmost cutoff radius                                                       
   RWIGS  =    1.630; RWIGS  =    0.863    wigner-seitz radius (au A)                               
   ENMAX  =  400.000; ENMIN  =  300.000 eV                                                          
   ICORE  =        2    local potential                                                             
   LCOR   =        T    correct aug charges                                                         
   LPAW   =        T    paw PP                                                                      
   EAUG   =  644.873                                                                                
   DEXC   =    0.000                                                                                
   RMAX   =    1.529    core radius for proj-oper                                                   
   RAUG   =    1.300    factor for augmentation sphere                                              
   RDEP   =    1.501    radius for radial grids                                                     
   RDEPT  =    1.300    core radius for aug-charge                                                  
                                                                                                    
   Atomic configuration                                                                             
    4 entries                                                                                       
     n  l   j            E        occ.                                                              
     1  0  0.50      -273.3789   2.0000                                                             
     2  0  0.50       -13.7508   2.0000                                                             
     2  1  0.50        -5.2854   2.0000                                                             
     3  2  1.50        -5.4423   0.0000                                                             
   Description                                                                                      
     l       E           TYP  RCUT    TYP  RCUT                                                     
     0    -13.7508458     23  1.200                                                                 
     0     -8.2022199     23  1.200                                                                 
     1     -5.2854383     23  1.500                                                                 
     1     34.0145650     23  1.500                                                                 
     2     -5.4423304      7  1.500                                                                 
  local pseudopotential read in
  partial core-charges read in
  partial kinetic energy density read in
  atomic valenz-charges read in
  non local Contribution for L=           0  read in
    real space projection operators read in
  non local Contribution for L=           0  read in
    real space projection operators read in
  non local Contribution for L=           1  read in
    real space projection operators read in
  non local Contribution for L=           1  read in
    real space projection operators read in
    PAW grid and wavefunctions read in
 
   number of l-projection  operators is LMAX  =           4
   number of lm-projection operators is LMMAX =           8
 
 POTCAR:    PAW_PBE O 08Apr2002                   
   SHA256 =  818f92134a0a090dccd8ba1447fa70422a3b330e708bb4f08108d8ae51209ddf O/POTCAR              
   COPYR  = (c) Copyright 08Apr2002 Georg Kresse                                                    
   COPYR  = This file is part of the software VASP. Any use, copying, and all other rights are regul
   COPYR  = If you do not have a valid VASP license, you may not use, copy or distribute this file. 
   VRHFIN =O: s2p4                                                                                  
   LEXCH  = PE                                                                                      
   EATOM  =   432.3788 eV,   31.7789 Ry                                                             
                                                                                                    
   TITEL  = PAW_PBE O 08Apr2002                                                                     
   LULTRA =        F    use ultrasoft PP ?                                                          
   IUNSCR =        1    unscreen: 0-lin 1-nonlin 2-no                                               
   RPACOR =    1.200    partial core radius                                                         
   POMASS =   16.000; ZVAL   =    6.000    mass and valenz                                          
   RCORE  =    1.520    outmost cutoff radius                                                       
   RWIGS  =    1.550; RWIGS  =    0.820    wigner-seitz radius (au A)                               
   ENMAX  =  400.000; ENMIN  =  300.000 eV                                                          
   ICORE  =        2    local potential                                                             
   LCOR   =        T    correct aug charges                                                         
   LPAW   =        T    paw PP                                                                      
   EAUG   =  605.392                                                                                
   DEXC   =    0.000                                                                                
   RMAX   =    1.553    core radius for proj-oper                                                   
   RAUG   =    1.300    factor for augmentation sphere                                              
   RDEP   =    1.550    radius for radial grids                                                     
   RDEPT  =    1.329    core radius for aug-charge                                                  
                                                                                                    
   Atomic configuration                                                                             
    4 entries                                                                                       
     n  l   j            E        occ.                                                              
     1  0  0.50      -514.6923   2.0000                                                             
     2  0  0.50       -23.9615   2.0000                                                             
     2  1  0.50        -9.0305   4.0000                                                             
     3  2  1.50        -9.5241   0.0000                                                             
   Description                                                                                      
     l       E           TYP  RCUT    TYP  RCUT                                                     
     0    -23.9615318     23  1.200                                                                 
     0     -9.5240782     23  1.200                                                                 
     1     -9.0304911     23  1.520                                                                 
     1      8.1634956     23  1.520                                                                 
     2     -9.5240782      7  1.500                                                                 
  local pseudopotential read in
  partial core-charges read in
  partial kinetic energy density read in
  kinetic energy density of atom read in
  atomic valenz-charges read in
  non local Contribution for L=           0  read in
    real space projection operators read in
  non local Contribution for L=           0  read in
    real space projection operators read in
  non local Contribution for L=           1  read in
    real space projection operators read in
  non local Contribution for L=           1  read in
    real space projection operators read in
    PAW grid and wavefunctions read in
 
   number of l-projection  operators is LMAX  =           4
   number of lm-projection operators is LMMAX =           8
 
 POTCAR:    PAW_PBE H 15Jun2001                   
   SHA256 =  030f79b5d3ab3cf0e668861823c8fb652ff669f3e15e46930bd03bfd63a607b6 H/POTCAR              
   COPYR  = (c) Copyright 15Jun2001 Georg Kresse                                                    
   COPYR  = This file is part of the software VASP. Any use, copying, and all other rights are regul
   COPYR  = If you do not have a valid VASP license, you may not use, copy or distribute this file. 
   VRHFIN =H: ultrasoft test                                                                        
   LEXCH  = PE                                                                                      
   EATOM  =    12.4884 eV,    0.9179 Ry                                                             
                                                                                                    
   TITEL  = PAW_PBE H 15Jun2001                                                                     
   LULTRA =        F    use ultrasoft PP ?                                                          
   IUNSCR =        0    unscreen: 0-lin 1-nonlin 2-no                                               
   RPACOR =    0.000    partial core radius                                                         
   POMASS =    1.000; ZVAL   =    1.000    mass and valenz                                          
   RCORE  =    1.100    outmost cutoff radius                                                       
   RWIGS  =    0.700; RWIGS  =    0.370    wigner-seitz radius (au A)                               
   ENMAX  =  250.000; ENMIN  =  200.000 eV                                                          
   RCLOC  =    0.701    cutoff for local pot                                                        
   LCOR   =        T    correct aug charges                                                         
   LPAW   =        T    paw PP                                                                      
   EAUG   =  400.000                                                                                
   RMAX   =    1.123    core radius for proj-oper                                                   
   RAUG   =    1.200    factor for augmentation sphere                                              
   RDEP   =    1.112    radius for radial grids                                                     
   RDEPT  =    0.926    core radius for aug-charge                                                  
                                                                                                    
   Atomic configuration                                                                             
    2 entries                                                                                       
     n  l   j            E        occ.                                                              
     1  0  0.50        -6.4927   1.0000                                                             
     2  1  0.50        -3.4015   0.0000                                                             
   Description                                                                                      
     l       E           TYP  RCUT    TYP  RCUT                                                     
     0     -6.4927494     23  1.100                                                                 
     0      6.8029130     23  1.100                                                                 
     1     -4.0817478     23  1.100                                                                 
  local pseudopotential read in
  atomic valenz-charges read in
  non local Contribution for L=           0  read in
    real space projection operators read in
  non local Contribution for L=           0  read in
    real space projection operators read in
  non local Contribution for L=           1  read in
    real space projection operators read in
    PAW grid and wavefunctions read in
 
   number of l-projection  operators is LMAX  =           3
   number of lm-projection operators is LMMAX =           5
 
 Optimization of the real space projectors (new method)

 maximal supplied QI-value         = 25.13
 optimisation between [QCUT,QGAM] = [ 11.31, 22.87] = [ 35.82,146.48] Ry 
 Optimized for a Real-space Cutoff    1.03 Angstroem

   l    n(q)    QCUT    max X(q) W(low)/X(q) W(high)/X(q)  e(spline) 
   0      7    11.310   115.676    0.20E-03    0.90E-03    0.20E-06
   0      7    11.310    87.132    0.20E-03    0.89E-03    0.19E-06
   1      6    11.310     4.429    0.16E-03    0.28E-03    0.12E-06
   1      6    11.310     2.733    0.12E-03    0.21E-03    0.99E-07
 Optimization of the real space projectors (new method)

 maximal supplied QI-value         = 24.76
 optimisation between [QCUT,QGAM] = [ 11.39, 22.77] = [ 36.31,145.25] Ry 
 Optimized for a Real-space Cutoff    1.10 Angstroem

   l    n(q)    QCUT    max X(q) W(low)/X(q) W(high)/X(q)  e(spline) 
   0      7    11.387    20.381    0.22E-03    0.48E-03    0.18E-06
   0      7    11.387    15.268    0.22E-03    0.52E-03    0.19E-06
   1      7    11.387     5.964    0.22E-03    0.73E-03    0.24E-06
   1      7    11.387     5.382    0.19E-03    0.60E-03    0.21E-06
 Optimization of the real space projectors (new method)

 maximal supplied QI-value         = 34.20
 optimisation between [QCUT,QGAM] = [ 11.29, 22.57] = [ 35.68,142.71] Ry 
 Optimized for a Real-space Cutoff    1.20 Angstroem

   l    n(q)    QCUT    max X(q) W(low)/X(q) W(high)/X(q)  e(spline) 
   0      8    11.287    19.460    0.22E-03    0.50E-03    0.19E-06
   0      8    11.287    12.209    0.21E-03    0.48E-03    0.18E-06
   1      8    11.287     4.655    0.21E-03    0.11E-04    0.26E-06
  PAW_PBE C 08Apr2002                   :
 energy of atom  1       EATOM= -147.1560
 kinetic energy error for atom=    0.0076 (will be added to EATOM!!)
  PAW_PBE O 08Apr2002                   :
 energy of atom  2       EATOM= -432.3788
 kinetic energy error for atom=    0.0224 (will be added to EATOM!!)
  PAW_PBE H 15Jun2001                   :
 energy of atom  3       EATOM=  -12.4884
 kinetic energy error for atom=    0.0020 (will be added to EATOM!!)
 
 
 POSCAR: C O H
  positions in direct lattice
  velocities in cartesian coordinates
 exchange correlation table for  LEXCH =        8
   RHO(1)=    0.500       N(1)  =     2000
   RHO(2)=  100.500       N(2)  =     4000
 


--------------------------------------------------------------------------------------------------------


 ion  position               nearest neighbor table
   1  0.517  0.461  0.500-  15 1.08   2 1.37   6 1.39
   2  0.547  0.477  0.500-  14 1.08   1 1.37   3 1.50
   3  0.549  0.515  0.500-  13 1.09   4 1.32   2 1.50
   4  0.521  0.532  0.500-  12 1.09   3 1.32   5 1.41
   5  0.490  0.516  0.500-   8 1.38   4 1.41   6 1.42
   6  0.489  0.481  0.500-   9 1.37   1 1.39   5 1.42
   7  0.437  0.496  0.500-  11 1.09   9 1.25   8 1.44
   8  0.457  0.526  0.500-  10 1.08   5 1.38   7 1.44
   9  0.456  0.471  0.500-   7 1.25   6 1.37
  10  0.446  0.551  0.500-   8 1.08
  11  0.410  0.493  0.500-   7 1.09
  12  0.522  0.560  0.500-   4 1.09
  13  0.574  0.525  0.500-   3 1.09
  14  0.571  0.464  0.500-   2 1.08
  15  0.516  0.434  0.500-   1 1.08
 
  LATTYP: Found a simple cubic cell.
 ALAT       =    40.0000000000
  
  Lattice vectors:
  
 A1 = (  40.0000000000,   0.0000000000,   0.0000000000)
 A2 = (   0.0000000000,  40.0000000000,   0.0000000000)
 A3 = (   0.0000000000,   0.0000000000,  40.0000000000)


Analysis of symmetry for initial positions (statically):
=====================================================================
 Subroutine PRICEL returns:
 Original cell was already a primitive cell.
 

 Routine SETGRP: Setting up the symmetry group for a 
 simple cubic supercell.


 Subroutine GETGRP returns: Found  2 space group operations
 (whereof  2 operations were pure point group operations)
 out of a pool of 48 trial point group operations.


The static configuration has the point symmetry C_1h.


Analysis of symmetry for dynamics (positions and initial velocities):
=====================================================================
 Subroutine PRICEL returns:
 Original cell was already a primitive cell.
 

 Routine SETGRP: Setting up the symmetry group for a 
 simple cubic supercell.


 Subroutine GETGRP returns: Found  2 space group operations
 (whereof  2 operations were pure point group operations)
 out of a pool of 48 trial point group operations.


The dynamic configuration has the point symmetry C_1h.


Analysis of constrained symmetry for selective dynamics:
=====================================================================
 Subroutine PRICEL returns:
 Original cell was already a primitive cell.
 

 Routine SETGRP: Setting up the symmetry group for a 
 simple cubic supercell.


 Subroutine GETGRP returns: Found  2 space group operations
 (whereof  2 operations were pure point group operations)
 out of a pool of 48 trial point group operations.


The constrained configuration has the point symmetry C_1h.


Analysis of structural, dynamic, and magnetic symmetry:
=====================================================================
 Subroutine PRICEL returns:
 Original cell was already a primitive cell.
 

 Routine SETGRP: Setting up the symmetry group for a 
 simple cubic supercell.


 Subroutine GETGRP returns: Found  2 space group operations
 (whereof  2 operations were pure point group operations)
 out of a pool of 48 trial point group operations.


The overall configuration has the point symmetry C_1h.


 Subroutine INISYM returns: Found  2 space group operations
 (whereof  2 operations are pure point group operations),
 and found     1 'primitive' translations


----------------------------------------------------------------------------------------

                                     Primitive cell                                     

  volume of cell :   64000.0000

  direct lattice vectors                    reciprocal lattice vectors
    40.000000000  0.000000000  0.000000000     0.025000000  0.000000000  0.000000000
     0.000000000 40.000000000  0.000000000     0.000000000  0.025000000  0.000000000
     0.000000000  0.000000000 40.000000000     0.000000000  0.000000000  0.025000000

  length of vectors
    40.000000000 40.000000000 40.000000000     0.025000000  0.025000000  0.025000000

  position of ions in fractional coordinates (direct lattice)
     0.517337885  0.460743798  0.500000000
     0.547194201  0.477281609  0.500000000
     0.548717495  0.514634875  0.500000000
     0.520807570  0.532334915  0.500000000
     0.489519396  0.515996292  0.500000000
     0.488672801  0.480550229  0.500000000
     0.437215597  0.495679132  0.500000000
     0.456573005  0.526119810  0.500000000
     0.455954858  0.470548750  0.500000000
     0.445794667  0.550989893  0.500000000
     0.410134317  0.492531721  0.500001000
     0.521807450  0.559632734  0.500000000
     0.573765693  0.525286776  0.500000000
     0.570639086  0.463881442  0.500000000
     0.515864978  0.433787024  0.500000000

  ion indices of the primitive-cell ions
   primitive index   ion index
                 1           1
                 2           2
                 3           3
                 4           4
                 5           5
                 6           6
                 7           7
                 8           8
                 9           9
                10          10
                11          11
                12          12
                13          13
                14          14
                15          15

----------------------------------------------------------------------------------------

 
 
 KPOINTS: K-Point Grid                            

Automatic generation of k-mesh.
 Grid dimensions read from file:
 generate k-points for:    1    1    1

 Generating k-lattice:

  Cartesian coordinates                     Fractional coordinates (reciprocal lattice)
     0.025000000  0.000000000  0.000000000     1.000000000  0.000000000  0.000000000
     0.000000000  0.025000000  0.000000000     0.000000000  1.000000000  0.000000000
     0.000000000  0.000000000  0.025000000     0.000000000  0.000000000  1.000000000

  Length of vectors
     0.025000000  0.025000000  0.025000000

  Shift w.r.t. Gamma in fractional coordinates (k-lattice)
     0.000000000  0.000000000  0.000000000

 
 Subroutine IBZKPT returns following result:
 ===========================================
 
 Found      1 irreducible k-points:
 
 Following reciprocal coordinates:
            Coordinates               Weight
  0.000000  0.000000  0.000000      1.000000
 
 Following cartesian coordinates:
            Coordinates               Weight
  0.000000  0.000000  0.000000      1.000000
 
 
 Subroutine IBZKPT_HF returns following result:
 ==============================================
 
 Found      1 k-points in 1st BZ
 the following      1 k-points will be used (e.g. in the exchange kernel)
 Following reciprocal coordinates:   # in IRBZ
  0.000000  0.000000  0.000000    1.00000000   1 t-inv F


--------------------------------------------------------------------------------------------------------




 Dimension of arrays:
   k-points           NKPTS =      1   k-points in BZ     NKDIM =      1   number of bands    NBANDS=     39
   number of dos      NEDOS =    301   number of ions     NIONS =     15
   non local maximal  LDIM  =      4   non local SUM 2l+1 LMDIM =      8
   total plane-waves  NPLWV = ******
   max r-space proj   IRMAX =   2915   max aug-charges    IRDMAX=   5350
   dimension x,y,z NGX =   294 NGY =  294 NGZ =  294
   dimension x,y,z NGXF=   588 NGYF=  588 NGZF=  588
   support grid    NGXF=   588 NGYF=  588 NGZF=  588
   ions per type =               8   1   6
   NGX,Y,Z   is equivalent  to a cutoff of  12.22, 12.22, 12.22 a.u.
   NGXF,Y,Z  is equivalent  to a cutoff of  24.44, 24.44, 24.44 a.u.

 SYSTEM =  103_red                                 
 POSCAR =  C O H                                   

 Startparameter for this run:
   NWRITE =      2    write-flag & timer
   PREC   = accura    normal or accurate (medium, high low for compatibility)
   ISTART =      1    job   : 0-new  1-cont  2-samecut
   ICHARG =      2    charge: 1-file 2-atom 10-const
   ISPIN  =      2    spin polarized calculation?
   LNONCOLLINEAR =      F non collinear calculations
   LSORBIT =      F    spin-orbit coupling
   INIWAV =      1    electr: 0-lowe 1-rand  2-diag
   LASPH  =      F    aspherical Exc in radial PAW
 Electronic Relaxation 1
   ENCUT  =  500.0 eV  36.75 Ry    6.06 a.u.  72.93 72.93 72.93*2*pi/ulx,y,z
   ENINI  =  500.0     initial cutoff
   ENAUG  =  644.9 eV  augmentation charge cutoff
   NELM   =    500;   NELMIN=  2; NELMDL=  0     # of ELM steps 
   EDIFF  = 0.1E-04   stopping-criterion for ELM
   LREAL  =      T    real-space projection
   NLSPLINE    = F    spline interpolate recip. space projectors
   LCOMPAT=      F    compatible to vasp.4.4
   GGA_COMPAT  = T    GGA compatible to vasp.4.4-vasp.4.6
   LMAXPAW     = -100 max onsite density
   LMAXMIX     =    2 max onsite mixed and CHGCAR
   VOSKOWN=      0    Vosko Wilk Nusair interpolation
   ROPT   =   -0.00025  -0.00025  -0.00025
 Ionic relaxation
   EDIFFG = -.2E-01   stopping-criterion for IOM
   NSW    =    500    number of steps for IOM
   NBLOCK =      1;   KBLOCK =    500    inner block; outer block 
   IBRION =      2    ionic relax: 0-MD 1-quasi-New 2-CG
   NFREE  =      1    steps in history (QN), initial steepest desc. (CG)
   ISIF   =      2    stress and relaxation
   IWAVPR =     11    prediction:  0-non 1-charg 2-wave 3-comb
   ISYM   =      3    0-nonsym 1-usesym 2-fastsym
   LCORR  =      T    Harris-Foulkes like correction to forces

   POTIM  = 0.5000    time-step for ionic-motion
   TEIN   =    0.0    initial temperature
   TEBEG  =    0.0;   TEEND  =   0.0 temperature during run
   SMASS  =  -3.00    Nose mass-parameter (am)
   estimated Nose-frequenzy (Omega)   =  0.10E-29 period in steps = 0.13E+47 mass=  -0.366E-25a.u.
   SCALEE = 1.0000    scale energy and forces
   NPACO  =    256;   APACO  = 10.0  distance and # of slots for P.C.
   PSTRESS=    0.0 pullay stress

  Mass of Ions in am
   POMASS =  12.01 16.00  1.00
  Ionic Valenz
   ZVAL   =   4.00  6.00  1.00
  Atomic Wigner-Seitz radii
   RWIGS  =  -1.00 -1.00 -1.00
  virtual crystal weights 
   VCA    =   1.00  1.00  1.00
   NELECT =      43.0000    total number of electrons
   NUPDOWN=      -1.0000    fix difference up-down

 DOS related values:
   EMIN   =  10.00;   EMAX   =-10.00  energy-range for DOS
   EFERMI =   0.00;   METHOD = LEGACY      
   ISMEAR =     0;   SIGMA  =   0.05  broadening in eV -4-tet -1-fermi 0-gaus

 Electronic relaxation 2 (details)
   IALGO  =     53    algorithm
   LDIAG  =      F    sub-space diagonalisation (order eigenvalues)
   LSUBROT=      F    optimize rotation matrix (better conditioning)
   TURBO    =      0    0=normal 1=particle mesh
   IRESTART =      0    0=no restart 2=restart with 2 vectors
   NREBOOT  =      0    no. of reboots
   NMIN     =      0    reboot dimension
   EREF     =   0.00    reference energy to select bands
   IMIX   =      4    mixing-type and parameters
     AMIX     =   0.40;   BMIX     =  1.00
     AMIX_MAG =   1.60;   BMIX_MAG =  1.00
     AMIN     =   0.10
     WC   =   100.;   INIMIX=   1;  MIXPRE=   1;  MAXMIX= -45

 Intra band minimization:
   WEIMIN = 0.0010     energy-eigenvalue tresh-hold
   EBREAK =  0.64E-07  absolut break condition
   DEPER  =   0.30     relativ break condition  

   TIME   =   0.40     timestep for ELM

  volume/ion in A,a.u.               =    4266.67     28792.89
  Fermi-wavevector in a.u.,A,eV,Ry     =   0.143385  0.270959  0.279726  0.020559
  Thomas-Fermi vector in A             =   0.807432
 
 Write flags
   LWAVE        =      T    write WAVECAR
   LDOWNSAMPLE  =      F    k-point downsampling of WAVECAR
   LCHARG       =      F    write CHGCAR
   LVTOT        =      F    write LOCPOT, total local potential
   LVHAR        =      F    write LOCPOT, Hartree potential only
   LELF         =      F    write electronic localiz. function (ELF)
   LORBIT       =      0    0 simple, 1 ext, 2 COOP (PROOUT), +10 PAW based schemes


 Dipole corrections
   LMONO  =      F    monopole corrections only (constant potential shift)
   LDIPOL =      F    correct potential (dipole corrections)
   IDIPOL =      0    1-x, 2-y, 3-z, 4-all directions 
   EPSILON=  1.0000000 bulk dielectric constant

 Exchange correlation treatment:
   GGA     =    --    GGA type
   LEXCH   =     8    internal setting for exchange type
   LIBXC   =     F    Libxc                    
   VOSKOWN =     0    Vosko Wilk Nusair interpolation
   EXXOEP  =     0    0=HF, 1=EXX-LHF (local Hartree Fock) 2=EXX OEP
   LHFCALC =     T    Hartree Fock is set to
   LSYMGRAD=     F    symmetrize gradient (conserves proper symmetry)
   PRECFOCK=normal    Normal, Fast or Accurate (Low or Medium for compatibility)
   LRHFCALC=     F    long range Hartree Fock
   LRSCOR  =     F    long range correlation only (use DFT for short range part)
   LTHOMAS =     F    Thomas Fermi screening in HF
   LMODELHF=     F    short range full HF, long range fraction AEXX
   FOCKCORR=     1    mode to apply convergence corrections
   LFOCKACE=     T    use Adeptively-Compressed-Exchange operator
   ENCUT4O =  -1.0   cutoff for four orbital integrals eV
   LMAXFOCK=     4    L truncation for augmentation on plane wave grid
   LMAXFOCKAE=  -1    L truncation for all-electron charge restoration on plane wave grid
   NMAXFOCKAE=   1    number of basis functions for all-electron charge restoration
   LFOCKAEDFT=     F  apply the AE augmentation even for DFT
   NKREDX  =     1    reduce k-point grid by
   NKREDY  =     1    reduce k-point grid by
   NKREDZ  =     1    reduce k-point grid by
   SHIFTRED=     F    shift reduced grid of Gamma
   HFKIDENT=     F    idential grid for each k-point
   ODDONLY =     F    use only odd q-grid points
   EVENONLY=     F    use only even q-grid points
   HFALPHA =   -1.0000 decay constant for conv. correction
   MCALPHA =    0.0000 extent of test-charge in conv. correction in multipole expansion
   AEXX    =    0.2500 exact exchange contribution
   HFSCREEN=    0.2000 screening length (either q_TF or 0.3 A-1)
   HFSCREENC=   0.2000 screening length for correlation (either q_TF or 0.3 A-1)
   HFRCUT  =    0.0000 spherical cutoff for potential kernel
   ALDAX   =    0.7500 LDA exchange part
   AGGAX   =    0.7500 GGA exchange part
   ALDAC   =    1.0000 LDA correlation
   AGGAC   =    1.0000 GGA correlation
   ENCUTFOCK=  -1.0 apply spherical cutoff to Coloumb kernel
   NBANDSGWLOW=     1    first orbital included in HF term
   NBLOCK_FOCK=    64    blocking factor in FOCK_ACC

 Linear response parameters
   LEPSILON=     F    determine dielectric tensor
   LRPA    =     F    only Hartree local field effects (RPA)
   LNABLA  =     F    use nabla operator in PAW spheres
   LVEL    =     F    velocity operator in full k-point grid
   CSHIFT  =0.1000    complex shift for real part using Kramers Kronig
   OMEGAMAX=  -1.0    maximum frequency
   DEG_THRESHOLD= 0.2000000E-02 threshold for treating states as degnerate
   RTIME   =   -0.100 relaxation time in fs
  (WPLASMAI=    0.000 imaginary part of plasma frequency in eV, 0.658/RTIME)
   DFIELD  = 0.0000000 0.0000000 0.0000000 field for delta impulse in time
 
  Optional k-point grid parameters
   LKPOINTS_OPT  =     F    use optional k-point grid
   KPOINTS_OPT_MODE=     1    mode for optional k-point grid
 
 Orbital magnetization related:
   ORBITALMAG=     F  switch on orbital magnetization
   LCHIMAG   =     F  perturbation theory with respect to B field
   DQ        =  0.001000  dq finite difference perturbation B field
   LLRAUG    =     F  two centre corrections for induced B field
   LBONE     =     F  B-component reconstruction in AE one-centre
   LVGVCALC  =     T  calculate vGv susceptibility
   LVGVAPPL  =     F  apply vGv susceptibility instead of pGv for G=0

 Random number generation:
   RANDOM_GENERATOR = DEFAULT
   PCG_SEED         = not used
 Solvation model:
   LSOL    =     T         switch on solvation model
   EB_K    = 35.688000     relative permittivity of the bulk solvent
   SIGMA_K =  0.600000     width of the dielectric cavity
   NC_K    =  0.002500     cutoff charge density
   TAU     =  0.000000     cavity surface tension
   LAMBDA_D_K    =  3.040000     Debye length in Angstroms
   LRHOB     =     F     write boundcharge  density
   LRHOION     =     F     write ioniccharge density



--------------------------------------------------------------------------------------------------------


 conjugate gradient relaxation of ions
   using selective dynamics as specified on POSCAR
 charge density and potential will be updated during run
 spin polarized calculation
 Conjugate gradient for all bands (Kresse, et al. variant)
 perform Loewdin sub-space diagonalisation
    ordering is kept fixed
    before iterative eigenvector-optimisation
 modified Broyden-mixing scheme, WC =      100.0
 initial mixing is a Kerker type mixing with AMIX =  0.4000 and BMIX =      1.0000
 Hartree-type preconditioning will be used
 using additional bands           17
 real space projection scheme for non local part
 use partial core corrections
 no Harris-corrections to forces 
 use gradient corrections 
 use of overlap-Matrix (Vanderbilt PP)
 Gauss-broadening in eV      SIGMA  =   0.05


--------------------------------------------------------------------------------------------------------


  energy-cutoff  :      500.00
  volume of cell :    64000.00
      direct lattice vectors                 reciprocal lattice vectors
    40.000000000  0.000000000  0.000000000     0.025000000  0.000000000  0.000000000
     0.000000000 40.000000000  0.000000000     0.000000000  0.025000000  0.000000000
     0.000000000  0.000000000 40.000000000     0.000000000  0.000000000  0.025000000

  length of vectors
    40.000000000 40.000000000 40.000000000     0.025000000  0.025000000  0.025000000


 
 old parameters found on file WAVECAR:
  energy-cutoff  :      500.00
  volume of cell :    64000.00
      direct lattice vectors                 reciprocal lattice vectors
    40.000000000  0.000000000  0.000000000     0.025000000  0.000000000  0.000000000
     0.000000000 40.000000000  0.000000000     0.000000000  0.025000000  0.000000000
     0.000000000  0.000000000 40.000000000     0.000000000  0.000000000  0.025000000

  length of vectors

 
 k-points in units of 2pi/SCALE and weight: K-Point Grid                            
   0.00000000  0.00000000  0.00000000       1.000
 
 k-points in reciprocal lattice and weights: K-Point Grid                            
   0.00000000  0.00000000  0.00000000       1.000
 
 position of ions in fractional coordinates (direct lattice) 
   0.51733788  0.46074380  0.50000000
   0.54719420  0.47728161  0.50000000
   0.54871750  0.51463487  0.50000000
   0.52080757  0.53233492  0.50000000
   0.48951940  0.51599629  0.50000000
   0.48867280  0.48055023  0.50000000
   0.43721560  0.49567913  0.50000000
   0.45657301  0.52611981  0.50000000
   0.45595486  0.47054875  0.50000000
   0.44579467  0.55098989  0.50000000
   0.41013432  0.49253172  0.50000100
   0.52180745  0.55963273  0.50000000
   0.57376569  0.52528678  0.50000000
   0.57063909  0.46388144  0.50000000
   0.51586498  0.43378702  0.50000000
 
 position of ions in cartesian coordinates  (Angst):
  20.69351538 18.42975191 20.00000000
  21.88776805 19.09126438 20.00000000
  21.94869982 20.58539500 20.00000000
  20.83230281 21.29339661 20.00000000
  19.58077583 20.63985168 20.00000000
  19.54691204 19.22200917 20.00000000
  17.48862389 19.82716529 20.00000000
  18.26292022 21.04479239 20.00000000
  18.23819431 18.82194999 20.00000000
  17.83178669 22.03959573 20.00000000
  16.40537268 19.70126884 20.00004000
  20.87229799 22.38530934 20.00000000
  22.95062774 21.01147105 20.00000000
  22.82556344 18.55525766 20.00000000
  20.63459912 17.35148096 20.00000000
 


--------------------------------------------------------------------------------------------------------


 k-point   1 :   0.0000 0.0000 0.0000  plane waves: 1624525

 maximum and minimum number of plane-waves per node :     54169    54136

 maximum number of plane-waves:   1624525
 maximum index in each direction: 
   IXMAX=   72   IYMAX=   72   IZMAX=   72
   IXMIN=  -72   IYMIN=  -72   IZMIN=  -72


 real space projection operators:
  total allocation   :       1678.23 KBytes
  max/ min on nodes  :         71.46         36.24


 parallel 3D FFT for wavefunctions:
    minimum data exchange during FFTs selected (reduces bandwidth)
 parallel 3D FFT for charge:
    minimum data exchange during FFTs selected (reduces bandwidth)


 FFT grid for exact exchange (Hartree Fock) 
  NGX =224; NGY =224; NGZ =224

 
 Radii for the augmentation spheres in the non-local exchange
 for species   1 augmentation radius   0.874 (default was   0.699)
       energy cutoff for augmentation   2000.0
 for species   2 augmentation radius   0.902 (default was   0.722)
       energy cutoff for augmentation   2000.0
 for species   3 augmentation radius   0.650 (default was   0.520)
       energy cutoff for augmentation   2000.0

 real space projection operators:
  total allocation   :        398.25 KBytes
  max/ min on nodes  :         20.18          8.79

 Maximum index for augmentation-charges in exchange           55
  SETUP_FOCK is finished

 total amount of memory used by VASP MPI-rank0   510562. kBytes
=======================================================================

   base      :      30000. kBytes
   nonlr-proj:        961. kBytes
   fftplans  :     129164. kBytes
   grid      :     282813. kBytes
   one-center:          6. kBytes
   HF        :          4. kBytes
   wavefun   :      67614. kBytes
 
     INWAV:  cpu time      7.7661: real time      8.8627
 Broyden mixing: mesh for mixing (old mesh)
   NGX =145   NGY =145   NGZ =145
  (NGX  =588   NGY  =588   NGZ  =588)
  gives a total of ****** points

 initial charge density was supplied:
 charge density of overlapping atoms calculated
 number of electron      44.0000000 magnetization      15.0000000
 charge density for first step will be calculated from the start-wavefunctions


--------------------------------------------------------------------------------------------------------


 Maximum index for non-local projection operator          235
 Maximum index for augmentation-charges          343 (set IRDMAX)


--------------------------------------------------------------------------------------------------------


 initial charge from wavefunction
 First call to EWALD:  gamma=   0.044
 Maximum number of real-space cells 3x 3x 3
 Maximum number of reciprocal cells 3x 3x 3

    FEWALD:  cpu time      0.0008: real time      0.0008


--------------------------------------- Ionic step        1  -------------------------------------------




--------------------------------------- Iteration      1(   1)  ---------------------------------------


    POTLOK:  cpu time    142.7448: real time    144.3521
    SETDIJ:  cpu time      0.0937: real time      0.0939
    TRIAL :  cpu time     64.3557: real time     64.9027
    CORREC:  cpu time      0.0004: real time      0.0004
    CHARGE:  cpu time      1.0646: real time      1.0732
    --------------------------------------------
      LOOP:  cpu time    208.3412: real time    210.5087

 eigenvalue-minimisations  :     0
 total energy-change (2. order) :-0.1103127E+03  (-0.4471213E-01)
 number of electron      42.9999992 magnetization       1.0000002
 augmentation part        1.5093075 magnetization       0.0523425

 Free energy of the ion-electron system (eV)
  ---------------------------------------------------
  alpha Z        PSCENC =         0.13892279
  Ewald energy   TEWEN  =      4485.08496875
  -Hartree energ DENC   =     -5649.83811890
  -exchange      EXHF   =       101.16992032
  -V(xc)+E(xc)   XCENC  =       117.00780043
  PAW double counting   =      4258.49349009    -4263.35266048
  entropy T*S    EENTRO =        -0.00000000
  eigenvalues    EBANDS =      -680.50669184
  atomic energy  EATOM  =      1664.54940031
  ---------------------------------------------------
  free energy    TOTEN  =      -110.31273566 eV

  energy without entropy =     -110.31273566  energy(sigma->0) =     -110.31273566
  exchange ACFDT corr.  =        -0.00000000  see jH, gK, PRB 81, 115126


--------------------------------------------------------------------------------------------------------




--------------------------------------- Iteration      1(   2)  ---------------------------------------


    POTLOK:  cpu time    122.9379: real time    124.1236
    SETDIJ:  cpu time      0.0922: real time      0.0923
    TRIAL :  cpu time     64.5776: real time     65.1271
    CORREC:  cpu time      0.0007: real time      0.0007
    CHARGE:  cpu time      1.0665: real time      1.0752
    --------------------------------------------
      LOOP:  cpu time    188.6771: real time    190.4322

 eigenvalue-minimisations  :     0
 total energy-change (2. order) :-0.3603644E-01  (-0.2963353E-01)
 number of electron      42.9999992 magnetization       1.0000002
 augmentation part        1.5102978 magnetization       0.0529702

 Free energy of the ion-electron system (eV)
  ---------------------------------------------------
  alpha Z        PSCENC =         0.13892279
  Ewald energy   TEWEN  =      4485.08496875
  -Hartree energ DENC   =     -5650.91517660
  -exchange      EXHF   =       101.20821323
  -V(xc)+E(xc)   XCENC  =       117.04609284
  PAW double counting   =      4260.71022894    -4265.57470941
  entropy T*S    EENTRO =        -0.00000000
  eigenvalues    EBANDS =      -679.47270837
  atomic energy  EATOM  =      1664.54940031
  ---------------------------------------------------
  free energy    TOTEN  =      -110.34877211 eV

  energy without entropy =     -110.34877211  energy(sigma->0) =     -110.34877211
  exchange ACFDT corr.  =        -0.00000000  see jH, gK, PRB 81, 115126


--------------------------------------------------------------------------------------------------------




--------------------------------------- Iteration      1(   3)  ---------------------------------------


    POTLOK:  cpu time    119.3093: real time    120.6590
    SETDIJ:  cpu time      0.0921: real time      0.0921
    TRIAL :  cpu time     64.6749: real time     65.2499
    CORREC:  cpu time      0.0007: real time      0.0007
    CHARGE:  cpu time      1.0634: real time      1.0717
    --------------------------------------------
      LOOP:  cpu time    185.1423: real time    187.0852

 eigenvalue-minimisations  :     0
 total energy-change (2. order) :-0.2298758E-01  (-0.1445374E-01)
 number of electron      42.9999992 magnetization       1.0000002
 augmentation part        1.5105049 magnetization       0.0533057

 Free energy of the ion-electron system (eV)
  ---------------------------------------------------
  alpha Z        PSCENC =         0.13892279
  Ewald energy   TEWEN  =      4485.08496875
  -Hartree energ DENC   =     -5651.08723424
  -exchange      EXHF   =       101.21927547
  -V(xc)+E(xc)   XCENC  =       117.05678291
  PAW double counting   =      4262.22057435    -4267.08797696
  entropy T*S    EENTRO =        -0.00000000
  eigenvalues    EBANDS =      -679.30131892
  atomic energy  EATOM  =      1664.54940031
  ---------------------------------------------------
  free energy    TOTEN  =      -110.37175968 eV

  energy without entropy =     -110.37175968  energy(sigma->0) =     -110.37175968
  exchange ACFDT corr.  =         0.00000000  see jH, gK, PRB 81, 115126


--------------------------------------------------------------------------------------------------------




--------------------------------------- Iteration      1(   4)  ---------------------------------------


    POTLOK:  cpu time    117.7405: real time    119.0145
    SETDIJ:  cpu time      0.1004: real time      0.1004
    TRIAL :  cpu time     64.9179: real time     65.4716
    CORREC:  cpu time      0.0009: real time      0.0009
    CHARGE:  cpu time      1.0676: real time      1.0755
    --------------------------------------------
      LOOP:  cpu time    183.8305: real time    185.6786

 eigenvalue-minimisations  :     0
 total energy-change (2. order) :-0.1133535E-01  (-0.6942890E-02)
 number of electron      42.9999992 magnetization       1.0000002
 augmentation part        1.5106097 magnetization       0.0533803

 Free energy of the ion-electron system (eV)
  ---------------------------------------------------
  alpha Z        PSCENC =         0.13892279
  Ewald energy   TEWEN  =      4485.08496875
  -Hartree energ DENC   =     -5650.89065202
  -exchange      EXHF   =       101.21939040
  -V(xc)+E(xc)   XCENC  =       117.05464352
  PAW double counting   =      4263.07718796    -4267.94465959
  entropy T*S    EENTRO =        -0.00000000
  eigenvalues    EBANDS =      -679.49564021
  atomic energy  EATOM  =      1664.54940031
  ---------------------------------------------------
  free energy    TOTEN  =      -110.38309503 eV

  energy without entropy =     -110.38309503  energy(sigma->0) =     -110.38309503
  exchange ACFDT corr.  =        -0.00000000  see jH, gK, PRB 81, 115126


--------------------------------------------------------------------------------------------------------




--------------------------------------- Iteration      1(   5)  ---------------------------------------


    POTLOK:  cpu time    114.2836: real time    115.6177
    SETDIJ:  cpu time      0.0916: real time      0.0917
    TRIAL :  cpu time     65.0471: real time     65.6025
    CORREC:  cpu time      0.0006: real time      0.0006
    CHARGE:  cpu time      1.0690: real time      1.0761
    --------------------------------------------
      LOOP:  cpu time    180.4954: real time    182.4002

 eigenvalue-minimisations  :     0
 total energy-change (2. order) :-0.5606065E-02  (-0.3646310E-02)
 number of electron      42.9999992 magnetization       1.0000002
 augmentation part        1.5106595 magnetization       0.0533208

 Free energy of the ion-electron system (eV)
  ---------------------------------------------------
  alpha Z        PSCENC =         0.13892279
  Ewald energy   TEWEN  =      4485.08496875
  -Hartree energ DENC   =     -5650.85066994
  -exchange      EXHF   =       101.22418030
  -V(xc)+E(xc)   XCENC  =       117.05598923
  PAW double counting   =      4263.56103422    -4268.42847623
  entropy T*S    EENTRO =        -0.00000000
  eigenvalues    EBANDS =      -679.55282974
  atomic energy  EATOM  =      1664.54940031
  ---------------------------------------------------
  free energy    TOTEN  =      -110.38870110 eV

  energy without entropy =     -110.38870110  energy(sigma->0) =     -110.38870110
  exchange ACFDT corr.  =         0.00000000  see jH, gK, PRB 81, 115126


--------------------------------------------------------------------------------------------------------




--------------------------------------- Iteration      1(   6)  ---------------------------------------


    POTLOK:  cpu time    112.7329: real time    113.9389
    SETDIJ:  cpu time      0.0935: real time      0.0938
    TRIAL :  cpu time     65.1457: real time     65.6927
    CORREC:  cpu time      0.0006: real time      0.0006
    CHARGE:  cpu time      1.0709: real time      1.0794
    --------------------------------------------
      LOOP:  cpu time    179.0484: real time    180.8182

 eigenvalue-minimisations  :     0
 total energy-change (2. order) :-0.3069048E-02  (-0.2125784E-02)
 number of electron      42.9999992 magnetization       1.0000002
 augmentation part        1.5106564 magnetization       0.0532253

 Free energy of the ion-electron system (eV)
  ---------------------------------------------------
  alpha Z        PSCENC =         0.13892279
  Ewald energy   TEWEN  =      4485.08496875
  -Hartree energ DENC   =     -5650.83973009
  -exchange      EXHF   =       101.22877756
  -V(xc)+E(xc)   XCENC  =       117.05758274
  PAW double counting   =      4263.67486969    -4268.54242798
  entropy T*S    EENTRO =        -0.00000000
  eigenvalues    EBANDS =      -679.57998968
  atomic energy  EATOM  =      1664.54940031
  ---------------------------------------------------
  free energy    TOTEN  =      -110.39177014 eV

  energy without entropy =     -110.39177014  energy(sigma->0) =     -110.39177014
  exchange ACFDT corr.  =         0.00000000  see jH, gK, PRB 81, 115126


--------------------------------------------------------------------------------------------------------




--------------------------------------- Iteration      1(   7)  ---------------------------------------


    POTLOK:  cpu time    109.4220: real time    110.5759
    SETDIJ:  cpu time      0.0939: real time      0.0941
    TRIAL :  cpu time     65.3256: real time     65.8968
    CORREC:  cpu time      0.0008: real time      0.0008
    CHARGE:  cpu time      1.0663: real time      1.0748
    --------------------------------------------
      LOOP:  cpu time    175.9156: real time    177.6591

 eigenvalue-minimisations  :     0
 total energy-change (2. order) :-0.1854543E-02  (-0.1331573E-02)
 number of electron      42.9999992 magnetization       1.0000002
 augmentation part        1.5106577 magnetization       0.0531307

 Free energy of the ion-electron system (eV)
  ---------------------------------------------------
  alpha Z        PSCENC =         0.13892279
  Ewald energy   TEWEN  =      4485.08496875
  -Hartree energ DENC   =     -5650.83080480
  -exchange      EXHF   =       101.23156425
  -V(xc)+E(xc)   XCENC  =       117.05827686
  PAW double counting   =      4263.57850518    -4268.44612397
  entropy T*S    EENTRO =        -0.00000000
  eigenvalues    EBANDS =      -679.60093508
  atomic energy  EATOM  =      1664.54940031
  ---------------------------------------------------
  free energy    TOTEN  =      -110.39362469 eV

  energy without entropy =     -110.39362469  energy(sigma->0) =     -110.39362469
  exchange ACFDT corr.  =        -0.00000000  see jH, gK, PRB 81, 115126


--------------------------------------------------------------------------------------------------------




--------------------------------------- Iteration      1(   8)  ---------------------------------------


    POTLOK:  cpu time    107.3323: real time    108.7884
    SETDIJ:  cpu time      0.0939: real time      0.0941
    TRIAL :  cpu time     65.4652: real time     65.9964
    CORREC:  cpu time      0.0004: real time      0.0004
    CHARGE:  cpu time      1.0668: real time      1.0751
    --------------------------------------------
      LOOP:  cpu time    173.9624: real time    175.9674

 eigenvalue-minimisations  :     0
 total energy-change (2. order) :-0.1185314E-02  (-0.8614559E-03)
 number of electron      42.9999992 magnetization       1.0000002
 augmentation part        1.5106748 magnetization       0.0530453

 Free energy of the ion-electron system (eV)
  ---------------------------------------------------
  alpha Z        PSCENC =         0.13892279
  Ewald energy   TEWEN  =      4485.08496875
  -Hartree energ DENC   =     -5650.83564309
  -exchange      EXHF   =       101.23351286
  -V(xc)+E(xc)   XCENC  =       117.05883916
  PAW double counting   =      4263.43725732    -4268.30491982
  entropy T*S    EENTRO =        -0.00000000
  eigenvalues    EBANDS =      -679.60442959
  atomic energy  EATOM  =      1664.54940031
  ---------------------------------------------------
  free energy    TOTEN  =      -110.39481000 eV

  energy without entropy =     -110.39481000  energy(sigma->0) =     -110.39481000
  exchange ACFDT corr.  =        -0.00000000  see jH, gK, PRB 81, 115126


--------------------------------------------------------------------------------------------------------




--------------------------------------- Iteration      1(   9)  ---------------------------------------


    POTLOK:  cpu time    105.9663: real time    107.1615
    SETDIJ:  cpu time      0.0913: real time      0.0916
    TRIAL :  cpu time     65.4765: real time     66.0494
    CORREC:  cpu time      0.0004: real time      0.0004
    CHARGE:  cpu time      1.0694: real time      1.0782
    --------------------------------------------
      LOOP:  cpu time    172.6050: real time    174.3968

 eigenvalue-minimisations  :     0
 total energy-change (2. order) :-0.7759012E-03  (-0.5705597E-03)
 number of electron      42.9999992 magnetization       1.0000002
 augmentation part        1.5106950 magnetization       0.0529693

 Free energy of the ion-electron system (eV)
  ---------------------------------------------------
  alpha Z        PSCENC =         0.13892279
  Ewald energy   TEWEN  =      4485.08496875
  -Hartree energ DENC   =     -5650.84404553
  -exchange      EXHF   =       101.23515824
  -V(xc)+E(xc)   XCENC  =       117.05949008
  PAW double counting   =      4263.32801864    -4268.19576015
  entropy T*S    EENTRO =        -0.00000000
  eigenvalues    EBANDS =      -679.60038292
  atomic energy  EATOM  =      1664.54940031
  ---------------------------------------------------
  free energy    TOTEN  =      -110.39558590 eV

  energy without entropy =     -110.39558590  energy(sigma->0) =     -110.39558590
  exchange ACFDT corr.  =        -0.00000000  see jH, gK, PRB 81, 115126


--------------------------------------------------------------------------------------------------------




--------------------------------------- Iteration      1(  10)  ---------------------------------------


    POTLOK:  cpu time    106.1050: real time    107.2535
    SETDIJ:  cpu time      0.0962: real time      0.0966
    TRIAL :  cpu time     65.6626: real time     66.2103
    CORREC:  cpu time      0.0011: real time      0.0011
    CHARGE:  cpu time      1.0671: real time      1.0750
    --------------------------------------------
      LOOP:  cpu time    172.9341: real time    174.6493

 eigenvalue-minimisations  :     0
 total energy-change (2. order) :-0.5193112E-03  (-0.3902671E-03)
 number of electron      42.9999992 magnetization       1.0000002
 augmentation part        1.5107134 magnetization       0.0528992

 Free energy of the ion-electron system (eV)
  ---------------------------------------------------
  alpha Z        PSCENC =         0.13892279
  Ewald energy   TEWEN  =      4485.08496875
  -Hartree energ DENC   =     -5650.84119205
  -exchange      EXHF   =       101.23636167
  -V(xc)+E(xc)   XCENC  =       117.05992403
  PAW double counting   =      4263.26098588    -4268.12881392
  entropy T*S    EENTRO =        -0.00000000
  eigenvalues    EBANDS =      -679.60422420
  atomic energy  EATOM  =      1664.54940031
  ---------------------------------------------------
  free energy    TOTEN  =      -110.39610521 eV

  energy without entropy =     -110.39610521  energy(sigma->0) =     -110.39610521
  exchange ACFDT corr.  =        -0.00000000  see jH, gK, PRB 81, 115126


--------------------------------------------------------------------------------------------------------




--------------------------------------- Iteration      1(  11)  ---------------------------------------


    POTLOK:  cpu time    104.2741: real time    105.4716
    SETDIJ:  cpu time      0.0936: real time      0.0982
    TRIAL :  cpu time     65.5375: real time     66.1220
    CORREC:  cpu time      0.0003: real time      0.0003
    CHARGE:  cpu time      1.0707: real time      1.0795
    --------------------------------------------
      LOOP:  cpu time    170.9832: real time    172.7874

 eigenvalue-minimisations  :     0
 total energy-change (2. order) :-0.3582203E-03  (-0.2748378E-03)
 number of electron      42.9999992 magnetization       1.0000002
 augmentation part        1.5107343 magnetization       0.0528427

 Free energy of the ion-electron system (eV)
  ---------------------------------------------------
  alpha Z        PSCENC =         0.13892279
  Ewald energy   TEWEN  =      4485.08496875
  -Hartree energ DENC   =     -5650.83568869
  -exchange      EXHF   =       101.23737204
  -V(xc)+E(xc)   XCENC  =       117.06029134
  PAW double counting   =      4263.24150151    -4268.10936540
  entropy T*S    EENTRO =        -0.00000000
  eigenvalues    EBANDS =      -679.60942402
  atomic energy  EATOM  =      1664.54940031
  ---------------------------------------------------
  free energy    TOTEN  =      -110.39646343 eV

  energy without entropy =     -110.39646343  energy(sigma->0) =     -110.39646343
  exchange ACFDT corr.  =        -0.00000000  see jH, gK, PRB 81, 115126


--------------------------------------------------------------------------------------------------------




--------------------------------------- Iteration      1(  12)  ---------------------------------------


    POTLOK:  cpu time    102.7167: real time    103.8030
    SETDIJ:  cpu time      0.0907: real time      0.0909
    TRIAL :  cpu time     65.5864: real time     66.1392
    CORREC:  cpu time      0.0007: real time      0.0007
    CHARGE:  cpu time      1.0706: real time      1.0780
    --------------------------------------------
      LOOP:  cpu time    169.4662: real time    171.1266

 eigenvalue-minimisations  :     0
 total energy-change (2. order) :-0.2527033E-03  (-0.1993387E-03)
 number of electron      42.9999992 magnetization       1.0000002
 augmentation part        1.5107481 magnetization       0.0527914

 Free energy of the ion-electron system (eV)
  ---------------------------------------------------
  alpha Z        PSCENC =         0.13892279
  Ewald energy   TEWEN  =      4485.08496875
  -Hartree energ DENC   =     -5650.82949813
  -exchange      EXHF   =       101.23815506
  -V(xc)+E(xc)   XCENC  =       117.06055034
  PAW double counting   =      4263.25784275    -4268.12574860
  entropy T*S    EENTRO =        -0.00000000
  eigenvalues    EBANDS =      -679.61523849
  atomic energy  EATOM  =      1664.54940031
  ---------------------------------------------------
  free energy    TOTEN  =      -110.39671614 eV

  energy without entropy =     -110.39671614  energy(sigma->0) =     -110.39671614
  exchange ACFDT corr.  =         0.00000000  see jH, gK, PRB 81, 115126


--------------------------------------------------------------------------------------------------------




--------------------------------------- Iteration      1(  13)  ---------------------------------------


    POTLOK:  cpu time    101.0617: real time    102.1082
    SETDIJ:  cpu time      0.0909: real time      0.0910
    TRIAL :  cpu time     65.5132: real time     66.0765
    CORREC:  cpu time      0.0006: real time      0.0006
    CHARGE:  cpu time      1.0698: real time      1.0775
    --------------------------------------------
      LOOP:  cpu time    167.7417: real time    169.3719

 eigenvalue-minimisations  :     0
 total energy-change (2. order) :-0.1797795E-03  (-0.1541296E-03)
 number of electron      42.9999992 magnetization       1.0000002
 augmentation part        1.5107621 magnetization       0.0527553

 Free energy of the ion-electron system (eV)
  ---------------------------------------------------
  alpha Z        PSCENC =         0.13892279
  Ewald energy   TEWEN  =      4485.08496875
  -Hartree energ DENC   =     -5650.82757791
  -exchange      EXHF   =       101.23892467
  -V(xc)+E(xc)   XCENC  =       117.06086749
  PAW double counting   =      4263.29678026    -4268.16468869
  entropy T*S    EENTRO =        -0.00000000
  eigenvalues    EBANDS =      -679.61689239
  atomic energy  EATOM  =      1664.54940031
  ---------------------------------------------------
  free energy    TOTEN  =      -110.39689592 eV

  energy without entropy =     -110.39689592  energy(sigma->0) =     -110.39689592
  exchange ACFDT corr.  =         0.00000000  see jH, gK, PRB 81, 115126


--------------------------------------------------------------------------------------------------------




--------------------------------------- Iteration      1(  14)  ---------------------------------------


    POTLOK:  cpu time    100.7529: real time    102.0852
    SETDIJ:  cpu time      0.0941: real time      0.0984
    TRIAL :  cpu time     65.6933: real time     66.2535
    CORREC:  cpu time      0.0013: real time      0.0013
    CHARGE:  cpu time      1.0687: real time      1.0767
    --------------------------------------------
      LOOP:  cpu time    167.6136: real time    169.5290

 eigenvalue-minimisations  :     0
 total energy-change (2. order) :-0.1271911E-03  (-0.1367815E-03)
 number of electron      42.9999992 magnetization       1.0000002
 augmentation part        1.5107706 magnetization       0.0527193

 Free energy of the ion-electron system (eV)
  ---------------------------------------------------
  alpha Z        PSCENC =         0.13892279
  Ewald energy   TEWEN  =      4485.08496875
  -Hartree energ DENC   =     -5650.82056509
  -exchange      EXHF   =       101.23938960
  -V(xc)+E(xc)   XCENC  =       117.06097943
  PAW double counting   =      4263.31778336    -4268.18573310
  entropy T*S    EENTRO =        -0.00000000
  eigenvalues    EBANDS =      -679.62331502
  atomic energy  EATOM  =      1664.54940031
  ---------------------------------------------------
  free energy    TOTEN  =      -110.39702311 eV

  energy without entropy =     -110.39702311  energy(sigma->0) =     -110.39702311
  exchange ACFDT corr.  =        -0.00000000  see jH, gK, PRB 81, 115126


--------------------------------------------------------------------------------------------------------




--------------------------------------- Iteration      1(  15)  ---------------------------------------


    POTLOK:  cpu time     99.1918: real time    100.3778
    SETDIJ:  cpu time      0.0946: real time      0.0949
    TRIAL :  cpu time     65.3619: real time     65.9103
    CORREC:  cpu time      0.0006: real time      0.0006
    CHARGE:  cpu time      1.0717: real time      1.0797
    --------------------------------------------
      LOOP:  cpu time    165.7242: real time    167.4772

 eigenvalue-minimisations  :     0
 total energy-change (2. order) :-0.9069643E-04  (-0.1363791E-03)
 number of electron      42.9999992 magnetization       1.0000002
 augmentation part        1.5107768 magnetization       0.0526953

 Free energy of the ion-electron system (eV)
  ---------------------------------------------------
  alpha Z        PSCENC =         0.13892279
  Ewald energy   TEWEN  =      4485.08496875
  -Hartree energ DENC   =     -5650.82077399
  -exchange      EXHF   =       101.24002256
  -V(xc)+E(xc)   XCENC  =       117.06128611
  PAW double counting   =      4263.32765591    -4268.19560116
  entropy T*S    EENTRO =        -0.00000000
  eigenvalues    EBANDS =      -679.62249344
  atomic energy  EATOM  =      1664.54940031
  ---------------------------------------------------
  free energy    TOTEN  =      -110.39711380 eV

  energy without entropy =     -110.39711380  energy(sigma->0) =     -110.39711380
  exchange ACFDT corr.  =        -0.00000000  see jH, gK, PRB 81, 115126


--------------------------------------------------------------------------------------------------------




--------------------------------------- Iteration      1(  16)  ---------------------------------------


    POTLOK:  cpu time     98.9921: real time    100.0195
    SETDIJ:  cpu time      0.0930: real time      0.0934
    TRIAL :  cpu time     65.3634: real time     65.9399
    CORREC:  cpu time      0.0005: real time      0.0005
    CHARGE:  cpu time      1.0732: real time      1.0804
    --------------------------------------------
      LOOP:  cpu time    165.5258: real time    167.1461

 eigenvalue-minimisations  :     0
 total energy-change (2. order) :-0.6816270E-04  (-0.1368489E-03)
 number of electron      42.9999992 magnetization       1.0000002
 augmentation part        1.5107872 magnetization       0.0526774

 Free energy of the ion-electron system (eV)
  ---------------------------------------------------
  alpha Z        PSCENC =         0.13892279
  Ewald energy   TEWEN  =      4485.08496875
  -Hartree energ DENC   =     -5650.81295918
  -exchange      EXHF   =       101.24028514
  -V(xc)+E(xc)   XCENC  =       117.06130447
  PAW double counting   =      4263.32079781    -4268.18876994
  entropy T*S    EENTRO =        -0.00000000
  eigenvalues    EBANDS =      -679.62922190
  atomic energy  EATOM  =      1664.54940031
  ---------------------------------------------------
  free energy    TOTEN  =      -110.39718197 eV

  energy without entropy =     -110.39718197  energy(sigma->0) =     -110.39718197
  exchange ACFDT corr.  =        -0.00000000  see jH, gK, PRB 81, 115126


--------------------------------------------------------------------------------------------------------




--------------------------------------- Iteration      1(  17)  ---------------------------------------


    POTLOK:  cpu time     97.3726: real time     98.6330
    SETDIJ:  cpu time      0.0895: real time      0.0941
    TRIAL :  cpu time     65.2325: real time     65.7917
    CORREC:  cpu time      0.0008: real time      0.0008
    CHARGE:  cpu time      1.0729: real time      1.0817
    --------------------------------------------
      LOOP:  cpu time    163.7712: real time    165.6127

 eigenvalue-minimisations  :     0
 total energy-change (2. order) :-0.5574153E-04  (-0.1469405E-03)
 number of electron      42.9999992 magnetization       1.0000002
 augmentation part        1.5107885 magnetization       0.0526610

 Free energy of the ion-electron system (eV)
  ---------------------------------------------------
  alpha Z        PSCENC =         0.13892279
  Ewald energy   TEWEN  =      4485.08496875
  -Hartree energ DENC   =     -5650.81281675
  -exchange      EXHF   =       101.24074106
  -V(xc)+E(xc)   XCENC  =       117.06152914
  PAW double counting   =      4263.32598461    -4268.19397455
  entropy T*S    EENTRO =        -0.00000000
  eigenvalues    EBANDS =      -679.62887701
  atomic energy  EATOM  =      1664.54940031
  ---------------------------------------------------
  free energy    TOTEN  =      -110.39723771 eV

  energy without entropy =     -110.39723771  energy(sigma->0) =     -110.39723771
  exchange ACFDT corr.  =        -0.00000000  see jH, gK, PRB 81, 115126


--------------------------------------------------------------------------------------------------------




--------------------------------------- Iteration      1(  18)  ---------------------------------------


    POTLOK:  cpu time     97.5629: real time     98.7187
    SETDIJ:  cpu time      0.0894: real time      0.0936
    TRIAL :  cpu time     65.2185: real time     65.7742
    CORREC:  cpu time      0.0007: real time      0.0007
    CHARGE:  cpu time      1.0714: real time      1.0793
    --------------------------------------------
      LOOP:  cpu time    163.9443: real time    165.6763

 eigenvalue-minimisations  :     0
 total energy-change (2. order) :-0.2370293E-04  (-0.2947797E-03)
 number of electron      42.9999992 magnetization       1.0000002
 augmentation part        1.5107971 magnetization       0.0526543

 Free energy of the ion-electron system (eV)
  ---------------------------------------------------
  alpha Z        PSCENC =         0.13892279
  Ewald energy   TEWEN  =      4485.08496875
  -Hartree energ DENC   =     -5650.81123198
  -exchange      EXHF   =       101.24106886
  -V(xc)+E(xc)   XCENC  =       117.06165574
  PAW double counting   =      4263.32974026    -4268.19772957
  entropy T*S    EENTRO =        -0.00000000
  eigenvalues    EBANDS =      -679.62921407
  atomic energy  EATOM  =      1664.54940031
  ---------------------------------------------------
  free energy    TOTEN  =      -110.39726141 eV

  energy without entropy =     -110.39726141  energy(sigma->0) =     -110.39726141
  exchange ACFDT corr.  =        -0.00000000  see jH, gK, PRB 81, 115126


--------------------------------------------------------------------------------------------------------




--------------------------------------- Iteration      1(  19)  ---------------------------------------


    POTLOK:  cpu time     97.6627: real time     98.7163
    SETDIJ:  cpu time      0.0957: real time      0.0960
    TRIAL :  cpu time     64.9826: real time     65.5283
    CORREC:  cpu time      0.0006: real time      0.0006
    CHARGE:  cpu time      1.0736: real time      1.0809
    --------------------------------------------
      LOOP:  cpu time    163.8179: real time    165.4386

 eigenvalue-minimisations  :     0
 total energy-change (2. order) : 0.6533161E-04  (-0.8223669E-03)
 number of electron      42.9999992 magnetization       1.0000002
 augmentation part        1.5108039 magnetization       0.0526479

 Free energy of the ion-electron system (eV)
  ---------------------------------------------------
  alpha Z        PSCENC =         0.13892279
  Ewald energy   TEWEN  =      4485.08496875
  -Hartree energ DENC   =     -5650.80092117
  -exchange      EXHF   =       101.24110109
  -V(xc)+E(xc)   XCENC  =       117.06154272
  PAW double counting   =      4263.32427621    -4268.19227390
  entropy T*S    EENTRO =        -0.00000000
  eigenvalues    EBANDS =      -679.63880774
  atomic energy  EATOM  =      1664.54940031
  ---------------------------------------------------
  free energy    TOTEN  =      -110.39719608 eV

  energy without entropy =     -110.39719608  energy(sigma->0) =     -110.39719608
  exchange ACFDT corr.  =        -0.00000000  see jH, gK, PRB 81, 115126


--------------------------------------------------------------------------------------------------------




--------------------------------------- Iteration      1(  20)  ---------------------------------------


    POTLOK:  cpu time    101.1658: real time    102.3112
    SETDIJ:  cpu time      0.1014: real time      0.1014
    TRIAL :  cpu time     65.0653: real time     65.6126
    CORREC:  cpu time      0.0013: real time      0.0013
    CHARGE:  cpu time      1.0717: real time      1.0804
    --------------------------------------------
      LOOP:  cpu time    167.4098: real time    169.1188

 eigenvalue-minimisations  :     0
 total energy-change (2. order) : 0.2057801E-03  (-0.1890774E-02)
 number of electron      42.9999992 magnetization       1.0000002
 augmentation part        1.5107994 magnetization       0.0526393

 Free energy of the ion-electron system (eV)
  ---------------------------------------------------
  alpha Z        PSCENC =         0.13892279
  Ewald energy   TEWEN  =      4485.08496875
  -Hartree energ DENC   =     -5650.81601430
  -exchange      EXHF   =       101.24185709
  -V(xc)+E(xc)   XCENC  =       117.06209895
  PAW double counting   =      4263.35103434    -4268.21905029
  entropy T*S    EENTRO =        -0.00000000
  eigenvalues    EBANDS =      -679.62166471
  atomic energy  EATOM  =      1664.54940031
  ---------------------------------------------------
  free energy    TOTEN  =      -110.39699030 eV

  energy without entropy =     -110.39699030  energy(sigma->0) =     -110.39699030
  exchange ACFDT corr.  =        -0.00000000  see jH, gK, PRB 81, 115126


--------------------------------------------------------------------------------------------------------




--------------------------------------- Iteration      1(  21)  ---------------------------------------


    POTLOK:  cpu time    103.1714: real time    104.1382
    SETDIJ:  cpu time      0.0927: real time      0.0927
    TRIAL :  cpu time     64.7225: real time     65.2917
    CORREC:  cpu time      0.0003: real time      0.0003
    CHARGE:  cpu time      1.0729: real time      1.0817
    --------------------------------------------
      LOOP:  cpu time    169.0663: real time    170.6192

 eigenvalue-minimisations  :     0
 total energy-change (2. order) : 0.3367719E-03  (-0.3301733E-02)
 number of electron      42.9999992 magnetization       1.0000002
 augmentation part        1.5108207 magnetization       0.0526408

 Free energy of the ion-electron system (eV)
  ---------------------------------------------------
  alpha Z        PSCENC =         0.13892279
  Ewald energy   TEWEN  =      4485.08496875
  -Hartree energ DENC   =     -5650.78013604
  -exchange      EXHF   =       101.24110132
  -V(xc)+E(xc)   XCENC  =       117.06128943
  PAW double counting   =      4263.31730787    -4268.18528023
  entropy T*S    EENTRO =        -0.00000000
  eigenvalues    EBANDS =      -679.65466054
  atomic energy  EATOM  =      1664.54940031
  ---------------------------------------------------
  free energy    TOTEN  =      -110.39665353 eV

  energy without entropy =     -110.39665353  energy(sigma->0) =     -110.39665353
  exchange ACFDT corr.  =        -0.00000000  see jH, gK, PRB 81, 115126


--------------------------------------------------------------------------------------------------------




--------------------------------------- Iteration      1(  22)  ---------------------------------------


    POTLOK:  cpu time    104.6513: real time    105.9124
    SETDIJ:  cpu time      0.0937: real time      0.0982
    TRIAL :  cpu time     64.5910: real time     65.1255
    CORREC:  cpu time      0.0008: real time      0.0008
    CHARGE:  cpu time      1.0686: real time      1.0765
    --------------------------------------------
      LOOP:  cpu time    170.4079: real time    172.2252

 eigenvalue-minimisations  :     0
 total energy-change (2. order) : 0.3094507E-03  (-0.4536902E-02)
 number of electron      42.9999992 magnetization       1.0000002
 augmentation part        1.5107994 magnetization       0.0526303

 Free energy of the ion-electron system (eV)
  ---------------------------------------------------
  alpha Z        PSCENC =         0.13892279
  Ewald energy   TEWEN  =      4485.08496875
  -Hartree energ DENC   =     -5650.81756362
  -exchange      EXHF   =       101.24246035
  -V(xc)+E(xc)   XCENC  =       117.06243131
  PAW double counting   =      4263.37757701    -4268.24562233
  entropy T*S    EENTRO =        -0.00000000
  eigenvalues    EBANDS =      -679.61564066
  atomic energy  EATOM  =      1664.54940031
  ---------------------------------------------------
  free energy    TOTEN  =      -110.39634408 eV

  energy without entropy =     -110.39634408  energy(sigma->0) =     -110.39634408
  exchange ACFDT corr.  =        -0.00000000  see jH, gK, PRB 81, 115126


--------------------------------------------------------------------------------------------------------




--------------------------------------- Iteration      1(  23)  ---------------------------------------


    POTLOK:  cpu time    105.0471: real time    106.0791
    SETDIJ:  cpu time      0.0959: real time      0.0960
    TRIAL :  cpu time     64.6837: real time     65.2558
    CORREC:  cpu time      0.0005: real time      0.0005
    CHARGE:  cpu time      1.0732: real time      1.0809
    --------------------------------------------
      LOOP:  cpu time    170.9034: real time    172.5245

 eigenvalue-minimisations  :     0
 total energy-change (2. order) : 0.3058633E-03  (-0.5912346E-02)
 number of electron      42.9999992 magnetization       1.0000002
 augmentation part        1.5108179 magnetization       0.0526229

 Free energy of the ion-electron system (eV)
  ---------------------------------------------------
  alpha Z        PSCENC =         0.13892279
  Ewald energy   TEWEN  =      4485.08496875
  -Hartree energ DENC   =     -5650.77048927
  -exchange      EXHF   =       101.24139182
  -V(xc)+E(xc)   XCENC  =       117.06132134
  PAW double counting   =      4263.33711619    -4268.20508048
  entropy T*S    EENTRO =        -0.00000000
  eigenvalues    EBANDS =      -679.65691062
[...]
     20.86742     22.38672     20.00000        -0.005829      0.009272      0.000000
     22.94033     21.01169     20.00000         0.002987      0.001655      0.000000
     22.81310     18.56196     20.00000         0.009117     -0.000729      0.000000
     20.62948     17.35594     20.00000         0.004831     -0.021328      0.000000
 -----------------------------------------------------------------------------------
    total drift:                               -0.030184     -0.014741      0.000528


--------------------------------------------------------------------------------------------------------



  FREE ENERGIE OF THE ION-ELECTRON SYSTEM (eV)
  ---------------------------------------------------
  free  energy   TOTEN  =      -111.05811982 eV

  energy  without entropy=     -111.05811982  energy(sigma->0) =     -111.05811982
 
 d Force = 0.1822575E-04[ 0.807E-05, 0.284E-04]  d Energy = 0.6058498E-05 0.122E-04
 d Force =-0.2481566E+00[-0.248E+00,-0.248E+00]  d Ewald  =-0.2481566E+00-0.226E-09


--------------------------------------------------------------------------------------------------------


    POTLOK:  cpu time     72.2563: real time     72.8902


--------------------------------------------------------------------------------------------------------




--------------------------------------------------------------------------------------------------------


    WAVPRE:  cpu time      0.6182: real time      0.6444
    FEWALD:  cpu time      0.0004: real time      0.0004

 real space projection operators:
  total allocation   :       1677.08 KBytes
  max/ min on nodes  :         72.16         36.24

    ORTHCH:  cpu time      0.9210: real time      0.9293
    POTLOK:  cpu time     77.1489: real time     77.8441
    EDDIAG:  cpu time     46.7232: real time     47.1402
    CHARGE:  cpu time      1.0242: real time      1.0328
 writing wavefunctions
     LOOP+:  cpu time    787.9462: real time    795.9688


--------------------------------------- Ionic step       31  -------------------------------------------




--------------------------------------- Iteration     31(   1)  ---------------------------------------


    POTLOK:  cpu time     77.2431: real time     77.8775
    SETDIJ:  cpu time      0.0866: real time      0.0871
    TRIAL :  cpu time     49.5707: real time     50.0356
    CORREC:  cpu time      0.0012: real time      0.0012
    CHARGE:  cpu time      1.0221: real time      1.0298
    --------------------------------------------
      LOOP:  cpu time    127.9657: real time    129.0735

 eigenvalue-minimisations  :     0
 total energy-change (2. order) :-0.8495982E-05  (-0.4328998E-05)
 number of electron      42.9999995 magnetization       1.0000001
 augmentation part        1.4914215 magnetization       0.0561503

 Free energy of the ion-electron system (eV)
  ---------------------------------------------------
  alpha Z        PSCENC =         0.13892279
  Ewald energy   TEWEN  =      4474.66231488
  -Hartree energ DENC   =     -5643.83933824
  -exchange      EXHF   =       101.09643556
  -V(xc)+E(xc)   XCENC  =       116.93921981
  PAW double counting   =      4215.19891869    -4220.02419457
  entropy T*S    EENTRO =        -0.00000000
  eigenvalues    EBANDS =      -676.93741135
  atomic energy  EATOM  =      1664.54940031
  ---------------------------------------------------
  free energy    TOTEN  =      -110.77284885 eV

  energy without entropy =     -110.77284885  energy(sigma->0) =     -110.77284885
  exchange ACFDT corr.  =         0.00000000  see jH, gK, PRB 81, 115126


--------------------------------------------------------------------------------------------------------




--------------------------------------- Iteration     31(   2)  ---------------------------------------


    POTLOK:  cpu time     75.8662: real time     76.6208
    SETDIJ:  cpu time      0.0875: real time      0.0880
    TRIAL :  cpu time     49.6428: real time     50.0877
    CORREC:  cpu time      0.0003: real time      0.0003
    CHARGE:  cpu time      1.0261: real time      1.0349
    --------------------------------------------
      LOOP:  cpu time    126.6236: real time    127.8419

 eigenvalue-minimisations  :     0
 total energy-change (2. order) :-0.2743688E-05  (-0.1848998E-05)
 number of electron      42.9999995 magnetization       1.0000001
 augmentation part        1.4914161 magnetization       0.0561518

 Free energy of the ion-electron system (eV)
  ---------------------------------------------------
  alpha Z        PSCENC =         0.13892279
  Ewald energy   TEWEN  =      4474.66231488
  -Hartree energ DENC   =     -5643.88737056
  -exchange      EXHF   =       101.09731929
  -V(xc)+E(xc)   XCENC  =       116.94011237
  PAW double counting   =      4215.26943117    -4220.09479762
  entropy T*S    EENTRO =        -0.00000000
  eigenvalues    EBANDS =      -676.89273813
  atomic energy  EATOM  =      1664.54940031
  ---------------------------------------------------
  free energy    TOTEN  =      -110.77285159 eV

  energy without entropy =     -110.77285159  energy(sigma->0) =     -110.77285159
  exchange ACFDT corr.  =         0.00000000  see jH, gK, PRB 81, 115126


--------------------------------------------------------------------------------------------------------


  average scaling for gradient   1.0096


 average (electrostatic) potential at core
  the test charge radii are     0.6991  0.7215  0.5201
  (the norm of the test charge is              1.0000)
       1 -56.2371       2 -56.3991       3 -55.7809       4 -56.2780       5 -56.6249
       6 -57.7600       7 -58.3182       8 -56.6218       9 -77.5071      10 -39.1986
      11 -39.6349      12 -38.7374      13 -38.4447      14 -38.6955      15 -38.8938
 
 
 
 E-fermi :  -7.1587     XC(G=0):  -0.0182     alpha+bet : -0.0162

 Fermi energy:        -7.1587375310

 spin component 1

 k-point     1 :       0.0000    0.0000    0.0000
  band No.  band energies     occupation 
      1     -32.5532      1.00000
      2     -25.0957      1.00000
      3     -23.5763      1.00000
      4     -22.0720      1.00000
      5     -21.3819      1.00000
      6     -18.7351      1.00000
      7     -17.7376      1.00000
      8     -17.3135      1.00000
      9     -15.4324      1.00000
     10     -14.7842      1.00000
     11     -14.2618      1.00000
     12     -14.1186      1.00000
     13     -13.0371      1.00000
     14     -12.7078      1.00000
     15     -12.3410      1.00000
     16     -11.6316      1.00000
     17     -11.1108      1.00000
     18     -10.8598      1.00000
     19     -10.3258      1.00000
     20      -9.5912      1.00000
     21      -7.9396      1.00000
     22      -7.4741      1.00000
     23      -2.5952      0.00000
     24      -1.2607      0.00000
     25      -0.5063      0.00000
     26      -0.2421      0.00000
     27       0.0154      0.00000
     28       0.0444      0.00000
     29       0.0749      0.00000
     30       0.0903      0.00000
     31       0.0989      0.00000
     32       0.0992      0.00000
     33       0.1254      0.00000
     34       0.1323      0.00000
     35       0.1425      0.00000
     36       0.1660      0.00000
     37       0.1904      0.00000
     38       0.1920      0.00000
     39       0.1927      0.00000
 Fermi energy:        -7.1587375310

 spin component 2

 k-point     1 :       0.0000    0.0000    0.0000
  band No.  band energies     occupation 
      1     -32.4537      1.00000
      2     -24.9520      1.00000
      3     -23.3317      1.00000
      4     -21.9841      1.00000
      5     -21.0060      1.00000
      6     -18.6147      1.00000
      7     -17.5804      1.00000
      8     -17.1793      1.00000
      9     -15.3652      1.00000
     10     -14.6713      1.00000
     11     -14.0568      1.00000
     12     -13.7933      1.00000
     13     -13.0013      1.00000
     14     -12.6363      1.00000
     15     -12.2889      1.00000
     16     -11.5562      1.00000
     17     -10.8185      1.00000
     18     -10.6444      1.00000
     19     -10.2893      1.00000
     20      -8.8093      1.00000
     21      -7.7791      1.00000
     22      -5.6712      0.00000
     23      -1.7000      0.00000
     24      -0.9091      0.00000
     25      -0.2193      0.00000
     26       0.0159      0.00000
     27       0.0579      0.00000
     28       0.0769      0.00000
     29       0.0819      0.00000
     30       0.0989      0.00000
     31       0.0992      0.00000
     32       0.1285      0.00000
     33       0.1307      0.00000
     34       0.1351      0.00000
     35       0.1446      0.00000
     36       0.1883      0.00000
     37       0.1907      0.00000
     38       0.1921      0.00000
     39       0.1946      0.00000


--------------------------------------------------------------------------------------------------------


 soft charge-density along one line, spin component           1
         0         1         2         3         4         5         6         7         8         9
 total charge-density along one line
 
 soft charge-density along one line, spin component           2
         0         1         2         3         4         5         6         7         8         9
 total charge-density along one line
 
 pseudopotential strength for first ion, spin component:           1
 10.059  13.376   0.004   0.000  -0.001  -0.012  -0.000   0.004
 13.376  17.787   0.005   0.000  -0.002  -0.016  -0.000   0.005
  0.004   0.005  -4.267  -0.000   0.002   8.319   0.000  -0.003
  0.000   0.000  -0.000  -4.269   0.000   0.000   8.325  -0.000
 -0.001  -0.002   0.002   0.000  -4.270  -0.003  -0.000   8.324
 -0.012  -0.016   8.319   0.000  -0.003 -18.337  -0.000   0.006
 -0.000  -0.000   0.000   8.325  -0.000  -0.000 -18.356   0.000
  0.004   0.005  -0.003  -0.000   8.324   0.006   0.000 -18.346
 pseudopotential strength for first ion, spin component:           2
 10.063  13.382   0.004   0.000  -0.001  -0.013  -0.000   0.004
 13.382  17.795   0.005   0.000  -0.001  -0.017  -0.000   0.005
  0.004   0.005  -4.268  -0.000   0.002   8.319   0.000  -0.003
  0.000   0.000  -0.000  -4.272   0.000   0.000   8.330  -0.000
 -0.001  -0.001   0.002   0.000  -4.271  -0.003  -0.000   8.325
 -0.013  -0.017   8.319   0.000  -0.003 -18.335  -0.000   0.005
 -0.000  -0.000   0.000   8.330  -0.000  -0.000 -18.362   0.000
  0.004   0.005  -0.003  -0.000   8.325   0.005   0.000 -18.346
 total augmentation occupancy for first ion, spin component:           1
  9.068  -4.125   0.335  -0.000  -0.128   0.071  -0.000  -0.021
 -4.125   1.912  -0.242  -0.000   0.088  -0.044  -0.000   0.012
  0.335  -0.242   1.872  -0.000  -0.027   0.172  -0.000  -0.006
 -0.000  -0.000  -0.000   1.138   0.000  -0.000   0.074   0.000
 -0.128   0.088  -0.027   0.000   1.884  -0.006   0.000   0.185
  0.071  -0.044   0.172  -0.000  -0.006   0.017  -0.000  -0.001
 -0.000  -0.000  -0.000   0.074   0.000  -0.000   0.005  -0.000
 -0.021   0.012  -0.006   0.000   0.185  -0.001  -0.000   0.019
 total augmentation occupancy for first ion, spin component:           2
  0.018  -0.016   0.001  -0.000   0.008   0.001  -0.000   0.002
 -0.016   0.011  -0.003   0.000  -0.008  -0.001   0.000  -0.001
  0.001  -0.003  -0.004   0.000  -0.002   0.000  -0.000   0.000
 -0.000   0.000   0.000  -0.020  -0.000  -0.000   0.001  -0.000
  0.008  -0.008  -0.002  -0.000  -0.009   0.000  -0.000   0.000
  0.001  -0.001   0.000  -0.000   0.000   0.000  -0.000   0.000
 -0.000   0.000  -0.000   0.001  -0.000  -0.000   0.000   0.000
  0.002  -0.001   0.000  -0.000   0.000   0.000   0.000   0.000


------------------------ aborting loop because EDIFF is reached ----------------------------------------


    FORLOC:  cpu time      0.2349: real time      0.2363
    FORHF :  cpu time     34.4583: real time     34.7693
    FORNL :  cpu time      2.6503: real time      2.6707
    STRESS:  cpu time      8.0843: real time      8.1535
    FORCOR:  cpu time      5.6884: real time      5.7361
    OFIELD:  cpu time      0.0220: real time      0.0222

 ---------------------------------------------------------------------------------------------

         DFTD3 V3.0 Rev 1        
 Edisp (eV)   -0.28527

 E6    (eV) :    -0.1435
 E8    (eV) :    -0.1417
 % E8        : 49.68
    FORVDW:  cpu time      0.0040: real time      0.0040

  FORCE on cell =-STRESS in cart. coord.  units (eV):
  Direction    XX          YY          ZZ          XY          YZ          ZX
  --------------------------------------------------------------------------------------
  Alpha Z     0.13892     0.13892     0.13892
  Ewald    2797.92746  2008.21048  -331.47644   -35.53705    -0.00027    -0.00394
  Hartree  2749.55317  2138.22385   756.12254     6.73508    -0.00008    -0.00192
  E(xc)    -124.79363  -125.04823  -127.18465    -0.07212    -0.00000    -0.00001
  Local   -5966.92477 -4581.71770  -942.15045    19.92272     0.00036     0.00567
  n-local   -58.12990   -60.53852   -53.00866     0.20399     0.00002     0.00005
  augment     3.15966     4.23501     4.70012     0.44153    -0.00000    -0.00001
  Kinetic   648.69393   665.64931   735.72664     7.58685    -0.00004     0.00012
  Fock      -48.68364   -48.80385   -43.87660     0.22623     0.00000     0.00002
  vdW         0.05332     0.01091    -0.00000    -0.01448     0.00000     0.00000
  -------------------------------------------------------------------------------------
  Total       0.99454     0.36017    -1.00857    -0.50724     0.00000     0.00000
  in kB       0.02490     0.00902    -0.02525    -0.01270     0.00000     0.00000
  external pressure =        0.00 kB  Pullay stress =        0.00 kB


 VOLUME and BASIS-vectors are now :
 -----------------------------------------------------------------------------
  energy-cutoff  :      500.00
  volume of cell :    64000.00
      direct lattice vectors                 reciprocal lattice vectors
    40.000000000  0.000000000  0.000000000     0.025000000  0.000000000  0.000000000
     0.000000000 40.000000000  0.000000000     0.000000000  0.025000000  0.000000000
     0.000000000  0.000000000 40.000000000     0.000000000  0.000000000  0.025000000

  length of vectors
    40.000000000 40.000000000 40.000000000     0.025000000  0.025000000  0.025000000


 FORCES acting on ions:
    Electron-Ion                     Ewald-Force                    Non-Local-Force
 -----------------------------------------------------------------------------------------------
   -.733E+02 0.210E+03 0.117E-04   0.748E+02 -.214E+03 -.263E-04   -.122E+01 0.364E+01 0.212E-21
   -.190E+03 0.991E+02 0.144E-04   0.193E+03 -.993E+02 -.137E-04   -.225E+01 0.423E+00 -.662E-23
   -.200E+03 -.834E+02 0.943E-05   0.203E+03 0.848E+02 -.129E-04   -.224E+01 -.133E+01 0.000E+00
   -.611E+02 -.204E+03 0.188E-04   0.637E+02 0.207E+03 -.222E-04   -.172E+01 -.279E+01 0.132E-22
   -.941E+01 -.137E+03 0.424E-04   0.114E+02 0.138E+03 -.645E-04   -.109E+01 -.208E+01 -.529E-22
   -.359E+02 0.850E+02 0.741E-04   0.442E+02 -.831E+02 -.718E-04   -.741E+01 -.222E+01 0.000E+00
   0.278E+03 -.526E+02 0.194E-02   -.284E+03 0.585E+02 -.184E-02   0.731E+01 -.632E+01 -.424E-21
   0.136E+03 -.213E+03 0.228E-03   -.136E+03 0.217E+03 -.199E-03   0.628E+00 -.469E+01 0.169E-20
   0.204E+03 0.325E+03 0.544E-03   -.217E+03 -.378E+03 -.401E-03   0.116E+02 0.441E+02 0.339E-20
   0.410E+02 -.797E+02 0.288E-04   -.432E+02 0.855E+02 -.282E-04   0.229E+01 -.569E+01 -.265E-22
   0.924E+02 0.572E+01 -.253E-02   -.986E+02 -.678E+01 0.269E-02   0.630E+01 0.859E+00 0.339E-20
   -.135E+02 -.879E+02 0.354E-05   0.140E+02 0.940E+02 -.408E-05   -.259E+00 -.600E+01 0.000E+00
   -.796E+02 -.375E+02 0.186E-05   0.851E+02 0.402E+02 -.193E-05   -.533E+01 -.261E+01 0.165E-23
   -.758E+02 0.447E+02 0.167E-05   0.811E+02 -.478E+02 -.207E-05   -.511E+01 0.318E+01 0.414E-24
   -.942E+01 0.901E+02 0.354E-05   0.919E+01 -.962E+02 -.511E-05   0.212E+00 0.601E+01 0.331E-23
 -----------------------------------------------------------------------------------------------
   -.289E+01 -.300E+02 0.522E-03   -.817E-13 -.568E-13 0.170E-17   0.166E+01 0.245E+02 0.819E-20
 
 
 POSITION                                       TOTAL-FORCE (eV/Angst)
 -----------------------------------------------------------------------------------
     20.66972     18.43558     20.00000        -0.013688      0.013434     -0.000000
     21.89508     19.13550     20.00000         0.002499     -0.006657     -0.000000
     21.96782     20.53830     20.00000        -0.007782      0.006629     -0.000000
     20.82725     21.30593     20.00000        -0.003121     -0.002951     -0.000000
     19.57835     20.63141     20.00000         0.007918     -0.017375     -0.000000
     19.55865     19.21582     20.00000        -0.002569      0.000284     -0.000000
     17.48886     19.85990     20.00000         0.003699      0.001050     -0.000000
     18.24863     21.04003     20.00000         0.006412     -0.009149      0.000000
     18.24904     18.77661     20.00000        -0.001818     -0.005277      0.000000
     17.84483     22.03925     20.00000         0.007330      0.017037     -0.000000
     16.42128     19.70541     20.00004        -0.002949      0.002010      0.000000
     20.86750     22.38666     20.00000        -0.009101      0.011655     -0.000000
     22.94033     21.01165     20.00000         0.001461      0.004840     -0.000000
     22.81311     18.56194     20.00000         0.007555      0.002661     -0.000000
     20.62950     17.35596     20.00000         0.004153     -0.018191     -0.000000
 -----------------------------------------------------------------------------------
    total drift:                               -0.027460     -0.046633      0.000522


--------------------------------------------------------------------------------------------------------



  FREE ENERGIE OF THE ION-ELECTRON SYSTEM (eV)
  ---------------------------------------------------
  free  energy   TOTEN  =      -111.05811973 eV

  energy  without entropy=     -111.05811973  energy(sigma->0) =     -111.05811973
 
 d Force =-0.5803467E-06[-0.285E-05, 0.169E-05]  d Energy =-0.9017310E-07-0.490E-06
 d Force =-0.5195093E-01[-0.520E-01,-0.520E-01]  d Ewald  =-0.5195093E-01 0.855E-10


--------------------------------------------------------------------------------------------------------


    POTLOK:  cpu time     72.2277: real time     72.8647


--------------------------------------------------------------------------------------------------------




--------------------------------------------------------------------------------------------------------


  
 reached required accuracy - stopping structural energy minimisation
 writing wavefunctions
     LOOP+:  cpu time    396.3254: real time    400.7147
    4ORBIT:  cpu time      0.0000: real time      0.0000

 total amount of memory used by VASP MPI-rank0  1118474. kBytes
=======================================================================

   base      :      30000. kBytes
   nonlr-proj:      40300. kBytes
   fftplans  :     129164. kBytes
   grid      :     282813. kBytes
   one-center:          6. kBytes
   HF        :          4. kBytes
   wavefun   :      67614. kBytes
   fock_wrk  :     568573. kBytes
 
  
  
 General timing and accounting informations for this job:
 ========================================================
  
                  Total CPU time used (sec):    53730.375
                            User time (sec):    51074.256
                          System time (sec):     2656.118
                         Elapsed time (sec):    54247.662
  
                   Maximum memory used (kb):     1687800.
                   Average memory used (kb):          N/A
  
                          Minor page faults:     29035605
                          Major page faults:          265
                 Voluntary context switches:      1537776
