
                                 *****************
                                 * O   R   C   A *
                                 *****************

                                            #,                                       
                                            ###                                      
                                            ####                                     
                                            #####                                    
                                            ######                                   
                                           ########,                                 
                                     ,,################,,,,,                         
                               ,,#################################,,                 
                          ,,##########################################,,             
                       ,#########################################, ''#####,          
                    ,#############################################,,   '####,        
                  ,##################################################,,,,####,       
                ,###########''''           ''''###############################       
              ,#####''   ,,,,##########,,,,          '''####'''          '####       
            ,##' ,,,,###########################,,,                        '##       
           ' ,,###''''                  '''############,,,                           
         ,,##''                                '''############,,,,        ,,,,,,###''
      ,#''                                            '''#######################'''  
     '                                                          ''''####''''         
             ,#######,   #######,   ,#######,      ##                                
            ,#'     '#,  ##    ##  ,#'     '#,    #''#        ,####,   ,####,        
            ##       ##  ##   ,#'  ##            #'  '#       #'       #'  '#        
            ##       ##  #######   ##           ,######,      #####,   #    #        
            '#,     ,#'  ##    ##  '#,     ,#' ,#      #,     #,   #   #,  ,#        
             '#######'   ##     ##  '#######'  #'      '#     '####' # '####'        



                #########################################################
                #                        -***-                          #
                #          Department of theory and spectroscopy        #
                #                                                       #
                #                      Frank Neese                      #
                #                                                       #
                #     Directorship, Architecture, Infrastructure        #
                #                    SHARK, DRIVERS                     #
                #        Core code/Algorithms in most modules           #
                #                                                       #
                #        Max Planck Institute fuer Kohlenforschung      #
                #                Kaiser Wilhelm Platz 1                 #
                #                 D-45470 Muelheim/Ruhr                 #
                #                      Germany                          #
                #                                                       #
                #                  All rights reserved                  #
                #                        -***-                          #
                #########################################################


                         Program Version 6.0.0  -   RELEASE  -


 With contributions from (in alphabetic order):
   Daniel Aravena         : Magnetic Suceptibility
   Michael Atanasov       : Ab Initio Ligand Field Theory (pilot matlab implementation)
   Alexander A. Auer      : GIAO ZORA, VPT2 properties, NMR spectrum
   Ute Becker             : All parallelization in ORCA, NUMFREQ, NUMCALC
   Giovanni Bistoni       : ED, misc. LED, open-shell LED, HFLD
   Martin Brehm           : Molecular dynamics
   Dmytro Bykov           : pre 5.0 version of the SCF Hessian
   Marcos Casanova-Páez   : Triplet and SCS-CIS(D). UHF-(DLPNO)-IP/EA/STEOM-CCSD. UHF-CVS-IP/STEOM-CCSD
   Vijay G. Chilkuri      : MRCI spin determinant printing, contributions to CSF-ICE
   Pauline Colinet        : FMM embedding
   Dipayan Datta          : RHF DLPNO-CCSD density
   Achintya Kumar Dutta   : EOM-CC, STEOM-CC
   Nicolas Foglia         : Exact transition moments, OPA infrastructure, MCD improvements
   Dmitry Ganyushin       : Spin-Orbit,Spin-Spin,Magnetic field MRCI
   Miquel Garcia          : C-PCM and meta-GGA Hessian, CCSD/C-PCM, Gaussian charge scheme
   Tiago L. C. Gouveia    : GS-ROHF, GS-ROCIS
   Yang Guo               : DLPNO-NEVPT2, F12-NEVPT2, CIM, IAO-localization
   Andreas Hansen         : Spin unrestricted coupled pair/coupled cluster methods
   Ingolf Harden          : AUTO-CI MPn and infrastructure 
   Benjamin Helmich-Paris : MC-RPA, TRAH-(SCF,CASSCF), AVAS, COSX integrals, SCF dyn. polar.
   Lee Huntington         : MR-EOM, pCC
   Robert Izsak           : Overlap fitted RIJCOSX, COSX-SCS-MP3, EOM
   Riya Kayal             : Wick's Theorem for AUTO-CI, AUTO-CI UHF-CCSDT
   Emily Kempfer          : AUTO-CI, RHF CISDT and CCSDT
   Christian Kollmar      : KDIIS, OOCD, Brueckner-CCSD(T), CCSD density, CASPT2, CASPT2-K, improved NEVPT2
   Axel Koslowski         : Symmetry handling
   Simone Kossmann        : Meta GGA functionals, TD-DFT gradient, OOMP2, (MP2 Hessian; deprecated post 5.0)
   Lucas Lang             : DCDCAS
   Marvin Lechner         : AUTO-CI (C++ implementation), FIC-MRCC
   Spencer Leger          : CASSCF response
   Dagmar Lenk            : GEPOL surface, SMD, ORCA-2-JSON
   Dimitrios Liakos       : Extrapolation schemes; Compound Job, initial MDCI parallelization
   Dimitrios Manganas     : Further ROCIS development; embedding schemes. LFT, Crystal Embedding
   Dimitrios Pantazis     : SARC Basis sets
   Anastasios Papadopoulos: AUTO-CI, single reference methods and gradients
   Taras Petrenko         : pre 6.0 DFT Hessian and TD-DFT gradient, (ASA, deprecated), ECA, 1-Electron XAS/XES, NRVS
   Peter Pinski           : DLPNO-MP2, DLPNO-MP2 Gradient
   Christoph Reimann      : Effective Core Potentials
   Marius Retegan         : Local ZFS, SOC
   Christoph Riplinger    : Optimizer, TS searches, QM/MM, DLPNO-CCSD(T), (RO)-DLPNO pert. Triples
   Michael Roemelt        : Original ROCIS implementation
   Masaaki Saitow         : Open-shell DLPNO-CCSD energy and density
   Barbara Sandhoefer     : DKH picture change effects
   Kantharuban Sivalingam : CASSCF convergence/infrastructure, NEVPT2 and variants, FIC-MRCI
   Bernardo de Souza      : ESD, SOC TD-DFT
   Georgi Stoychev        : AutoAux, RI-MP2 NMR, DLPNO-MP2 response, X2C
   Van Anh Tran           : RI-MP2 g-tensors
   Willem Van den Heuvel  : Paramagnetic NMR
   Zikuan Wang            : NOTCH, Electric field optimization 
   Frank Wennmohs         : Technical directorship and infrastructure
   Hang Xu                : AUTO-CI-Response properties 


 We gratefully acknowledge several colleagues who have allowed us to
 interface, adapt or use parts of their codes:
   Stefan Grimme, W. Hujo, H. Kruse, P. Pracht,  : VdW corrections, initial TS optimization,
                  C. Bannwarth, S. Ehlert,         DFT functionals, gCP, sTDA/sTD-DF
                  L. Wittmann, M. Mueller
   Ed Valeev, F. Pavosevic, A. Kumar             : LibInt (2-el integral package), F12 methods
   Garnet Chan, S. Sharma, J. Yang, R. Olivares  : DMRG
   Ulf Ekstrom                                   : XCFun DFT Library
   Mihaly Kallay                                 : mrcc  (arbitrary order and MRCC methods)
   Frank Weinhold                                : gennbo (NPA and NBO analysis)
   Simon Mueller                                 : openCOSMO-RS
   Christopher J. Cramer and Donald G. Truhlar   : smd solvation model
   Lars Goerigk                                  : TD-DFT with DH, B97 family of functionals
   V. Asgeirsson, H. Jonsson                     : NEB implementation
   FAccTs GmbH                                   : IRC, NEB, NEB-TS, DLPNO-Multilevel, CI-OPT
                                                   MM, QMMM, 2- and 3-layer-ONIOM, Crystal-QMMM,
                                                   LR-CPCM, SF, NACMEs, symmetry and pop. for TD-DFT,
                                                   nearIR, NL-DFT gradient (VV10), updates on ESD,
                                                   ML-optimized integration grids, MBIS, APM,
                                                   GOAT, DOCKER, SOLVATOR, interface openCOSMO-RS
   S Lehtola, MJT Oliveira, MAL Marques          : LibXC Library
   Liviu Ungur et al                             : ANISO software


 Your calculation uses the libint2 library for the computation of 2-el integrals
 For citations please refer to: http://libint.valeyev.net

 Your ORCA version has been built with support for libXC version: 6.2.2
 For citations please refer to: https://libxc.gitlab.io

 This ORCA versions uses:
   CBLAS   interface :  Fast vector & matrix operations
   LAPACKE interface :  Fast linear algebra routines
   SCALAPACK package :  Parallel linear algebra routines
   Shared memory     :  Shared parallel matrices
   BLAS/LAPACK       :  OpenBLAS 0.3.27  USE64BITINT DYNAMIC_ARCH NO_AFFINITY Sandybridge SINGLE_THREADED
        Core in use  :  Sandybridge
   Copyright (c) 2011-2014, The OpenBLAS Project


NOTE: MaxCore=5000 MB was set to SCF,MP2,MDCI,CIPSI,MRCI and CIS
      => If you want to overwrite this, your respective input block should be placed after the MaxCore statement
Your calculation utilizes the atom-pairwise dispersion correction
with the Becke-Johnson damping scheme (D3BJ)


Your calculation utilizes the SMD solvation module
Please cite in your paper:
A.V. Marenich, C.J. Cramer, D.G. Truhlar J. Phys. Chem. B, 113, (2009), 6378 

Warning: RI is on but no J-basis has been assigned. Assigning Def2/J (nothing to worry about!)
================================================================================

----- Orbital basis set information -----
Your calculation utilizes the basis: aug-cc-pVTZ 
    H, B-Ne : Obtained from the ccRepo (grant-hill.group.shef.ac.uk/ccrepo) Feb. 2017
              R. A. Kendall, T. H. Dunning, Jr., R. J. Harrison, J. Chem. Phys. 96, 6796 (1992)
         He : Obtained from the ccRepo (grant-hill.group.shef.ac.uk/ccrepo) Feb. 2017
              D. E. Woon, T. H. Dunning, Jr., J. Chem. Phys. 100, 2975 (1994)
  Li-Be, Na : Obtained from the ccRepo (grant-hill.group.shef.ac.uk/ccrepo) Feb. 2017
              B. P. Prascher, D. E. Woon, K. A. Peterson, T. H. Dunning, Jr., A. K. Wilson, Theor. Chem. Acc. 128, 69 (2011)
         Mg : Obtained from the Peterson Research Group Website (tyr0.chem.wsu.edu/~kipeters) Feb. 2017
              B. P. Prascher, D. E. Woon, K. A. Peterson, T. H. Dunning, Jr., A. K. Wilson, Theor. Chem. Acc. 128, 69 (2011)
      Al-Ar : Obtained from the ccRepo (grant-hill.group.shef.ac.uk/ccrepo) Feb. 2017
              D. E. Woon, T. H. Dunning, Jr., J. Chem. Phys. 98, 1358 (1993)
      Sc-Zn : Obtained from the ccRepo (grant-hill.group.shef.ac.uk/ccrepo) Feb. 2017
              N. B. Balabanov, K. A. Peterson, J. Chem. Phys. 123, 064107 (2005)
              N. B. Balabanov, K. A. Peterson, J. Chem. Phys. 125, 074110 (2006)
      Ga-Kr : Obtained from the ccRepo (grant-hill.group.shef.ac.uk/ccrepo) Feb. 2017
              A. K. Wilson, D. E. Woon, K. A. Peterson, T. H. Dunning, Jr., J. Chem. Phys. 110, 7667 (1999)
     Ag, Au : Obtained from the Peterson Research Group Website (tyr0.chem.wsu.edu/~kipeters) Feb. 2017
              K. A. Peterson, C. Puzzarini, Theor. Chem. Acc. 114, 283 (2005)

----- AuxJ basis set information -----
Your calculation utilizes the auxiliary basis: def2/J
   F. Weigend, Phys. Chem. Chem. Phys. 8, 1057 (2006).

================================================================================
                                        WARNINGS
                       Please study these warnings very carefully!
================================================================================

Using LibXC functional ID 497 : Re-regularized SCAN exchange by Furness et al
[ 1]  J. W. Furness, A. D. Kaplan, J. Ning, J. P. Perdew, and J. Sun.,  J. Phys. Chem. Lett. 11, 8208-8215 (2020)
[ 2]  J. W. Furness, A. D. Kaplan, J. Ning, J. P. Perdew, and J. Sun.,  J. Phys. Chem. Lett. 11, 9248-9248 (2020)
Using LibXC functional ID 498 : Re-regularized SCAN correlation by Furness et al
[ 1]  J. W. Furness, A. D. Kaplan, J. Ning, J. P. Perdew, and J. Sun.,  J. Phys. Chem. Lett. 11, 8208-8215 (2020)
[ 2]  J. W. Furness, A. D. Kaplan, J. Ning, J. P. Perdew, and J. Sun.,  J. Phys. Chem. Lett. 11, 9248-9248 (2020)
Using LibXC functional ID 497 : Re-regularized SCAN exchange by Furness et al
[ 1]  J. W. Furness, A. D. Kaplan, J. Ning, J. P. Perdew, and J. Sun.,  J. Phys. Chem. Lett. 11, 8208-8215 (2020)
[ 2]  J. W. Furness, A. D. Kaplan, J. Ning, J. P. Perdew, and J. Sun.,  J. Phys. Chem. Lett. 11, 9248-9248 (2020)
Using LibXC functional ID 498 : Re-regularized SCAN correlation by Furness et al
[ 1]  J. W. Furness, A. D. Kaplan, J. Ning, J. P. Perdew, and J. Sun.,  J. Phys. Chem. Lett. 11, 8208-8215 (2020)
[ 2]  J. W. Furness, A. D. Kaplan, J. Ning, J. P. Perdew, and J. Sun.,  J. Phys. Chem. Lett. 11, 9248-9248 (2020)


WARNING: Found flag for RIJCOSX approximation but no HF exchange needed!
  ===> : RIJCOSX  will be disabled and Split-RI-J is turned on

WARNING: your system is open-shell and RHF/RKS was chosen
  ===> : WILL SWITCH to UHF/UKS


================================================================================
                                       INPUT FILE
================================================================================
NAME = cs_rporg_009_ox_freq_06.inp
|  1> !r2SCAN freq aug-cc-pVTZ d3 TightSCF SlowConv RIJCOSX defgrid2
|  2> 
|  3> %pal
|  4> nprocs 12
|  5> end
|  6> 
|  7> %scf
|  8> MaxIter 1500
|  9> end
| 10> 
| 11> %maxcore 5000
| 12> 
| 13> !CPCM
| 14> %cpcm smd true
| 15> SMDsolvent "MeCN"
| 16> surfacetype gepol_ses
| 17> rsolv 2.19
| 18> end 
| 19> 
| 20> * xyz 1 2
| 21> C           0.87721955970184     -1.20996210341370     -0.00114251028656
| 22> C           1.22867095701627      0.17590272063415     -0.00092471281421
| 23> C           0.19429293870811      1.14281829112205     -0.00102239586650
| 24> C          -1.13197195811747      0.78681533222205     -0.00063846881880
| 25> C          -1.46664592271824     -0.60957921985085     -0.00036409628715
| 26> C          -0.43765173573983     -1.57690655989999     -0.00089994213469
| 27> H          -0.70944713803654     -2.62484351485609     -0.00070753151805
| 28> C          -2.88059729169912     -1.03307018747702      0.00075676547606
| 29> H          -2.98132411626939     -2.11548087818676     -0.00078867333362
| 30> H          -3.40473265028858     -0.62124725421179     -0.86856391435484
| 31> H          -3.40181104267977     -0.62445723345523      0.87344122063180
| 32> C          -2.20822581783345      1.81500259004710     -0.00037175054170
| 33> H          -2.85205732065366      1.70759027718409      0.87683729500448
| 34> H          -2.85390374500787      1.70584072354095     -0.87597703440387
| 35> H          -1.78882008599952      2.81907415545451     -0.00188412960968
| 36> H           0.47068687952919      2.19071343450304     -0.00145067104349
| 37> C           2.57614595296052      0.62247421593669      0.00033366292164
| 38> C           3.67610604990702     -0.18646918563231      0.00118982175465
| 39> H           3.60979089025452     -1.26629688619945     -0.00003716156364
| 40> H           4.66623914142931      0.24946044526317      0.00293842337002
| 41> H           2.72717236267435      1.69691097957696      0.00052907362996
| 42> H           1.64810089286234     -1.96771894230155     -0.00171977021184
| 43> *
| 44> 
| 45>                          ****END OF INPUT****
================================================================================

                       ****************************
                       * Single Point Calculation *
                       ****************************

---------------------------------
CARTESIAN COORDINATES (ANGSTROEM)
---------------------------------
  C      0.877220   -1.209962   -0.001143
  C      1.228671    0.175903   -0.000925
  C      0.194293    1.142818   -0.001022
  C     -1.131972    0.786815   -0.000638
  C     -1.466646   -0.609579   -0.000364
  C     -0.437652   -1.576907   -0.000900
  H     -0.709447   -2.624844   -0.000708
  C     -2.880597   -1.033070    0.000757
  H     -2.981324   -2.115481   -0.000789
  H     -3.404733   -0.621247   -0.868564
  H     -3.401811   -0.624457    0.873441
  C     -2.208226    1.815003   -0.000372
  H     -2.852057    1.707590    0.876837
  H     -2.853904    1.705841   -0.875977
  H     -1.788820    2.819074   -0.001884
  H      0.470687    2.190713   -0.001451
  C      2.576146    0.622474    0.000334
  C      3.676106   -0.186469    0.001190
  H      3.609791   -1.266297   -0.000037
  H      4.666239    0.249460    0.002938
  H      2.727172    1.696911    0.000529
  H      1.648101   -1.967719   -0.001720

----------------------------
CARTESIAN COORDINATES (A.U.)
----------------------------
  NO LB      ZA    FRAG     MASS         X           Y           Z
   0 C     6.0000    0    12.011    1.657705   -2.286497   -0.002159
   1 C     6.0000    0    12.011    2.321852    0.332408   -0.001747
   2 C     6.0000    0    12.011    0.367160    2.159614   -0.001932
   3 C     6.0000    0    12.011   -2.139117    1.486865   -0.001207
   4 C     6.0000    0    12.011   -2.771559   -1.151938   -0.000688
   5 C     6.0000    0    12.011   -0.827042   -2.979922   -0.001701
   6 H     1.0000    0     1.008   -1.340661   -4.960235   -0.001337
   7 C     6.0000    0    12.011   -5.443540   -1.952220    0.001430
   8 H     1.0000    0     1.008   -5.633886   -3.997680   -0.001490
   9 H     1.0000    0     1.008   -6.434012   -1.173987   -1.641348
  10 H     1.0000    0     1.008   -6.428491   -1.180053    1.650565
  11 C     6.0000    0    12.011   -4.172942    3.429858   -0.000703
  12 H     1.0000    0     1.008   -5.389607    3.226878    1.656982
  13 H     1.0000    0     1.008   -5.393096    3.223572   -1.655357
  14 H     1.0000    0     1.008   -3.380380    5.327278   -0.003560
  15 H     1.0000    0     1.008    0.889469    4.139848   -0.002741
  16 C     6.0000    0    12.011    4.868210    1.176306    0.000631
  17 C     6.0000    0    12.011    6.946834   -0.352376    0.002248
  18 H     1.0000    0     1.008    6.821516   -2.392954   -0.000070
  19 H     1.0000    0     1.008    8.817914    0.471412    0.005553
  20 H     1.0000    0     1.008    5.153609    3.206697    0.001000
  21 H     1.0000    0     1.008    3.114459   -3.718450   -0.003250

--------------------------------
INTERNAL COORDINATES (ANGSTROEM)
--------------------------------
 C      0   0   0     0.000000000000     0.00000000     0.00000000
 C      1   0   0     1.429734046123     0.00000000     0.00000000
 C      2   1   0     1.415932065727   118.83926474     0.00000000
 C      3   2   1     1.373214051303   121.90522890     0.03347099
 C      4   3   2     1.435940278327   118.50330379     0.00000000
 C      1   2   3     1.365113481203   119.82301265   359.97394314
 H      6   1   2     1.082610104929   120.13294888   180.02176129
 C      5   4   3     1.476009596796   120.15128089   179.96832522
 H      8   5   4     1.087088397938   111.98983887   179.90719869
 H      8   5   4     1.095460837670   110.47995695    57.94172474
 H      8   5   4     1.095539355147   110.44744678   301.81595904
 C      4   3   2     1.488452713003   121.28299651   179.98309049
 H     12   4   3     1.093413059446   110.98033875   239.21014792
 H     12   4   3     1.093389643204   110.97028397   120.92935815
 H     12   4   3     1.088146664584   111.02098456     0.07675065
 H      3   2   1     1.083733373789   118.29344386   180.03572719
 C      2   1   3     1.419548008565   122.56594887   179.95462702
 C     17   2   1     1.365394585761   125.33224782     0.00000000
 H     18  17   2     1.081862777250   122.81751471     0.06370111
 H     18  17   2     1.081850839824   119.90551212   180.04937928
 H     17   2   1     1.084999250543   116.33715937   180.00845401
 H      1   2   3     1.080950410484   120.27802784   179.96034648

---------------------------
INTERNAL COORDINATES (A.U.)
---------------------------
 C      0   0   0     0.000000000000     0.00000000     0.00000000
 C      1   0   0     2.701805791516     0.00000000     0.00000000
 C      2   1   0     2.675723828461   118.83926474     0.00000000
 C      3   2   1     2.594998480216   121.90522890     0.03347099
 C      4   3   2     2.713533870704   118.50330379     0.00000000
 C      1   2   3     2.579690621197   119.82301265   359.97394314
 H      6   1   2     2.045836608131   120.13294888   180.02176129
 C      5   4   3     2.789253908985   120.15128089   179.96832522
 H      8   5   4     2.054299355466   111.98983887   179.90719869
 H      8   5   4     2.070120973632   110.47995695    57.94172474
 H      8   5   4     2.070269350161   110.44744678   301.81595904
 C      4   3   2     2.812767990868   121.28299651   179.98309049
 H     12   4   3     2.066251233605   110.98033875   239.21014792
 H     12   4   3     2.066206983322   110.97028397   120.92935815
 H     12   4   3     2.056299189604   111.02098456     0.07675065
 H      3   2   1     2.047959278651   118.29344386   180.03572719
 C      2   1   3     2.682556970141   122.56594887   179.95462702
 C     17   2   1     2.580221831827   125.33224782     0.00000000
 H     18  17   2     2.044424363487   122.81751471     0.06370111
 H     18  17   2     2.044401805020   119.90551212   180.04937928
 H     17   2   1     2.050351439035   116.33715937   180.00845401
 H      1   2   3     2.042700240165   120.27802784   179.96034648

---------------------
BASIS SET INFORMATION
---------------------
There are 2 groups of distinct atoms

 Group   1 Type C   : 19s6p3d2f contracted to 5s4p3d2f pattern {88111/3111/111/11}
 Group   2 Type H   : 6s3p2d contracted to 4s3p2d pattern {3111/111/11}

Atom   0C    basis set group =>   1
Atom   1C    basis set group =>   1
Atom   2C    basis set group =>   1
Atom   3C    basis set group =>   1
Atom   4C    basis set group =>   1
Atom   5C    basis set group =>   1
Atom   6H    basis set group =>   2
Atom   7C    basis set group =>   1
Atom   8H    basis set group =>   2
Atom   9H    basis set group =>   2
Atom  10H    basis set group =>   2
Atom  11C    basis set group =>   1
Atom  12H    basis set group =>   2
Atom  13H    basis set group =>   2
Atom  14H    basis set group =>   2
Atom  15H    basis set group =>   2
Atom  16C    basis set group =>   1
Atom  17C    basis set group =>   1
Atom  18H    basis set group =>   2
Atom  19H    basis set group =>   2
Atom  20H    basis set group =>   2
Atom  21H    basis set group =>   2
---------------------------------
AUXILIARY/J BASIS SET INFORMATION
---------------------------------
There are 2 groups of distinct atoms

 Group   1 Type C   : 12s5p4d2f1g contracted to 6s4p3d1f1g pattern {711111/2111/211/2/1}
 Group   2 Type H   : 5s2p1d contracted to 3s1p1d pattern {311/2/1}

Atom   0C    basis set group =>   1
Atom   1C    basis set group =>   1
Atom   2C    basis set group =>   1
Atom   3C    basis set group =>   1
Atom   4C    basis set group =>   1
Atom   5C    basis set group =>   1
Atom   6H    basis set group =>   2
Atom   7C    basis set group =>   1
Atom   8H    basis set group =>   2
Atom   9H    basis set group =>   2
Atom  10H    basis set group =>   2
Atom  11C    basis set group =>   1
Atom  12H    basis set group =>   2
Atom  13H    basis set group =>   2
Atom  14H    basis set group =>   2
Atom  15H    basis set group =>   2
Atom  16C    basis set group =>   1
Atom  17C    basis set group =>   1
Atom  18H    basis set group =>   2
Atom  19H    basis set group =>   2
Atom  20H    basis set group =>   2
Atom  21H    basis set group =>   2


           ************************************************************
           *        Program running with 12 parallel MPI-processes    *
           *              working on a common directory               *
           ************************************************************
------------------------------------------------------------------------------
                             ORCA STARTUP CALCULATIONS
                           -- RI-GTO INTEGRALS CHOSEN --
------------------------------------------------------------------------------
------------------------------------------------------------------------------
                   ___                                                        
                  /   \      - P O W E R E D   B Y -                         
                 /     \                                                     
                 |  |  |   _    _      __       _____    __    __             
                 |  |  |  | |  | |    /  \     |  _  \  |  |  /  |          
                  \  \/   | |  | |   /    \    | | | |  |  | /  /          
                 / \  \   | |__| |  /  /\  \   | |_| |  |  |/  /          
                |  |  |   |  __  | /  /__\  \  |    /   |      \           
                |  |  |   | |  | | |   __   |  |    \   |  |\   \          
                \     /   | |  | | |  |  |  |  | |\  \  |  | \   \       
                 \___/    |_|  |_| |__|  |__|  |_| \__\ |__|  \__/        
                                                                              
                      - O R C A' S   B I G   F R I E N D -                    
                                      &                                       
                       - I N T E G R A L  F E E D E R -                       
                                                                              
 v1 FN, 2020, v2 2021, v3 2022-2024                                           
------------------------------------------------------------------------------


----------------------
SHARK INTEGRAL PACKAGE
----------------------

Number of atoms                             ...     22
Number of basis functions                   ...    796
Number of shells                            ...    308
Maximum angular momentum                    ...      3
Integral batch strategy                     ... SHARK/LIBINT Hybrid
RI-J (if used) integral strategy            ... SPLIT-RIJ (Revised 2003 algorithm where possible)
Printlevel                                  ...      1
Contraction scheme used                     ... PARTIAL GENERAL contraction
Prescreening option                         ... SCHWARTZ
   Thresh                                   ... 2.500e-11
   Tcut                                     ... 2.500e-12
   Tpresel                                  ... 2.500e-12 
Coulomb Range Separation                    ... NOT USED
Exchange Range Separation                   ... NOT USED
Multipole approximations                    ... NOT USED
Finite Nucleus Model                        ... NOT USED
CABS basis                                  ... NOT available
Auxiliary Coulomb fitting basis             ... AVAILABLE
   # of basis functions in Aux-J            ...    622
   # of shells in Aux-J                     ...    210
   Maximum angular momentum in Aux-J        ...      4
Auxiliary J/K fitting basis                 ... NOT available
Auxiliary Correlation fitting basis         ... NOT available
Auxiliary 'external' fitting basis          ... NOT available

Checking pre-screening integrals            ... done (  0.1 sec) Dimension = 308
Save PGC pre-screening integrals            ... done (  0.1 sec) Dimension = 308
Calculate PGC overlap integrals             ... done (  0.2 sec) Dimension = 248
Calculating pre-screening integrals (ORCA)  ... done (  0.2 sec) Dimension = 248
Check shell pair data                       ... done (  0.0 sec)
Shell pair information
Shell pair cut-off parameter TPreSel        ...   2.5e-12
Total number of shell pairs                 ...     47586
Shell pairs after pre-screening             ...     39604
Total number of primitive shell pairs       ...     62194
Primitive shell pairs kept                  ...     47759
          la=0 lb=0:   8994 shell pairs
          la=1 lb=0:  10214 shell pairs
          la=1 lb=1:   2692 shell pairs
          la=2 lb=0:   7156 shell pairs
          la=2 lb=1:   3733 shell pairs
          la=2 lb=2:   1343 shell pairs
          la=3 lb=0:   2808 shell pairs
          la=3 lb=1:   1434 shell pairs
          la=3 lb=2:   1023 shell pairs
          la=3 lb=3:    207 shell pairs

Calculating one electron integrals          ... done (  0.1 sec)
Calculating RI/J V-Matrix + Cholesky decomp.... done (  0.1 sec)
Calculating Nuclear repulsion               ... done (  0.0 sec) ENN=    482.981895394588 Eh

Diagonalization of the overlap matrix:
Smallest eigenvalue                        ... 3.432e-07
Time for diagonalization                   ...    0.172 sec
Threshold for overlap eigenvalues          ... 1.000e-07
Number of eigenvalues below threshold      ... 0

IMPORTANT:
Smallest eigenvalue of S below the DiffSThresh (1.000e-06) while
Thresh>1e-12 and/or TCut>1e-13! In order to avoid SCF convergence issues,
Thresh will be set to at least 1e-12 and TCut to at least 1e-13.
This can be turned off by adding %SCF DiffSThresh -1 END to the input.

Time for construction of square roots      ...    0.120 sec
Total time needed                          ...    0.348 sec

-------------------
DFT GRID GENERATION
-------------------

General Integration Accuracy     IntAcc      ... 4.388
Radial Grid Type                 RadialGrid  ... OptM3 with GC (2021)
Angular Grid (max. ang.)         AngularGrid ... 4 (Lebedev-302)
Angular grid pruning method      GridPruning ... 4 (adaptive)
Weight generation scheme         WeightScheme... mBecke (2022)
Basis function cutoff            BFCut       ... 1.0000e-11
Integration weight cutoff        WCut        ... 1.0000e-14
Partially contracted basis set               ... off
Rotationally invariant grid construction     ... off
Angular grids for H and He will be reduced by one unit
Diffuse basis detected: some atoms will have their outermost
                        angular grid increased by 1.

Total number of grid points                  ...   103108
Total number of batches                      ...     1624
Average number of points per batch           ...       63
Average number of grid points per atom       ...     4687

---------------------
SHARK GRID GENERATION
---------------------

General Integration Accuracy     IntAcc      ... 4.388
Radial Grid Type                 RadialGrid  ... OptM3 with GC (2021)
Angular Grid (max. ang.)         AngularGrid ... 4 (Lebedev-302)
Angular grid pruning method      GridPruning ... 4 (adaptive)
Weight generation scheme         WeightScheme... mBecke (2022)
Basis function cutoff            BFCut       ... 1.0000e-11
Integration weight cutoff        WCut        ... 1.0000e-14
Partially contracted basis set               ... off
Rotationally invariant grid construction     ... off
Angular grids for H and He will be reduced by one unit
Diffuse basis detected: some atoms will have their outermost
                        angular grid increased by 1.
Steep s-basis detected: some atoms will have their radial
                        grid points doubled.

Total number of grid points                  ...   165777
Total number of batches                      ...     2602
Average number of points per batch           ...       63
Average number of grid points per atom       ...     7535
Initializing property integral containers    ... done (  0.1 sec)

SHARK setup successfully completed in   5.6 seconds

Maximum memory used throughout the entire STARTUP-calculation: 78.6 MB


           ************************************************************
           *        Program running with 12 parallel MPI-processes    *
           *              working on a common directory               *
           ************************************************************
-------------------------------------------------------------------------------
                                 ORCA GUESS
                   Start orbitals & Density for SCF / CASSCF
-------------------------------------------------------------------------------

------------
SCF SETTINGS
------------
Hamiltonian:
 Density Functional     Method          .... DFT(GTOs)
  Functional kind                       .... Exchange
  Functional name                       .... Re-regularized SCAN exchange by Furness et al
  Functional family                     .... MGGA
  Functional refs                              
    [ 0] J. W. Furness, A. D. Kaplan, J. Ning, J. P. Perdew, and J. Sun.,  J. Phys. Chem. Lett. 11, 8208-8215 (2020), doi: 10.1021/acs.jpclett.0c02405
    [ 1] J. W. Furness, A. D. Kaplan, J. Ning, J. P. Perdew, and J. Sun.,  J. Phys. Chem. Lett. 11, 9248-9248 (2020), doi: 10.1021/acs.jpclett.0c03077
  Functional external parameters        .... 6
    Parameter  0 _c1        =  6.670000e-01 : c1 parameter        
    Parameter  1 _c2        =  8.000000e-01 : c2 parameter        
    Parameter  2 _d         =  1.240000e+00 : d parameter         
    Parameter  3 _k1        =  6.500000e-02 : k1 parameter        
    Parameter  4 _eta       =  1.000000e-03 : eta parameter       
    Parameter  5 _dp2       =  3.610000e-01 : dp2 parameter       
  Functional kind                       .... Correlation
  Functional name                       .... Re-regularized SCAN correlation by Furness et al
  Functional family                     .... MGGA
  Functional refs                              
    [ 0] J. W. Furness, A. D. Kaplan, J. Ning, J. P. Perdew, and J. Sun.,  J. Phys. Chem. Lett. 11, 8208-8215 (2020), doi: 10.1021/acs.jpclett.0c02405
    [ 1] J. W. Furness, A. D. Kaplan, J. Ning, J. P. Perdew, and J. Sun.,  J. Phys. Chem. Lett. 11, 9248-9248 (2020), doi: 10.1021/acs.jpclett.0c03077
  Functional external parameters        .... 1
    Parameter  0 _eta       =  1.000000e-03 : Regularization parameter
 Gradients option       PostSCFGGA      .... off
   NL short-range parameter             .... 12.300000
 RI-approximation to the Coulomb term is turned on
   Number of AuxJ basis functions       .... 622


General Settings:
 Integral files         IntName         .... cs_rporg_009_ox_freq_06
 Hartree-Fock type      HFTyp           .... UHF
 Total Charge           Charge          ....    1
 Multiplicity           Mult            ....    2
 Number of Electrons    NEL             ....   71
 Basis Dimension        Dim             ....  736
 Nuclear Repulsion      ENuc            ....    482.9818953946 Eh

Convergence Acceleration:
 AO-DIIS                CNVDIIS         .... on
   Start iteration      DIISMaxIt       ....     0
   Startup error        DIISStart       ....  0.200000
   # of expansion vecs  DIISMaxEq       ....     5
   Bias factor          DIISBfac        ....   1.050
   Max. coefficient     DIISMaxC        ....  10.000
 MO-DIIS                CNVKDIIS        .... off
 Trust-Rad. Augm. Hess. CNVTRAH         .... auto
   Auto Start mean grad. ratio tolernc. ....  1.125000
   Auto Start start iteration           ....    50
   Auto Start num. interpolation iter.  ....    10
   Max. Number of Micro iterations      ....    24
   Max. Number of Macro iterations      .... Maxiter - #DIIS iter
   Number of Davidson start vectors     ....     2
   Converg. threshold    (grad. norm)   ....   1.000e-05
   Grad. Scal. Fac. for Micro threshold ....   0.100
   Minimum threshold for Micro iter.    ....   1.000e-02
   NR start threshold (gradient norm)   ....   1.000e-04
   Initial trust radius                 ....   0.400
   Minimum AH scaling param. (alpha)    ....   1.000
   Maximum AH scaling param. (alpha)    .... 1000.000
   Quad. conv. algorithm                .... NR
   White noise on init. David. guess    .... on
   Maximum white noise                  ....   0.010
   Pseudo random numbers                .... off
   Inactive MOs                         .... canonical
   Orbital update algorithm             .... Taylor
   Preconditioner                       .... Diag
   Full preconditioner red. dimension   ....   250
 SOSCF                  CNVSOSCF        .... on
   Start iteration      SOSCFMaxIt      ....   150
   Startup grad/error   SOSCFStart      ....  0.001000
   Hessian update       SOSCFHessUp     .... L-BFGS
 Level Shifting         CNVShift        .... on
   Level shift para.    LevelShift      ....    0.2500
   Turn off err/grad.   ShiftErr        ....    0.0000
 Zerner damping         CNVZerner       .... off
 Static damping         CNVDamp         .... on
   Fraction old density DampFac         ....    0.8500
   Max. Damping (<1)    DampMax         ....    0.9800
   Min. Damping (>=0)   DampMin         ....    0.0000
   Turn off err/grad.   DampErr         ....    0.0300

SCF Procedure:
 Maximum # iterations   MaxIter         ....  1500
 SCF integral mode      SCFMode         .... Direct
   Integral package                     .... SHARK and LIBINT hybrid scheme
 Reset frequency        DirectResetFreq ....    20
 Integral Threshold     Thresh          ....  1.000e-12 Eh
 Primitive CutOff       TCut            ....  1.000e-13 Eh

Convergence Tolerance:
 Convergence Check Mode ConvCheckMode   .... Total+1el-Energy
 Convergence forced     ConvForced      .... 0
 Energy Change          TolE            ....  1.000e-08 Eh
 1-El. energy change                    ....  1.000e-05 Eh
 Orbital Gradient       TolG            ....  1.000e-05
 Orbital Rotation angle TolX            ....  1.000e-05
 DIIS Error             TolErr          ....  5.000e-07

------------------------------
INITIAL GUESS: MODEL POTENTIAL
------------------------------
Loading Hartree-Fock densities                     ... done
Calculating cut-offs                               ... done
Initializing the effective Hamiltonian             ... done
Setting up the integral package (SHARK)            ... done
Starting the Coulomb interaction                   ... done (   0.5 sec)
Making the grid                                    ... done (   0.3 sec)
Mapping shells                                     ... done
Starting the XC term evaluation                    ... done (   0.4 sec)
  promolecular density results
     # of electrons  =     71.999403555
     EX              =    -54.671357098
     EC              =     -2.360018601
     EX+EC           =    -57.031375699
Transforming the Hamiltonian                       ... done (   0.1 sec)
Diagonalizing the Hamiltonian                      ... done (   0.2 sec)
Back transforming the eigenvectors                 ... done (   0.2 sec)
Now organizing SCF variables                       ... done
                      ------------------
                      INITIAL GUESS DONE (   2.5 sec)
                      ------------------
             **** ENERGY FILE WAS UPDATED (cs_rporg_009_ox_freq_06.en.tmp) ****
Finished Guess after   4.1 sec
Maximum memory used throughout the entire GUESS-calculation: 60.4 MB


           ************************************************************
           *        Program running with 12 parallel MPI-processes    *
           *              working on a common directory               *
           ************************************************************

-------------------------------------------------------------------------------------------
                                      ORCA LEAN-SCF
                              memory conserving SCF solver
-------------------------------------------------------------------------------------------

--------------------
CPCM SOLVATION MODEL
--------------------
CPCM parameters:
  Epsilon                                         ...      35.6880
  Refrac                                          ...       1.3442
  Rsolv                                           ...       2.1900
  Surface type                                    ...    GEPOL SES
  Discretization scheme                           ... Constant num. charges
  Epsilon function type                           ...         CPCM
Solvent:                                          ... ACETONITRILE
SMD-CDS solvent descriptors:
  Soln                                            ...       1.3442
  Soln25                                          ...       1.3416
  Sola                                            ...       0.0700
  Solb                                            ...       0.3200
  Solg                                            ...      41.2500
  Solc                                            ...       0.0000
  Solh                                            ...       0.0000
Radii:
  Scheme                                          ... Element-dependent radii
  Radius for C  used is    3.4960 Bohr (=   1.8500 Ang.)
  Radius for H  used is    2.2677 Bohr (=   1.2000 Ang.)
Calculating surface                               ...        done! (  0.1s)
Cavity surface points                             ...          842
Cavity Volume                                     ...    1106.0010
Cavity Surface-area                               ...     631.9668
Calculating surface distance matrix               ...        done! (  0.0s)
Performing Cholesky decomposition & store         ...        done! (  0.0s)
Overall time for CPCM initialization              ...                 0.1s

----------------------------------------D-I-I-S--------------------------------------------
Iteration    Energy (Eh)           Delta-E    RMSDP     MaxDP     DIISErr   Damp  Time(sec)
-------------------------------------------------------------------------------------------
               ***  Starting incremental Fock matrix formation  ***
    1    -387.8079387254525159     0.00e+00  7.59e-04  7.71e-02  9.21e-02  0.850  13.3
Warning: op=1 Small HOMO/LUMO gap (   0.034) - skipping pre-diagonalization
         Will do a full diagonalization
    2    -387.8501929370225412    -4.23e-02  6.91e-04  6.71e-02  6.97e-02  0.850  13.9
                               ***Turning on AO-DIIS***
    3    -387.8794374760749974    -2.92e-02  5.14e-04  5.21e-02  4.80e-02  0.850  12.3
    4    -387.8990418145522767    -1.96e-02  4.20e-04  4.20e-02  3.80e-02  0.850  12.9
    5    -387.9134236208174684    -1.44e-02  3.53e-04  3.45e-02  3.16e-02  0.850  11.9
    6    -387.9247449506883072    -1.13e-02  2.98e-04  2.83e-02  2.68e-02  0.850  12.1
    7    -387.9339888927882498    -9.24e-03  1.68e-03  1.56e-01  2.26e-02  0.000  13.0
    8    -387.9807998900514008    -4.68e-02  7.00e-05  6.64e-03  2.36e-03  0.000  12.0
    9    -387.9809287371934374    -1.29e-04  2.91e-05  3.24e-03  1.82e-03  0.000  11.1
   10    -387.9809858143565293    -5.71e-05  3.18e-05  5.09e-03  1.53e-03  0.000  11.3
   11    -387.9810314773066580    -4.57e-05  1.22e-05  1.49e-03  1.00e-03  0.000  10.8
                              *** Initializing SOSCF ***
---------------------------------------S-O-S-C-F--------------------------------------
Iteration    Energy (Eh)           Delta-E    RMSDP     MaxDP     MaxGrad    Time(sec)
--------------------------------------------------------------------------------------
   12    -387.9810514044498291    -1.99e-05  7.76e-06  8.17e-04  7.14e-04    12.8
               *** Restarting incremental Fock matrix formation ***
   13    -387.9810606232505847    -9.22e-06  6.01e-06  4.70e-04  4.54e-04    12.0
   14    -387.9810652252103296    -4.60e-06  1.01e-05  1.30e-03  1.84e-04     9.9
   15    -387.9810667183350574    -1.49e-06  6.89e-06  9.91e-04  1.91e-04     9.9
   16    -387.9810678947664542    -1.18e-06  2.80e-06  3.76e-04  8.73e-05     9.9
   17    -387.9810678657913172     2.90e-08  1.32e-06  9.95e-05  6.02e-05     9.7
   18    -387.9810680088390313    -1.43e-07  1.45e-06  9.99e-05  7.17e-06    10.3
   19    -387.9810680415745878    -3.27e-08  6.27e-07  4.92e-05  7.50e-06    10.2
   20    -387.9810680216632477     1.99e-08  1.42e-06  8.40e-05  2.34e-06     9.5
                  *** Gradient check signals convergence ***

               *****************************************************
               *                     SUCCESS                       *
               *           SCF CONVERGED AFTER  20 CYCLES          *
               *****************************************************


SMD CDS free energy correction energy :                -1.79092     Kcal/mol
Total Energy after SMD CDS correction =              -387.983922034 Eh
             **** ENERGY FILE WAS UPDATED (cs_rporg_009_ox_freq_06.en.tmp) ****

----------------
TOTAL SCF ENERGY
----------------

Total Energy       :       -387.98392203449578 Eh          -10557.57926 eV

Components:
Nuclear Repulsion  :        482.98189539458787 Eh           13142.60553 eV
Electronic Energy  :       -870.88317682923832 Eh          -23697.93602 eV
One Electron Energy:      -1466.40551854417163 Eh          -39902.92278 eV
Two Electron Energy:        595.52234171493330 Eh           16204.98676 eV
CPCM Dielectric    :         -0.07978658701282 Eh              -2.17110 eV
SMD CDS (Gcds)     :         -0.00285401283250 Eh              -0.07766 eV

Virial components:
Potential Energy   :       -773.83464607047347 Eh          -21057.11124 eV
Kinetic Energy     :        385.85072403597769 Eh           10499.53199 eV
Virial Ratio       :          2.00552855771840

DFT components:
N(Alpha)           :       36.000091743344 electrons
N(Beta)            :       35.000100198211 electrons
N(Total)           :       71.000191941555 electrons
E(X)               :      -56.045075984493 Eh       
E(C)               :       -2.239269053240 Eh       
E(XC)              :      -58.284345037732 Eh       

CPCM Solvation Model Properties:
Surface-charge          :         -1.04055972698632
Corrected charge        :         -1.00000000000000
Outlying charge corr.   :          0.00011481483863 Eh               0.00312 eV
Free-energy (cav+disp)  :         -0.00285401283250 Eh              -0.07766 eV

---------------
SCF CONVERGENCE
---------------

  Last Energy change         ...   -1.9911e-08  Tolerance :   1.0000e-08
  Last MAX-Density change    ...    8.3992e-05  Tolerance :   1.0000e-07
  Last RMS-Density change    ...    1.4231e-06  Tolerance :   5.0000e-09
  Last DIIS Error            ...    7.1439e-04  Tolerance :   5.0000e-07
  Last Orbital Gradient      ...    2.3407e-06  Tolerance :   1.0000e-05
  Last Orbital Rotation      ...    1.0071e-05  Tolerance :   1.0000e-05


----------------------
UHF SPIN CONTAMINATION
----------------------

Warning: in a DFT calculation there is little theoretical justification to 
         calculate <S**2> as in Hartree-Fock theory. We will do it anyways
         but you should keep in mind that the values have only limited relevance

Expectation value of <S**2>     :     0.781964
Ideal value S*(S+1) for S=0.5   :     0.750000
Deviation                       :     0.031964

----------------
ORBITAL ENERGIES
----------------
                 SPIN UP ORBITALS
  NO   OCC          E(Eh)            E(eV) 
   0   1.0000     -10.109577      -275.0956 
   1   1.0000     -10.104639      -274.9612 
   2   1.0000     -10.089630      -274.5528 
   3   1.0000     -10.088139      -274.5122 
   4   1.0000     -10.086980      -274.4807 
   5   1.0000     -10.083593      -274.3885 
   6   1.0000     -10.071141      -274.0497 
   7   1.0000     -10.068813      -273.9863 
   8   1.0000     -10.044765      -273.3319 
   9   1.0000     -10.039469      -273.1878 
  10   1.0000      -0.876107       -23.8401 
  11   1.0000      -0.816604       -22.2209 
  12   1.0000      -0.770638       -20.9701 
  13   1.0000      -0.755695       -20.5635 
  14   1.0000      -0.698258       -19.0006 
  15   1.0000      -0.668285       -18.1850 
  16   1.0000      -0.611159       -16.6305 
  17   1.0000      -0.599191       -16.3048 
  18   1.0000      -0.544858       -14.8263 
  19   1.0000      -0.502215       -13.6660 
  20   1.0000      -0.484853       -13.1935 
  21   1.0000      -0.451985       -12.2991 
  22   1.0000      -0.433420       -11.7940 
  23   1.0000      -0.428203       -11.6520 
  24   1.0000      -0.416310       -11.3284 
  25   1.0000      -0.409947       -11.1552 
  26   1.0000      -0.385681       -10.4949 
  27   1.0000      -0.380375       -10.3505 
  28   1.0000      -0.376304       -10.2398 
  29   1.0000      -0.372606       -10.1391 
  30   1.0000      -0.361088        -9.8257 
  31   1.0000      -0.339785        -9.2460 
  32   1.0000      -0.329897        -8.9770 
  33   1.0000      -0.316494        -8.6122 
  34   1.0000      -0.268666        -7.3108 
  35   1.0000      -0.253609        -6.9011 
  36   0.0000      -0.120314        -3.2739 
  37   0.0000      -0.062584        -1.7030 
  38   0.0000      -0.022616        -0.6154 
  39   0.0000       0.003911         0.1064 
  40   0.0000       0.015028         0.4089 
  41   0.0000       0.018861         0.5132 
  42   0.0000       0.033256         0.9049 
  43   0.0000       0.033988         0.9249 
  44   0.0000       0.034356         0.9349 
  45   0.0000       0.041489         1.1290 
  46   0.0000       0.050243         1.3672 

                 SPIN DOWN ORBITALS
  NO   OCC          E(Eh)            E(eV) 
   0   1.0000     -10.104171      -274.9485 
   1   1.0000     -10.101040      -274.8633 
   2   1.0000     -10.088277      -274.5160 
   3   1.0000     -10.087534      -274.4958 
   4   1.0000     -10.081796      -274.3396 
   5   1.0000     -10.081243      -274.3246 
   6   1.0000     -10.071347      -274.0553 
   7   1.0000     -10.069765      -274.0122 
   8   1.0000     -10.044847      -273.3342 
   9   1.0000     -10.039470      -273.1879 
  10   1.0000      -0.868837       -23.6423 
  11   1.0000      -0.807928       -21.9848 
  12   1.0000      -0.769178       -20.9304 
  13   1.0000      -0.745133       -20.2761 
  14   1.0000      -0.693664       -18.8756 
  15   1.0000      -0.662263       -18.0211 
  16   1.0000      -0.605784       -16.4842 
  17   1.0000      -0.595196       -16.1961 
  18   1.0000      -0.539985       -14.6937 
  19   1.0000      -0.501170       -13.6375 
  20   1.0000      -0.482716       -13.1354 
  21   1.0000      -0.448889       -12.2149 
  22   1.0000      -0.425911       -11.5896 
  23   1.0000      -0.422639       -11.5006 
  24   1.0000      -0.414532       -11.2800 
  25   1.0000      -0.409319       -11.1381 
  26   1.0000      -0.381020       -10.3681 
  27   1.0000      -0.374659       -10.1950 
  28   1.0000      -0.372260       -10.1297 
  29   1.0000      -0.366431        -9.9711 
  30   1.0000      -0.359621        -9.7858 
  31   1.0000      -0.339106        -9.2275 
  32   1.0000      -0.328045        -8.9265 
  33   1.0000      -0.297175        -8.0865 
  34   1.0000      -0.263658        -7.1745 
  35   0.0000      -0.210467        -5.7271 
  36   0.0000      -0.086716        -2.3597 
  37   0.0000      -0.054369        -1.4795 
  38   0.0000      -0.000461        -0.0126 
  39   0.0000       0.004972         0.1353 
  40   0.0000       0.017015         0.4630 
  41   0.0000       0.019145         0.5210 
  42   0.0000       0.034672         0.9435 
  43   0.0000       0.035175         0.9572 
  44   0.0000       0.035442         0.9644 
  45   0.0000       0.042522         1.1571 
*Only the first 10 virtual orbitals were printed.

                    ********************************
                    * MULLIKEN POPULATION ANALYSIS *
                    ********************************

--------------------------------------------
MULLIKEN ATOMIC CHARGES AND SPIN POPULATIONS
--------------------------------------------
   0 C :   -0.113891    0.129254
   1 C :    2.228084    0.272749
   2 C :   -1.040057   -0.027334
   3 C :    0.778047    0.043498
   4 C :    0.969770    0.346156
   5 C :   -1.184848   -0.098545
   6 H :   -0.035312   -0.005131
   7 C :   -0.643518   -0.053969
   8 H :    0.062630   -0.008360
   9 H :    0.224796    0.032669
  10 H :    0.225226    0.032891
  11 C :   -0.650182   -0.013645
  12 H :    0.212904    0.006977
  13 H :    0.212433    0.006983
  14 H :    0.079592   -0.000128
  15 H :   -0.419502    0.002382
  16 C :    0.092724   -0.054110
  17 C :   -0.871399    0.346770
  18 H :    0.211979   -0.009432
  19 H :    0.323984    0.062230
  20 H :    0.116968   -0.008414
  21 H :    0.219571   -0.003490
Sum of atomic charges         :    1.0000000
Sum of atomic spin populations:    1.0000000

-----------------------------------------------------
MULLIKEN REDUCED ORBITAL CHARGES AND SPIN POPULATIONS
-----------------------------------------------------
CHARGE
  0 C s       :     3.931457  s :     3.931457
      pz      :     0.873699  p :     2.331441
      px      :     0.593222
      py      :     0.864521
      dz2     :    -0.023866  d :    -0.129950
      dxz     :     0.026442
      dyz     :    -0.020105
      dx2y2   :    -0.127747
      dxy     :     0.015326
      f0      :     0.001011  f :    -0.019058
      f+1     :     0.000944
      f-1     :    -0.000215
      f+2     :    -0.000174
      f-2     :     0.000410
      f+3     :    -0.017774
      f-3     :    -0.003259

  1 C s       :     2.894715  s :     2.894715
      pz      :     0.882838  p :     1.364838
      px      :     0.150948
      py      :     0.331051
      dz2     :    -0.011991  d :    -0.390162
      dxz     :    -0.043446
      dyz     :    -0.009399
      dx2y2   :     0.008887
      dxy     :    -0.334214
      f0      :     0.002053  f :    -0.097475
      f+1     :    -0.003861
      f-1     :    -0.001472
      f+2     :     0.000044
      f-2     :    -0.000896
      f+3     :    -0.066655
      f-3     :    -0.026688

  2 C s       :     4.472168  s :     4.472168
      pz      :     0.958123  p :     2.472634
      px      :     0.746181
      py      :     0.768331
      dz2     :    -0.007317  d :     0.120551
      dxz     :    -0.001679
      dyz     :     0.009390
      dx2y2   :     0.071055
      dxy     :     0.049102
      f0      :     0.000774  f :    -0.025296
      f+1     :    -0.001181
      f-1     :    -0.000471
      f+2     :    -0.000518
      f-2     :    -0.000432
      f+3     :    -0.014859
      f-3     :    -0.008608

  3 C s       :     3.118522  s :     3.118522
      pz      :     0.870966  p :     2.050994
      px      :     0.238805
      py      :     0.941223
      dz2     :     0.002075  d :     0.145953
      dxz     :    -0.018869
      dyz     :    -0.001549
      dx2y2   :     0.115968
      dxy     :     0.048329
      f0      :    -0.000638  f :    -0.093516
      f+1     :    -0.001111
      f-1     :    -0.000573
      f+2     :    -0.001963
      f-2     :    -0.005488
      f+3     :    -0.045732
      f-3     :    -0.038011

  4 C s       :     3.318849  s :     3.318849
      pz      :     0.778388  p :     1.930104
      px      :     0.275006
      py      :     0.876710
      dz2     :    -0.032775  d :    -0.145366
      dxz     :    -0.011469
      dyz     :     0.002553
      dx2y2   :    -0.062807
      dxy     :    -0.040868
      f0      :    -0.000287  f :    -0.073358
      f+1     :    -0.002821
      f-1     :     0.000407
      f+2     :    -0.003372
      f-2     :    -0.002581
      f+3     :    -0.033554
      f-3     :    -0.031149

  5 C s       :     4.225005  s :     4.225005
      pz      :     0.961781  p :     2.692793
      px      :     0.851338
      py      :     0.879674
      dz2     :     0.015167  d :     0.283656
      dxz     :    -0.001941
      dyz     :     0.028818
      dx2y2   :     0.149587
      dxy     :     0.092025
      f0      :     0.000801  f :    -0.016605
      f+1     :    -0.000610
      f-1     :    -0.000101
      f+2     :    -0.000021
      f-2     :    -0.000904
      f+3     :    -0.004500
      f-3     :    -0.011270

  6 H s       :     0.959962  s :     0.959962
      pz      :     0.028867  p :     0.066113
      px      :     0.020623
      py      :     0.016623
      dz2     :    -0.000309  d :     0.009237
      dxz     :     0.000272
      dyz     :     0.005429
      dx2y2   :     0.002238
      dxy     :     0.001607

  7 C s       :     3.601064  s :     3.601064
      pz      :     1.092652  p :     3.012030
      px      :     0.866248
      py      :     1.053130
      dz2     :     0.012009  d :     0.019349
      dxz     :     0.003794
      dyz     :     0.012746
      dx2y2   :    -0.006623
      dxy     :    -0.002577
      f0      :     0.002192  f :     0.011074
      f+1     :    -0.000574
      f-1     :     0.000997
      f+2     :     0.001154
      f-2     :     0.001262
      f+3     :     0.003279
      f-3     :     0.002765

  8 H s       :     0.885835  s :     0.885835
      pz      :     0.014318  p :     0.041215
      px      :     0.009403
      py      :     0.017494
      dz2     :     0.000475  d :     0.010320
      dxz     :     0.000556
      dyz     :     0.003847
      dx2y2   :    -0.000050
      dxy     :     0.005492

  9 H s       :     0.726101  s :     0.726101
      pz      :     0.009028  p :     0.041444
      px      :     0.027703
      py      :     0.004713
      dz2     :     0.002768  d :     0.007660
      dxz     :     0.001298
      dyz     :     0.000721
      dx2y2   :     0.002896
      dxy     :    -0.000023

 10 H s       :     0.725508  s :     0.725508
      pz      :     0.009077  p :     0.041603
      px      :     0.027614
      py      :     0.004911
      dz2     :     0.002748  d :     0.007664
      dxz     :     0.001327
      dyz     :     0.000752
      dx2y2   :     0.002868
      dxy     :    -0.000031

 11 C s       :     3.583688  s :     3.583688
      pz      :     1.100746  p :     3.044189
      px      :     0.979805
      py      :     0.963638
      dz2     :     0.017334  d :     0.011632
      dxz     :     0.021737
      dyz     :    -0.006569
      dx2y2   :    -0.024350
      dxy     :     0.003480
      f0      :     0.002916  f :     0.010672
      f+1     :     0.000650
      f-1     :    -0.000623
      f+2     :     0.000406
      f-2     :     0.002132
      f+3     :     0.002147
      f-3     :     0.003044

 12 H s       :     0.740601  s :     0.740601
      pz      :     0.007999  p :     0.038846
      px      :     0.020984
      py      :     0.009864
      dz2     :     0.002531  d :     0.007648
      dxz     :     0.000542
      dyz     :     0.001632
      dx2y2   :     0.000793
      dxy     :     0.002150

 13 H s       :     0.741187  s :     0.741187
      pz      :     0.008014  p :     0.038740
      px      :     0.020997
      py      :     0.009729
      dz2     :     0.002556  d :     0.007639
      dxz     :     0.000531
      dyz     :     0.001600
      dx2y2   :     0.000797
      dxy     :     0.002155

 14 H s       :     0.871384  s :     0.871384
      pz      :     0.014677  p :     0.039065
      px      :     0.009449
      py      :     0.014939
      dz2     :     0.000398  d :     0.009960
      dxz     :     0.001557
      dyz     :     0.002795
      dx2y2   :     0.003019
      dxy     :     0.002191

 15 H s       :     1.340360  s :     1.340360
      pz      :     0.026947  p :     0.071530
      px      :    -0.017922
      py      :     0.062505
      dz2     :    -0.000282  d :     0.007612
      dxz     :     0.000224
      dyz     :     0.005292
      dx2y2   :     0.001610
      dxy     :     0.000767

 16 C s       :     3.740067  s :     3.740067
      pz      :     0.884579  p :     2.318952
      px      :     0.575211
      py      :     0.859161
      dz2     :     0.014358  d :    -0.137339
      dxz     :     0.005796
      dyz     :     0.011043
      dx2y2   :    -0.062629
      dxy     :    -0.105908
      f0      :     0.000494  f :    -0.014404
      f+1     :    -0.001509
      f-1     :    -0.000948
      f+2     :     0.001141
      f-2     :     0.000820
      f+3     :    -0.009917
      f-3     :    -0.004484

 17 C s       :     4.018692  s :     4.018692
      pz      :     0.768504  p :     2.911782
      px      :     1.062717
      py      :     1.080561
      dz2     :     0.002015  d :    -0.070076
      dxz     :     0.017520
      dyz     :     0.010308
      dx2y2   :    -0.073711
      dxy     :    -0.026208
      f0      :     0.000658  f :     0.011001
      f+1     :     0.001899
      f-1     :     0.000463
      f+2     :     0.000421
      f-2     :     0.000918
      f+3     :     0.004845
      f-3     :     0.001797

 18 H s       :     0.744034  s :     0.744034
      pz      :     0.023393  p :     0.038817
      px      :     0.007156
      py      :     0.008268
      dz2     :    -0.000535  d :     0.005171
      dxz     :     0.000164
      dyz     :     0.004272
      dx2y2   :    -0.001137
      dxy     :     0.002407

 19 H s       :     0.652315  s :     0.652315
      pz      :     0.016650  p :     0.014446
      px      :    -0.013042
      py      :     0.010839
      dz2     :     0.000376  d :     0.009254
      dxz     :     0.003443
      dyz     :     0.000614
      dx2y2   :     0.002357
      dxy     :     0.002465

 20 H s       :     0.913338  s :     0.913338
      pz      :     0.021716  p :    -0.040708
      px      :    -0.001593
      py      :    -0.060831
      dz2     :    -0.000264  d :     0.010402
      dxz     :     0.000408
      dyz     :     0.005115
      dx2y2   :    -0.000158
      dxy     :     0.005300

 21 H s       :     0.784715  s :     0.784715
      pz      :     0.012709  p :    -0.009284
      px      :    -0.062994
      py      :     0.041001
      dz2     :    -0.000549  d :     0.004998
      dxz     :     0.002579
      dyz     :     0.002959
      dx2y2   :    -0.001865
      dxy     :     0.001874


SPIN
  0 C s       :     0.017903  s :     0.017903
      pz      :     0.134479  p :     0.118325
      px      :    -0.017788
      py      :     0.001634
      dz2     :     0.000182  d :    -0.004895
      dxz     :    -0.001059
      dyz     :     0.005680
      dx2y2   :     0.001873
      dxy     :    -0.011571
      f0      :    -0.000437  f :    -0.002079
      f+1     :    -0.000159
      f-1     :    -0.000117
      f+2     :    -0.000464
      f-2     :    -0.000287
      f+3     :    -0.000105
      f-3     :    -0.000511

  1 C s       :     0.029009  s :     0.029009
      pz      :     0.179976  p :     0.235725
      px      :     0.032281
      py      :     0.023468
      dz2     :    -0.000540  d :     0.010419
      dxz     :    -0.001972
      dyz     :     0.003958
      dx2y2   :    -0.003714
      dxy     :     0.012688
      f0      :    -0.000508  f :    -0.002404
      f+1     :    -0.000047
      f-1     :    -0.000212
      f+2     :    -0.000128
      f-2     :    -0.000286
      f+3     :    -0.000174
      f-3     :    -0.001049

  2 C s       :    -0.002183  s :    -0.002183
      pz      :    -0.010353  p :    -0.025398
      px      :    -0.019849
      py      :     0.004805
      dz2     :     0.000903  d :     0.001928
      dxz     :     0.000026
      dyz     :     0.000993
      dx2y2   :    -0.000142
      dxy     :     0.000148
      f0      :    -0.000194  f :    -0.001682
      f+1     :    -0.000011
      f-1     :     0.000136
      f+2     :    -0.000294
      f-2     :    -0.000569
      f+3     :    -0.000349
      f-3     :    -0.000402

  3 C s       :     0.031999  s :     0.031999
      pz      :     0.031179  p :     0.024164
      px      :    -0.021644
      py      :     0.014629
      dz2     :    -0.000135  d :    -0.009233
      dxz     :    -0.003253
      dyz     :    -0.000356
      dx2y2   :    -0.008697
      dxy     :     0.003208
      f0      :    -0.000282  f :    -0.003432
      f+1     :    -0.000095
      f-1     :     0.000084
      f+2     :    -0.000978
      f-2     :    -0.000285
      f+3     :    -0.000470
      f-3     :    -0.001406

  4 C s       :     0.008324  s :     0.008324
      pz      :     0.278346  p :     0.332927
      px      :     0.036782
      py      :     0.017799
      dz2     :    -0.000915  d :     0.008107
      dxz     :     0.003188
      dyz     :     0.001964
      dx2y2   :     0.001782
      dxy     :     0.002088
      f0      :    -0.000438  f :    -0.003203
      f+1     :    -0.000291
      f-1     :    -0.000349
      f+2     :    -0.000097
      f-2     :    -0.000015
      f+3     :    -0.001572
      f-3     :    -0.000442

  5 C s       :    -0.017011  s :    -0.017011
      pz      :    -0.056716  p :    -0.089214
      px      :    -0.029473
      py      :    -0.003025
      dz2     :    -0.000511  d :     0.009682
      dxz     :     0.008490
      dyz     :     0.000010
      dx2y2   :     0.003633
      dxy     :    -0.001940
      f0      :    -0.000047  f :    -0.002003
      f+1     :    -0.000002
      f-1     :     0.000248
      f+2     :    -0.000144
      f-2     :    -0.000218
      f+3     :    -0.000905
      f-3     :    -0.000934

  6 H s       :    -0.002791  s :    -0.002791
      pz      :    -0.003261  p :    -0.002208
      px      :    -0.000714
      py      :     0.001766
      dz2     :    -0.000000  d :    -0.000132
      dxz     :    -0.000155
      dyz     :    -0.000220
      dx2y2   :     0.000068
      dxy     :     0.000176

  7 C s       :    -0.048968  s :    -0.048968
      pz      :     0.000547  p :    -0.014371
      px      :    -0.008061
      py      :    -0.006856
      dz2     :     0.000904  d :     0.008061
      dxz     :     0.010861
      dyz     :    -0.001132
      dx2y2   :    -0.001550
      dxy     :    -0.001021
      f0      :     0.000493  f :     0.001308
      f+1     :     0.000205
      f-1     :     0.000099
      f+2     :    -0.000080
      f-2     :     0.000821
      f+3     :    -0.000166
      f-3     :    -0.000063

  8 H s       :    -0.006427  s :    -0.006427
      pz      :    -0.000859  p :    -0.002010
      px      :    -0.000071
      py      :    -0.001079
      dz2     :     0.000083  d :     0.000077
      dxz     :     0.000086
      dyz     :     0.000004
      dx2y2   :    -0.000019
      dxy     :    -0.000077

  9 H s       :     0.030597  s :     0.030597
      pz      :     0.000279  p :     0.001332
      px      :     0.001097
      py      :    -0.000044
      dz2     :     0.000208  d :     0.000740
      dxz     :     0.000112
      dyz     :     0.000033
      dx2y2   :     0.000399
      dxy     :    -0.000012

 10 H s       :     0.030808  s :     0.030808
      pz      :     0.000277  p :     0.001345
      px      :     0.001099
      py      :    -0.000031
      dz2     :     0.000207  d :     0.000738
      dxz     :     0.000115
      dyz     :     0.000033
      dx2y2   :     0.000395
      dxy     :    -0.000012

 11 C s       :    -0.011895  s :    -0.011895
      pz      :     0.000483  p :    -0.005052
      px      :    -0.004448
      py      :    -0.001087
      dz2     :     0.000359  d :     0.003120
      dxz     :     0.000680
      dyz     :     0.001916
      dx2y2   :     0.000963
      dxy     :    -0.000798
      f0      :     0.000066  f :     0.000181
      f+1     :    -0.000016
      f-1     :     0.000147
      f+2     :    -0.000046
      f-2     :    -0.000125
      f+3     :     0.000087
      f-3     :     0.000067

 12 H s       :     0.006009  s :     0.006009
      pz      :     0.000507  p :     0.000830
      px      :     0.000383
      py      :    -0.000061
      dz2     :     0.000025  d :     0.000138
      dxz     :     0.000014
      dyz     :     0.000012
      dx2y2   :     0.000045
      dxy     :     0.000042

 13 H s       :     0.006008  s :     0.006008
      pz      :     0.000506  p :     0.000836
      px      :     0.000384
      py      :    -0.000054
      dz2     :     0.000025  d :     0.000139
      dxz     :     0.000014
      dyz     :     0.000012
      dx2y2   :     0.000045
      dxy     :     0.000042

 14 H s       :     0.000309  s :     0.000309
      pz      :    -0.000159  p :    -0.000363
      px      :    -0.000249
      py      :     0.000045
      dz2     :    -0.000000  d :    -0.000074
      dxz     :    -0.000023
      dyz     :    -0.000006
      dx2y2   :    -0.000035
      dxy     :    -0.000011

 15 H s       :     0.003941  s :     0.003941
      pz      :    -0.000517  p :    -0.001550
      px      :    -0.000844
      py      :    -0.000188
      dz2     :    -0.000032  d :    -0.000010
      dxz     :    -0.000115
      dyz     :     0.000013
      dx2y2   :     0.000063
      dxy     :     0.000062

 16 C s       :    -0.029844  s :    -0.029844
      pz      :    -0.056902  p :    -0.037554
      px      :     0.011582
      py      :     0.007766
      dz2     :     0.002082  d :     0.012902
      dxz     :     0.004635
      dyz     :    -0.000580
      dx2y2   :     0.004538
      dxy     :     0.002228
      f0      :     0.000265  f :     0.000387
      f+1     :     0.000160
      f-1     :     0.000086
      f+2     :    -0.000057
      f-2     :     0.000777
      f+3     :    -0.000345
      f-3     :    -0.000498

 17 C s       :    -0.057294  s :    -0.057294
      pz      :     0.412909  p :     0.418853
      px      :     0.011459
      py      :    -0.005515
      dz2     :    -0.005276  d :    -0.011329
      dxz     :    -0.000652
      dyz     :     0.001148
      dx2y2   :    -0.006337
      dxy     :    -0.000213
      f0      :    -0.001013  f :    -0.003460
      f+1     :    -0.000579
      f-1     :    -0.000748
      f+2     :    -0.000113
      f-2     :    -0.000247
      f+3     :    -0.000280
      f-3     :    -0.000481

 18 H s       :    -0.012717  s :    -0.012717
      pz      :     0.008184  p :     0.002572
      px      :    -0.001156
      py      :    -0.004457
      dz2     :     0.000079  d :     0.000714
      dxz     :     0.000065
      dyz     :     0.001546
      dx2y2   :    -0.000387
      dxy     :    -0.000589

 19 H s       :     0.053051  s :     0.053051
      pz      :     0.006784  p :     0.008124
      px      :     0.002374
      py      :    -0.001034
      dz2     :     0.000115  d :     0.001055
      dxz     :     0.001227
      dyz     :     0.000397
      dx2y2   :    -0.000256
      dxy     :    -0.000428

 20 H s       :    -0.006692  s :    -0.006692
      pz      :    -0.003368  p :    -0.001483
      px      :    -0.001327
      py      :     0.003213
      dz2     :     0.000035  d :    -0.000239
      dxz     :    -0.000121
      dyz     :    -0.000204
      dx2y2   :     0.000056
      dxy     :    -0.000005

 21 H s       :    -0.004665  s :    -0.004665
      pz      :     0.002265  p :     0.000527
      px      :    -0.000601
      py      :    -0.001136
      dz2     :     0.000072  d :     0.000648
      dxz     :     0.000238
      dyz     :     0.000268
      dx2y2   :     0.000015
      dxy     :     0.000055



                     *******************************
                     * LOEWDIN POPULATION ANALYSIS *
                     *******************************

-------------------------------------------
LOEWDIN ATOMIC CHARGES AND SPIN POPULATIONS
-------------------------------------------
   0 C :    0.285617    0.088962
   1 C :   -0.078448    0.118064
   2 C :    0.285579    0.029275
   3 C :   -0.044641    0.058352
   4 C :   -0.030258    0.158317
   5 C :    0.292409    0.037952
   6 H :   -0.153019   -0.004308
   7 C :    0.635486    0.053603
   8 H :   -0.154559    0.001380
   9 H :   -0.139027    0.013045
  10 H :   -0.138693    0.013110
  11 C :    0.621037    0.007484
  12 H :   -0.147622    0.002400
  13 H :   -0.147828    0.002397
  14 H :   -0.158723    0.000071
  15 H :   -0.150825   -0.000202
  16 C :    0.262134    0.073853
  17 C :    0.653564    0.232831
  18 H :   -0.191221    0.048711
  19 H :   -0.171842    0.053796
  20 H :   -0.161683   -0.002539
  21 H :   -0.167437    0.013447

----------------------------------------------------
LOEWDIN REDUCED ORBITAL CHARGES AND SPIN POPULATIONS
----------------------------------------------------
CHARGE
  0 C s       :     2.477737  s :     2.477737
      pz      :     0.548920  p :     2.224043
      px      :     0.853076
      py      :     0.822048
      dz2     :     0.069269  d :     0.679529
      dxz     :     0.081028
      dyz     :     0.073423
      dx2y2   :     0.186810
      dxy     :     0.269000
      f0      :     0.021500  f :     0.333073
      f+1     :     0.026516
      f-1     :     0.024973
      f+2     :     0.049374
      f-2     :     0.014928
      f+3     :     0.101920
      f-3     :     0.093861

  1 C s       :     2.465580  s :     2.465580
      pz      :     0.551286  p :     2.219863
      px      :     0.836058
      py      :     0.832519
      dz2     :     0.088888  d :     0.908009
      dxz     :     0.128580
      dyz     :     0.113439
      dx2y2   :     0.289203
      dxy     :     0.287899
      f0      :     0.030434  f :     0.484997
      f+1     :     0.035084
      f-1     :     0.034007
      f+2     :     0.041139
      f-2     :     0.050926
      f+3     :     0.161293
      f-3     :     0.132114

  2 C s       :     2.470258  s :     2.470258
      pz      :     0.573145  p :     2.232118
      px      :     0.844748
      py      :     0.814225
      dz2     :     0.070376  d :     0.675346
      dxz     :     0.106061
      dyz     :     0.040235
      dx2y2   :     0.243285
      dxy     :     0.215389
      f0      :     0.022024  f :     0.336699
      f+1     :     0.033017
      f-1     :     0.020529
      f+2     :     0.022263
      f-2     :     0.039488
      f+3     :     0.103169
      f-3     :     0.096210

  3 C s       :     2.457214  s :     2.457214
      pz      :     0.560357  p :     2.202744
      px      :     0.834072
      py      :     0.808314
      dz2     :     0.081065  d :     0.898441
      dxz     :     0.147815
      dyz     :     0.100557
      dx2y2   :     0.273176
      dxy     :     0.295828
      f0      :     0.034460  f :     0.486243
      f+1     :     0.029615
      f-1     :     0.032528
      f+2     :     0.047785
      f-2     :     0.060716
      f+3     :     0.138251
      f-3     :     0.142887

  4 C s       :     2.462871  s :     2.462871
      pz      :     0.502368  p :     2.156159
      px      :     0.814484
      py      :     0.839306
      dz2     :     0.081454  d :     0.915958
      dxz     :     0.158639
      dyz     :     0.108408
      dx2y2   :     0.286284
      dxy     :     0.281173
      f0      :     0.034708  f :     0.495270
      f+1     :     0.028149
      f-1     :     0.033312
      f+2     :     0.064815
      f-2     :     0.053417
      f+3     :     0.160159
      f-3     :     0.120710

  5 C s       :     2.477494  s :     2.477494
      pz      :     0.585179  p :     2.251449
      px      :     0.845720
      py      :     0.820550
      dz2     :     0.068200  d :     0.651703
      dxz     :     0.085246
      dyz     :     0.039375
      dx2y2   :     0.254626
      dxy     :     0.204257
      f0      :     0.020984  f :     0.326945
      f+1     :     0.032272
      f-1     :     0.020433
      f+2     :     0.021882
      f-2     :     0.033787
      f+3     :     0.103826
      f-3     :     0.093761

  6 H s       :     0.637584  s :     0.637584
      pz      :     0.073881  p :     0.296663
      px      :     0.086038
      py      :     0.136744
      dz2     :     0.024502  d :     0.218771
      dxz     :     0.007462
      dyz     :     0.054622
      dx2y2   :     0.058546
      dxy     :     0.073638

  7 C s       :     2.437807  s :     2.437807
      pz      :     0.753486  p :     2.262873
      px      :     0.737550
      py      :     0.771837
      dz2     :     0.077715  d :     0.481039
      dxz     :     0.106665
      dyz     :     0.039591
      dx2y2   :     0.149411
      dxy     :     0.107656
      f0      :     0.011938  f :     0.182795
      f+1     :     0.027730
      f-1     :     0.016009
      f+2     :     0.016965
      f-2     :     0.019066
      f+3     :     0.041873
      f-3     :     0.049214

  8 H s       :     0.613417  s :     0.613417
      pz      :     0.084869  p :     0.312155
      px      :     0.083806
      py      :     0.143480
      dz2     :     0.017197  d :     0.228987
      dxz     :     0.003297
      dyz     :     0.081562
      dx2y2   :     0.051481
      dxy     :     0.075450

  9 H s       :     0.593995  s :     0.593995
      pz      :     0.125488  p :     0.313562
      px      :     0.087761
      py      :     0.100313
      dz2     :     0.079623  d :     0.231470
      dxz     :     0.042761
      dyz     :     0.043456
      dx2y2   :     0.046863
      dxy     :     0.018767

 10 H s       :     0.593934  s :     0.593934
      pz      :     0.125735  p :     0.313400
      px      :     0.087628
      py      :     0.100037
      dz2     :     0.079518  d :     0.231359
      dxz     :     0.043064
      dyz     :     0.043835
      dx2y2   :     0.046436
      dxy     :     0.018505

 11 C s       :     2.437842  s :     2.437842
      pz      :     0.762643  p :     2.264090
      px      :     0.749059
      py      :     0.752387
      dz2     :     0.078297  d :     0.492857
      dxz     :     0.131234
      dyz     :     0.033630
      dx2y2   :     0.134774
      dxy     :     0.114921
      f0      :     0.014352  f :     0.184175
      f+1     :     0.026265
      f-1     :     0.016860
      f+2     :     0.012154
      f-2     :     0.026351
      f+3     :     0.051427
      f-3     :     0.036765

 12 H s       :     0.603206  s :     0.603206
      pz      :     0.126449  p :     0.314504
      px      :     0.099518
      py      :     0.088538
      dz2     :     0.078892  d :     0.229912
      dxz     :     0.047749
      dyz     :     0.039852
      dx2y2   :     0.021749
      dxy     :     0.041669

 13 H s       :     0.603158  s :     0.603158
      pz      :     0.126326  p :     0.314629
      px      :     0.099652
      py      :     0.088650
      dz2     :     0.078978  d :     0.230041
      dxz     :     0.047608
      dyz     :     0.039653
      dx2y2   :     0.021927
      dxy     :     0.041876

 14 H s       :     0.613471  s :     0.613471
      pz      :     0.086524  p :     0.314331
      px      :     0.099299
      py      :     0.128507
      dz2     :     0.016984  d :     0.230921
      dxz     :     0.026842
      dyz     :     0.060294
      dx2y2   :     0.056385
      dxy     :     0.070417

 15 H s       :     0.625475  s :     0.625475
      pz      :     0.071651  p :     0.301011
      px      :     0.090735
      py      :     0.138624
      dz2     :     0.025956  d :     0.224339
      dxz     :     0.007777
      dyz     :     0.054225
      dx2y2   :     0.060322
      dxy     :     0.076058

 16 C s       :     2.496073  s :     2.496073
      pz      :     0.557609  p :     2.246135
      px      :     0.854209
      py      :     0.834317
      dz2     :     0.070366  d :     0.678664
      dxz     :     0.097929
      dyz     :     0.025707
      dx2y2   :     0.273765
      dxy     :     0.210897
      f0      :     0.020712  f :     0.316994
      f+1     :     0.032764
[...]
     50       0.000012   0.000041   0.000008  -0.000001  -0.000002  -0.000005
     51      -0.051891   0.007518   0.000206   0.003299  -0.009607  -0.058484
     52       0.037174  -0.017017  -0.002335  -0.000109  -0.003713  -0.080413
     53      -0.000037  -0.000006  -0.000001   0.000004  -0.000017  -0.000147
     54      -0.054973   0.016733   0.002038   0.002299  -0.003359   0.042876
     55      -0.694786   0.199867   0.021012   0.020058  -0.005667   0.680926
     56      -0.000720   0.000178   0.000014   0.000018   0.000027   0.000699
     57       0.620682  -0.059210   0.000506  -0.038682   0.108101   0.653529
     58       0.282641  -0.028774   0.000528  -0.017168   0.047280   0.284527
     59       0.001077  -0.000092   0.000007  -0.000069   0.000179   0.001088
     60      -0.026365  -0.134176  -0.022050  -0.001356   0.005658   0.012763
     61      -0.190484  -0.952830  -0.139974  -0.008867   0.028422   0.091717
     62      -0.000061  -0.000406  -0.000087  -0.000004   0.000021   0.000028
     63      -0.059458   0.028718  -0.002337  -0.195402   0.683108  -0.063946
     64       0.059780  -0.028371   0.003562   0.192308  -0.660098   0.060997
     65       0.000075  -0.000032  -0.000003   0.000149  -0.000433   0.000014


-----------
IR SPECTRUM
-----------

 Mode   freq       eps      Int      T**2         TX        TY        TZ
       cm**-1   L/(mol*cm) km/mol    a.u.
----------------------------------------------------------------------------
  6:     23.68   0.000382    1.93  0.005029  (-0.003091 -0.000268  0.070847)
  7:     53.42   0.000271    1.37  0.001583  ( 0.001489  0.000273  0.039762)
  8:    102.65   0.000003    0.02  0.000010  ( 0.000096  0.000104  0.003205)
  9:    158.47   0.000978    4.94  0.001926  (-0.000310  0.000488  0.043878)
 10:    204.74   0.000183    0.92  0.000279  (-0.000331 -0.000560 -0.016683)
 11:    209.98   0.000180    0.91  0.000268  ( 0.000427 -0.016312  0.001251)
 12:    266.31   0.000127    0.64  0.000149  ( 0.000248 -0.000088 -0.012184)
 13:    315.44   0.000031    0.16  0.000031  ( 0.002728 -0.004837 -0.000067)
 14:    383.02   0.000373    1.89  0.000304  (-0.014673  0.009428  0.000078)
 15:    408.61   0.002820   14.25  0.002154  ( 0.000226  0.000444 -0.046408)
 16:    424.73   0.000015    0.08  0.000011  (-0.003252  0.000665  0.000200)
 17:    454.66   0.000803    4.06  0.000551  (-0.000653  0.000024 -0.023464)
 18:    519.97   0.000869    4.39  0.000522  (-0.022301 -0.004938  0.000001)
 19:    563.92   0.000929    4.69  0.000514  ( 0.022248  0.004347  0.000023)
 20:    596.89   0.000264    1.34  0.000138  (-0.000810 -0.000116  0.011728)
 21:    704.15   0.002732   13.80  0.001211  (-0.000258  0.000060 -0.034793)
 22:    714.38   0.007201   36.39  0.003146  (-0.055311 -0.009292  0.000126)
 23:    748.49   0.000590    2.98  0.000246  ( 0.015313  0.003392  0.000068)
 24:    810.85   0.003831   19.36  0.001475  ( 0.000376  0.000059  0.038398)
 25:    887.86   0.000929    4.70  0.000327  ( 0.000206 -0.000034  0.018071)
 26:    928.18   0.002282   11.53  0.000767  ( 0.025315  0.011238 -0.000392)
 27:    951.40   0.014968   75.64  0.004909  ( 0.000501  0.000111 -0.070065)
 28:    983.52   0.003874   19.58  0.001229  ( 0.002219  0.000022 -0.034991)
 29:    996.98   0.000018    0.09  0.000006  ( 0.001774  0.000437  0.001491)
 30:   1000.92   0.012129   61.29  0.003781  ( 0.061419  0.002405 -0.001855)
 31:   1007.20   0.006425   32.47  0.001991  (-0.001322  0.000104 -0.044598)
 32:   1012.31   0.023230  117.40  0.007161  (-0.084605  0.001381 -0.001133)
 33:   1043.19   0.000710    3.59  0.000212  ( 0.001174  0.000033 -0.014522)
 34:   1059.00   0.000711    3.60  0.000210  ( 0.012850 -0.006671  0.000176)
 35:   1147.13   0.004052   20.48  0.001102  ( 0.020151 -0.026389 -0.000171)
 36:   1199.65   0.022955  116.00  0.005971  ( 0.076813  0.008425  0.000059)
 37:   1242.89   0.022882  115.64  0.005745  (-0.075671 -0.004364  0.000062)
 38:   1262.42   0.049996  252.66  0.012359  ( 0.111167 -0.000808  0.000016)
 39:   1293.00   0.039027  197.23  0.009419  ( 0.097040 -0.001501  0.000004)
 40:   1319.81   0.001490    7.53  0.000352  ( 0.014725 -0.011639 -0.000056)
 41:   1344.68   0.014879   75.19  0.003453  (-0.058312  0.007259  0.000274)
 42:   1375.18   0.003959   20.01  0.000898  ( 0.017685 -0.024198  0.000277)
 43:   1378.57   0.001684    8.51  0.000381  (-0.018125  0.007262 -0.000115)
 44:   1418.77   0.007564   38.22  0.001664  (-0.035313 -0.020391  0.000901)
 45:   1423.68   0.002276   11.50  0.000499  (-0.001072 -0.000267 -0.022309)
 46:   1439.85   0.002479   12.53  0.000537  ( 0.018031  0.014539  0.000911)
 47:   1446.09   0.005719   28.90  0.001234  (-0.000442  0.000046  0.035127)
 48:   1463.48   0.021964  110.99  0.004683  ( 0.066676 -0.015410  0.000365)
 49:   1471.88   0.054005  272.92  0.011450  ( 0.106932  0.003963 -0.000133)
 50:   1493.73   0.090283  456.26  0.018862  (-0.137327 -0.001718 -0.000017)
 51:   1514.20   0.049605  250.68  0.010223  (-0.096472  0.030271 -0.000119)
 52:   1567.06   0.047096  238.00  0.009379  ( 0.084755  0.046852  0.000058)
 53:   1645.98   0.010073   50.91  0.001910  ( 0.035438  0.025573 -0.000042)
 54:   3010.70   0.004580   23.15  0.000475  (-0.021309 -0.004537  0.000220)
 55:   3025.12   0.000319    1.61  0.000033  (-0.004044  0.004069  0.000103)
 56:   3057.00   0.000085    0.43  0.000009  ( 0.000475  0.000077  0.002901)
 57:   3080.35   0.001323    6.68  0.000134  ( 0.000030 -0.000039  0.011575)
 58:   3133.85   0.003905   19.74  0.000389  ( 0.003460 -0.019414 -0.000036)
 59:   3144.08   0.008272   41.80  0.000821  ( 0.022711  0.017470 -0.000019)
 60:   3158.15   0.001820    9.20  0.000180  (-0.013239  0.002131 -0.000011)
 61:   3164.71   0.002310   11.68  0.000228  ( 0.014056  0.005500  0.000079)
 62:   3175.95   0.001101    5.56  0.000108  ( 0.000770  0.010372  0.000108)
 63:   3187.82   0.002164   10.94  0.000212  ( 0.012130  0.008045  0.000073)
 64:   3212.49   0.000168    0.85  0.000016  (-0.001988  0.003512  0.000012)
 65:   3259.96   0.000015    0.07  0.000001  ( 0.000139 -0.001181  0.000039)

* The epsilon (eps) is given for a Dirac delta lineshape.
** The dipole moment derivative (T) already includes vibrational overlap.

The first frequency considered to be a vibration is 6
The total number of vibrations considered is 60


--------------------------
THERMOCHEMISTRY AT 298.15K
--------------------------

Temperature         ...   298.15 K
Pressure            ...     1.00 atm
Total Mass          ...   132.21 AMU
Quasi RRHO          ...     True
Cut-Off Frequency   ...     1.00 cm^-1

Throughout the following assumptions are being made:
  (1) The electronic state is orbitally nondegenerate
      but the spin degeneracy is treated
  (2) There are no thermally accessible electronically excited states
  (3) Hindered rotations indicated by low frequency modes are not
      treated as such but are treated as vibrations and this may
      cause some error
  (4) All equations used are the standard statistical mechanics
      equations for an ideal gas
  (5) All vibrations are strictly harmonic

freq.      23.68  E(vib)   ...       0.56 
freq.      53.42  E(vib)   ...       0.52 
freq.     102.65  E(vib)   ...       0.46 
freq.     158.47  E(vib)   ...       0.39 
freq.     204.74  E(vib)   ...       0.35 
freq.     209.98  E(vib)   ...       0.34 
freq.     266.31  E(vib)   ...       0.29 
freq.     315.44  E(vib)   ...       0.25 
freq.     383.02  E(vib)   ...       0.20 
freq.     408.61  E(vib)   ...       0.19 
freq.     424.73  E(vib)   ...       0.18 
freq.     454.66  E(vib)   ...       0.16 
freq.     519.97  E(vib)   ...       0.13 
freq.     563.92  E(vib)   ...       0.11 
freq.     596.89  E(vib)   ...       0.10 
freq.     704.15  E(vib)   ...       0.07 
freq.     714.38  E(vib)   ...       0.07 
freq.     748.49  E(vib)   ...       0.06 
freq.     810.85  E(vib)   ...       0.05 
freq.     887.86  E(vib)   ...       0.04 
freq.     928.18  E(vib)   ...       0.03 
freq.     951.40  E(vib)   ...       0.03 
freq.     983.52  E(vib)   ...       0.02 
freq.     996.98  E(vib)   ...       0.02 
freq.    1000.92  E(vib)   ...       0.02 
freq.    1007.20  E(vib)   ...       0.02 
freq.    1012.31  E(vib)   ...       0.02 
freq.    1043.19  E(vib)   ...       0.02 
freq.    1059.00  E(vib)   ...       0.02 
freq.    1147.13  E(vib)   ...       0.01 
freq.    1199.65  E(vib)   ...       0.01 
freq.    1242.89  E(vib)   ...       0.01 
freq.    1262.42  E(vib)   ...       0.01 
freq.    1293.00  E(vib)   ...       0.01 
freq.    1319.81  E(vib)   ...       0.01 
freq.    1344.68  E(vib)   ...       0.01 
freq.    1375.18  E(vib)   ...       0.01 
freq.    1378.57  E(vib)   ...       0.01 
freq.    1418.77  E(vib)   ...       0.00 
freq.    1423.68  E(vib)   ...       0.00 
freq.    1439.85  E(vib)   ...       0.00 
freq.    1446.09  E(vib)   ...       0.00 
freq.    1463.48  E(vib)   ...       0.00 
freq.    1471.88  E(vib)   ...       0.00 
freq.    1493.73  E(vib)   ...       0.00 
freq.    1514.20  E(vib)   ...       0.00 
freq.    1567.06  E(vib)   ...       0.00 
freq.    1645.98  E(vib)   ...       0.00 
freq.    3010.70  E(vib)   ...       0.00 
freq.    3025.12  E(vib)   ...       0.00 
freq.    3057.00  E(vib)   ...       0.00 
freq.    3080.35  E(vib)   ...       0.00 
freq.    3133.85  E(vib)   ...       0.00 
freq.    3144.08  E(vib)   ...       0.00 
freq.    3158.15  E(vib)   ...       0.00 
freq.    3164.71  E(vib)   ...       0.00 
freq.    3175.95  E(vib)   ...       0.00 
freq.    3187.82  E(vib)   ...       0.00 
freq.    3212.49  E(vib)   ...       0.00 
freq.    3259.96  E(vib)   ...       0.00 

------------
INNER ENERGY
------------

The inner energy is: U= E(el) + E(ZPE) + E(vib) + E(rot) + E(trans)
    E(el)   - is the total energy from the electronic structure calculation
              = E(kin-el) + E(nuc-el) + E(el-el) + E(nuc-nuc)
    E(ZPE)  - the the zero temperature vibrational energy from the frequency calculation
    E(vib)  - the the finite temperature correction to E(ZPE) due to population
              of excited vibrational states
    E(rot)  - is the rotational thermal energy
    E(trans)- is the translational thermal energy

Summary of contributions to the inner energy U:
Electronic energy                ...   -387.99105273 Eh
Zero point energy                ...      0.18588298 Eh     116.64 kcal/mol
Thermal vibrational correction   ...      0.00771469 Eh       4.84 kcal/mol
Thermal rotational correction    ...      0.00141627 Eh       0.89 kcal/mol
Thermal translational correction ...      0.00141627 Eh       0.89 kcal/mol
-----------------------------------------------------------------------
Total thermal energy                   -387.79462252 Eh


Summary of corrections to the electronic energy:
(perhaps to be used in another calculation)
Total thermal correction                  0.01054723 Eh       6.62 kcal/mol
Non-thermal (ZPE) correction              0.18588298 Eh     116.64 kcal/mol
-----------------------------------------------------------------------
Total correction                          0.19643021 Eh     123.26 kcal/mol


--------
ENTHALPY
--------

The enthalpy is H = U + kB*T
                kB is Boltzmann's constant
Total thermal energy              ...   -387.79462252 Eh 
Thermal Enthalpy correction       ...      0.00094421 Eh       0.59 kcal/mol
-----------------------------------------------------------------------
Total Enthalpy                    ...   -387.79367831 Eh


Note: Only C1 symmetry has been detected, increase convergence thresholds 
      if your molecule has a higher symmetry. Symmetry factor of 1.0 is   
      used for the rotational entropy correction. 
 

Note: Rotational entropy computed according to Herzberg 
Infrared and Raman Spectra, Chapter V,1, Van Nostrand Reinhold, 1945 
Point Group:  C1, Symmetry Number:   1  
Rotational constants in cm-1:     0.096138     0.029434     0.022722 

Vibrational entropy computed according to the QRRHO of S. Grimme
Chem.Eur.J. 2012 18 9955 using a reference frequency of 100.0 cm-1


-------
ENTROPY
-------

The entropy contributions are T*S = T*(S(el)+S(vib)+S(rot)+S(trans))
     S(el)   - electronic entropy
     S(vib)  - vibrational entropy
     S(rot)  - rotational entropy
     S(trans)- translational entropy
The entropies will be listed as multiplied by the temperature to get
units of energy

Electronic entropy                ...      0.00065446 Eh      0.41 kcal/mol
Vibrational entropy               ...      0.01344555 Eh      8.44 kcal/mol
Rotational entropy                ...      0.01406743 Eh      8.83 kcal/mol
Translational entropy             ...      0.01926665 Eh     12.09 kcal/mol
-----------------------------------------------------------------------
Final entropy term                ...      0.04743408 Eh     29.77 kcal/mol

In case the symmetry of your molecule has not been determined correctly
or in case you have a reason to use a different symmetry number we print 
out the resulting rotational entropy values for sn=1,12:

 non-linear molecules -----------------------------------
|  sn= 1 | S(rot)=       0.01406743 Eh      8.83 kcal/mol|
|  sn= 2 | S(rot)=       0.01341297 Eh      8.42 kcal/mol|
|  sn= 3 | S(rot)=       0.01303014 Eh      8.18 kcal/mol|
|  sn= 4 | S(rot)=       0.01275851 Eh      8.01 kcal/mol|
|  sn= 5 | S(rot)=       0.01254782 Eh      7.87 kcal/mol|
|  sn= 6 | S(rot)=       0.01237568 Eh      7.77 kcal/mol|
|  sn= 7 | S(rot)=       0.01223013 Eh      7.67 kcal/mol|
|  sn= 8 | S(rot)=       0.01210406 Eh      7.60 kcal/mol|
|  sn= 9 | S(rot)=       0.01199285 Eh      7.53 kcal/mol|
|  sn=10 | S(rot)=       0.01189337 Eh      7.46 kcal/mol|
|  sn=11 | S(rot)=       0.01180338 Eh      7.41 kcal/mol|
|  sn=12 | S(rot)=       0.01172122 Eh      7.36 kcal/mol|
 linear molecules ---------------------------------------
|  Dinfh | S(rot)=       0.00889899 Eh      5.58 kcal/mol|
|  Cinfv | S(rot)=       0.00955345 Eh      5.99 kcal/mol|
 --------------------------------------------------------


-------------------
GIBBS FREE ENERGY
-------------------

The Gibbs free energy is G = H - T*S

Total enthalpy                    ...   -387.79367831 Eh 
Total entropy correction          ...     -0.04743408 Eh    -29.77 kcal/mol
-----------------------------------------------------------------------
Final Gibbs free energy         ...   -387.84111239 Eh

For completeness - the Gibbs free energy minus the electronic energy
G-E(el)                           ...      0.14994034 Eh     94.09 kcal/mol


Maximum memory used throughout the entire PROP-calculation: 165.7 MB

--------------------------------
SUGGESTED CITATIONS FOR THIS RUN
--------------------------------

Below you find a list of papers that are relevant to this ORCA run
We neither can nor want to force you to cite these papers, but we appreciate if you do
You receive ORCA, which is the product of decades of hard work by many enthusiastic individuals, for free
The only thing we kindly ask in return is that you cite our papers,
We deeply appreciate it, if you show your appreciation for ORCA by not just citing the generic ORCA reference.

Please note that relegating all ORCA citations to the supporting information does *not* help us.
SI sections are not indexed - citations you put there will not count into any citation statistics
But we need these citations in order to attract the funding resources that allow us to do what we are doing

Therefore, if you are a happy ORCA user, please consider citing a few of the papers listed below in the main body of your paper

In addition to the list printed below, the program has created the file cs_rporg_009_ox_freq_06.bibtex that contains the list in bibtex format
You can import this file easily into all common literature databanks and citation aid programs


List of essential papers. We consider these as the minimum necessary citations

  1. Neese,F.
     Software update: the ORCA program system, version 5.0
     WIRES Comput. Molec. Sci., 2022 12(1)e1606
     doi.org/10.1002/wcms.1606

List of papers to cite with high priority. The work reported in these papers was absolutely
necessary for this run to complete.
Our perspective: the developers of density functionals and basis sets usually get cited in chemistry papers
Good! But without the algorithms to do something with them, the functionals or basis sets would not do anything.
Hence, in our opinion, the algorithm design and method developments papers are equally worthy of getting cited

  1. Neese,F.
     An improvement of the resolution of the identity approximation for the formation of the Coulomb matrix
     J. Comp. Chem., 2003 24(14)1740-1747
     doi.org/10.1002/jcc.10318
  2. Bykov,D.; Petrenko,T.; Izsak,R.; Kossmann,S.; Becker,U.; Valeev,E.; Neese,F.
     Efficient implementation of the analytic second derivatives of Hartree-Fock and hybrid DFT energies: a detailed analysis of different approximations
     Molec. Phys., 2015 113 1961-1977
     doi.org/10.1080/00268976.2015.1025114
  3. Garcia-Rates,M.; Neese,F.
     Efficient implementation of the analytical second derivatives of hartree-fock and hybrid DFT energies within the framework of the conductor-like polarizable continuum model
     J. Comput. Chem., 2019 40 1816-1828
     doi.org/10.1002/jcc.25833
  4. Garcia-Rates,M.; Neese,F.
     Effect of the Solute Cavity on the Solvation Energy and its Derivatives within the Framework of the Gaussian Charge Scheme
     J. Comput. Chem., 2020 41 922-939
     doi.org/10.1002/jcc.26139
  5. Neese,F.
     The SHARK Integral Generation and Digestion System
     J. Comp. Chem., 2022  1-16
     doi.org/10.1002/jcc.26942
  6. Lehtola,S.; Steigemann,C.; Oliveira,M.; Marques,M.
     Recent developments in Libxc - A comprehensive library of functionals for density functional theory
     Software X, 2018 7 
     doi.org/10.1016/j.softx.2017.11.002
  7. Grimme,S.; Antony,J.; Ehrlich,S.; Krieg,H.
     A consistent and accurate ab initio parametrization of density functional dispersion correction (DFT-D) for the 94 elements H-Pu
     J. Chem. Phys., 2010 132 154104-XXXX
     doi.org/10.1063/1.3382344
  8. Grimme,S.; Ehrlich,S.; Goerigk,L.
     Effect of the damping function in dispersion corrected density functional theory
     J. Comput. Chem., 2011 32(7)1456-1465
     doi.org/10.1002/jcc.21759

List of suggested additional citations. These are papers that are important in the 'surrounding' of 
of this run, or papers that preceded the highly important papers. If you like your results we are grateful for a citation.

  1. Neese,F.
     The ORCA program system
     WIRES Comput. Molec. Sci., 2012 2(1)73-78
     doi.org/10.1002/wcms.81
  2. Neese,F.
     Software update: the ORCA program system, version 4.0
     WIRES Comput. Molec. Sci., 2018 8(1)1-6
     doi.org/10.1002/wcms.1327
  3. Neese,F.; Wennmohs,F.; Becker,U.; Riplinger,C.
     The ORCA quantum chemistry program package
     J. Chem. Phys., 2020 152 Art. No. L224108
     doi.org/10.1063/5.0004608

List of optional additional citations

  1. Neese,F.
     Approximate second-order SCF convergence for spin unrestricted wavefunctions
     Chem. Phys. Lett., 2000 325(1-3)93-98
     doi.org/10.1016/s0009-2614(00)00662-x

Timings for individual modules:

Sum of individual times          ...     3901.135 sec (=  65.019 min)
Startup calculation              ...        7.305 sec (=   0.122 min)   0.2 %
SCF iterations                   ...      242.648 sec (=   4.044 min)   6.2 %
Property integrals               ...     1912.283 sec (=  31.871 min)  49.0 %
SCF Response                     ...     1498.868 sec (=  24.981 min)  38.4 %
Property calculations            ...      240.032 sec (=   4.001 min)   6.2 %
                             ****ORCA TERMINATED NORMALLY****
TOTAL RUN TIME: 0 days 1 hours 5 minutes 4 seconds 844 msec
