
                                 *****************
                                 * O   R   C   A *
                                 *****************

                                            #,                                       
                                            ###                                      
                                            ####                                     
                                            #####                                    
                                            ######                                   
                                           ########,                                 
                                     ,,################,,,,,                         
                               ,,#################################,,                 
                          ,,##########################################,,             
                       ,#########################################, ''#####,          
                    ,#############################################,,   '####,        
                  ,##################################################,,,,####,       
                ,###########''''           ''''###############################       
              ,#####''   ,,,,##########,,,,          '''####'''          '####       
            ,##' ,,,,###########################,,,                        '##       
           ' ,,###''''                  '''############,,,                           
         ,,##''                                '''############,,,,        ,,,,,,###''
      ,#''                                            '''#######################'''  
     '                                                          ''''####''''         
             ,#######,   #######,   ,#######,      ##                                
            ,#'     '#,  ##    ##  ,#'     '#,    #''#        ,####,   ,####,        
            ##       ##  ##   ,#'  ##            #'  '#       #'       #'  '#        
            ##       ##  #######   ##           ,######,      #####,   #    #        
            '#,     ,#'  ##    ##  '#,     ,#' ,#      #,     #,   #   #,  ,#        
             '#######'   ##     ##  '#######'  #'      '#     '####' # '####'        



                #########################################################
                #                        -***-                          #
                #          Department of theory and spectroscopy        #
                #                                                       #
                #                      Frank Neese                      #
                #                                                       #
                #     Directorship, Architecture, Infrastructure        #
                #                    SHARK, DRIVERS                     #
                #        Core code/Algorithms in most modules           #
                #                                                       #
                #        Max Planck Institute fuer Kohlenforschung      #
                #                Kaiser Wilhelm Platz 1                 #
                #                 D-45470 Muelheim/Ruhr                 #
                #                      Germany                          #
                #                                                       #
                #                  All rights reserved                  #
                #                        -***-                          #
                #########################################################


                         Program Version 6.0.0  -   RELEASE  -


 With contributions from (in alphabetic order):
   Daniel Aravena         : Magnetic Suceptibility
   Michael Atanasov       : Ab Initio Ligand Field Theory (pilot matlab implementation)
   Alexander A. Auer      : GIAO ZORA, VPT2 properties, NMR spectrum
   Ute Becker             : All parallelization in ORCA, NUMFREQ, NUMCALC
   Giovanni Bistoni       : ED, misc. LED, open-shell LED, HFLD
   Martin Brehm           : Molecular dynamics
   Dmytro Bykov           : pre 5.0 version of the SCF Hessian
   Marcos Casanova-Páez   : Triplet and SCS-CIS(D). UHF-(DLPNO)-IP/EA/STEOM-CCSD. UHF-CVS-IP/STEOM-CCSD
   Vijay G. Chilkuri      : MRCI spin determinant printing, contributions to CSF-ICE
   Pauline Colinet        : FMM embedding
   Dipayan Datta          : RHF DLPNO-CCSD density
   Achintya Kumar Dutta   : EOM-CC, STEOM-CC
   Nicolas Foglia         : Exact transition moments, OPA infrastructure, MCD improvements
   Dmitry Ganyushin       : Spin-Orbit,Spin-Spin,Magnetic field MRCI
   Miquel Garcia          : C-PCM and meta-GGA Hessian, CCSD/C-PCM, Gaussian charge scheme
   Tiago L. C. Gouveia    : GS-ROHF, GS-ROCIS
   Yang Guo               : DLPNO-NEVPT2, F12-NEVPT2, CIM, IAO-localization
   Andreas Hansen         : Spin unrestricted coupled pair/coupled cluster methods
   Ingolf Harden          : AUTO-CI MPn and infrastructure 
   Benjamin Helmich-Paris : MC-RPA, TRAH-(SCF,CASSCF), AVAS, COSX integrals, SCF dyn. polar.
   Lee Huntington         : MR-EOM, pCC
   Robert Izsak           : Overlap fitted RIJCOSX, COSX-SCS-MP3, EOM
   Riya Kayal             : Wick's Theorem for AUTO-CI, AUTO-CI UHF-CCSDT
   Emily Kempfer          : AUTO-CI, RHF CISDT and CCSDT
   Christian Kollmar      : KDIIS, OOCD, Brueckner-CCSD(T), CCSD density, CASPT2, CASPT2-K, improved NEVPT2
   Axel Koslowski         : Symmetry handling
   Simone Kossmann        : Meta GGA functionals, TD-DFT gradient, OOMP2, (MP2 Hessian; deprecated post 5.0)
   Lucas Lang             : DCDCAS
   Marvin Lechner         : AUTO-CI (C++ implementation), FIC-MRCC
   Spencer Leger          : CASSCF response
   Dagmar Lenk            : GEPOL surface, SMD, ORCA-2-JSON
   Dimitrios Liakos       : Extrapolation schemes; Compound Job, initial MDCI parallelization
   Dimitrios Manganas     : Further ROCIS development; embedding schemes. LFT, Crystal Embedding
   Dimitrios Pantazis     : SARC Basis sets
   Anastasios Papadopoulos: AUTO-CI, single reference methods and gradients
   Taras Petrenko         : pre 6.0 DFT Hessian and TD-DFT gradient, (ASA, deprecated), ECA, 1-Electron XAS/XES, NRVS
   Peter Pinski           : DLPNO-MP2, DLPNO-MP2 Gradient
   Christoph Reimann      : Effective Core Potentials
   Marius Retegan         : Local ZFS, SOC
   Christoph Riplinger    : Optimizer, TS searches, QM/MM, DLPNO-CCSD(T), (RO)-DLPNO pert. Triples
   Michael Roemelt        : Original ROCIS implementation
   Masaaki Saitow         : Open-shell DLPNO-CCSD energy and density
   Barbara Sandhoefer     : DKH picture change effects
   Kantharuban Sivalingam : CASSCF convergence/infrastructure, NEVPT2 and variants, FIC-MRCI
   Bernardo de Souza      : ESD, SOC TD-DFT
   Georgi Stoychev        : AutoAux, RI-MP2 NMR, DLPNO-MP2 response, X2C
   Van Anh Tran           : RI-MP2 g-tensors
   Willem Van den Heuvel  : Paramagnetic NMR
   Zikuan Wang            : NOTCH, Electric field optimization 
   Frank Wennmohs         : Technical directorship and infrastructure
   Hang Xu                : AUTO-CI-Response properties 


 We gratefully acknowledge several colleagues who have allowed us to
 interface, adapt or use parts of their codes:
   Stefan Grimme, W. Hujo, H. Kruse, P. Pracht,  : VdW corrections, initial TS optimization,
                  C. Bannwarth, S. Ehlert,         DFT functionals, gCP, sTDA/sTD-DF
                  L. Wittmann, M. Mueller
   Ed Valeev, F. Pavosevic, A. Kumar             : LibInt (2-el integral package), F12 methods
   Garnet Chan, S. Sharma, J. Yang, R. Olivares  : DMRG
   Ulf Ekstrom                                   : XCFun DFT Library
   Mihaly Kallay                                 : mrcc  (arbitrary order and MRCC methods)
   Frank Weinhold                                : gennbo (NPA and NBO analysis)
   Simon Mueller                                 : openCOSMO-RS
   Christopher J. Cramer and Donald G. Truhlar   : smd solvation model
   Lars Goerigk                                  : TD-DFT with DH, B97 family of functionals
   V. Asgeirsson, H. Jonsson                     : NEB implementation
   FAccTs GmbH                                   : IRC, NEB, NEB-TS, DLPNO-Multilevel, CI-OPT
                                                   MM, QMMM, 2- and 3-layer-ONIOM, Crystal-QMMM,
                                                   LR-CPCM, SF, NACMEs, symmetry and pop. for TD-DFT,
                                                   nearIR, NL-DFT gradient (VV10), updates on ESD,
                                                   ML-optimized integration grids, MBIS, APM,
                                                   GOAT, DOCKER, SOLVATOR, interface openCOSMO-RS
   S Lehtola, MJT Oliveira, MAL Marques          : LibXC Library
   Liviu Ungur et al                             : ANISO software


 Your calculation uses the libint2 library for the computation of 2-el integrals
 For citations please refer to: http://libint.valeyev.net

 Your ORCA version has been built with support for libXC version: 6.2.2
 For citations please refer to: https://libxc.gitlab.io

 This ORCA versions uses:
   CBLAS   interface :  Fast vector & matrix operations
   LAPACKE interface :  Fast linear algebra routines
   SCALAPACK package :  Parallel linear algebra routines
   Shared memory     :  Shared parallel matrices
   BLAS/LAPACK       :  OpenBLAS 0.3.27  USE64BITINT DYNAMIC_ARCH NO_AFFINITY Sandybridge SINGLE_THREADED
        Core in use  :  Sandybridge
   Copyright (c) 2011-2014, The OpenBLAS Project


NOTE: MaxCore=3500 MB was set to SCF,MP2,MDCI,CIPSI,MRCI and CIS
      => If you want to overwrite this, your respective input block should be placed after the MaxCore statement
Your calculation utilizes the atom-pairwise dispersion correction
with the Becke-Johnson damping scheme (D3BJ)


Your calculation utilizes the SMD solvation module
Please cite in your paper:
A.V. Marenich, C.J. Cramer, D.G. Truhlar J. Phys. Chem. B, 113, (2009), 6378 

Warning: RI is on but no J-basis has been assigned. Assigning Def2/J (nothing to worry about!)
================================================================================

----- Orbital basis set information -----
Your calculation utilizes the basis: aug-cc-pVTZ 
    H, B-Ne : Obtained from the ccRepo (grant-hill.group.shef.ac.uk/ccrepo) Feb. 2017
              R. A. Kendall, T. H. Dunning, Jr., R. J. Harrison, J. Chem. Phys. 96, 6796 (1992)
         He : Obtained from the ccRepo (grant-hill.group.shef.ac.uk/ccrepo) Feb. 2017
              D. E. Woon, T. H. Dunning, Jr., J. Chem. Phys. 100, 2975 (1994)
  Li-Be, Na : Obtained from the ccRepo (grant-hill.group.shef.ac.uk/ccrepo) Feb. 2017
              B. P. Prascher, D. E. Woon, K. A. Peterson, T. H. Dunning, Jr., A. K. Wilson, Theor. Chem. Acc. 128, 69 (2011)
         Mg : Obtained from the Peterson Research Group Website (tyr0.chem.wsu.edu/~kipeters) Feb. 2017
              B. P. Prascher, D. E. Woon, K. A. Peterson, T. H. Dunning, Jr., A. K. Wilson, Theor. Chem. Acc. 128, 69 (2011)
      Al-Ar : Obtained from the ccRepo (grant-hill.group.shef.ac.uk/ccrepo) Feb. 2017
              D. E. Woon, T. H. Dunning, Jr., J. Chem. Phys. 98, 1358 (1993)
      Sc-Zn : Obtained from the ccRepo (grant-hill.group.shef.ac.uk/ccrepo) Feb. 2017
              N. B. Balabanov, K. A. Peterson, J. Chem. Phys. 123, 064107 (2005)
              N. B. Balabanov, K. A. Peterson, J. Chem. Phys. 125, 074110 (2006)
      Ga-Kr : Obtained from the ccRepo (grant-hill.group.shef.ac.uk/ccrepo) Feb. 2017
              A. K. Wilson, D. E. Woon, K. A. Peterson, T. H. Dunning, Jr., J. Chem. Phys. 110, 7667 (1999)
     Ag, Au : Obtained from the Peterson Research Group Website (tyr0.chem.wsu.edu/~kipeters) Feb. 2017
              K. A. Peterson, C. Puzzarini, Theor. Chem. Acc. 114, 283 (2005)

----- AuxJ basis set information -----
Your calculation utilizes the auxiliary basis: def2/J
   F. Weigend, Phys. Chem. Chem. Phys. 8, 1057 (2006).

================================================================================
                                        WARNINGS
                       Please study these warnings very carefully!
================================================================================

WARNING: Old DensityContainer found on disk!
         Will remove this file - 
         If you want to keep old densities, please start your calculation with a different basename. 


WARNING: Geometry Optimization
  ===> : Switching off AutoStart
         For restart on a previous wavefunction, please use MOREAD

================================================================================
                                       INPUT FILE
================================================================================
NAME = cs_rporg_150_ox_opt_04.inp
|  1> !PBE0 opt aug-cc-pVTZ d3 TightSCF SlowConv RIJCOSX defgrid2
|  2> 
|  3> %pal
|  4> nprocs 8
|  5> end
|  6> 
|  7> %scf
|  8> MaxIter 1500
|  9> end
| 10> 
| 11> %maxcore 3500
| 12> 
| 13> !CPCM
| 14> %cpcm smd true
| 15> SMDsolvent "MeCN"
| 16> surfacetype gepol_ses
| 17> rsolv 2.19
| 18> end 
| 19> 
| 20> * xyz 0 1
| 21>   C           0.69139522684059     -1.22664316199288     -0.00221797916935
| 22>   C          -0.69208843426613     -1.22326302618807     -0.00196525733051
| 23>   C          -1.34616039220304      0.00368865913958     -0.00023297142970
| 24>   C          -0.66844027654226      1.21468227709966      0.00138953263473
| 25>   C           0.71843497009282      1.19248771948923      0.00066270652995
| 26>   C           1.40687036809188     -0.02425170438717     -0.00101619596594
| 27>   C           2.90525430739599     -0.08038259963976     -0.00146963485712
| 28>   O           3.47382029732778     -1.16302464690175      0.00111415420213
| 29>   C           3.67189657948305      1.21206200897054     -0.00465317637956
| 30>   H           3.41916712103349      1.80793633317031      0.87637239446926
| 31>   H           4.73910184710129      1.00122370195943     -0.00799457044905
| 32>   H           3.41331173583201      1.80745504721735     -0.88415133468888
| 33>   H           1.25644606715329      2.13013407948356      0.00099979092485
| 34>   H          -1.21526162161310      2.14578953100855      0.00342527162178
| 35>   N          -2.81540793846571      0.01898129684798      0.00093485387668
| 36>   O          -3.38103867502306      1.10941225945787      0.00330237637192
| 37>   O          -3.40288918840984     -1.05983019471924     -0.00027163185462
| 38>   H          -1.25884617768305     -2.14248628889820     -0.00267181367981
| 39>   H           1.23537608385400     -2.16135779111698     -0.00359121482675
| 40> *
| 41> 
| 42>                          ****END OF INPUT****
================================================================================

                       *****************************
                       * Geometry Optimization Run *
                       *****************************

Geometry optimization settings:
Update method            Update   .... BFGS
Choice of coordinates    CoordSys .... (2022) Redundant Internals
Initial Hessian          InHess   .... Almloef's Model
Max. no of cycles        MaxIter  .... 57

Convergence Tolerances:
Energy Change            TolE     ....  5.0000e-06 Eh
Max. Gradient            TolMAXG  ....  3.0000e-04 Eh/bohr
RMS Gradient             TolRMSG  ....  1.0000e-04 Eh/bohr
Max. Displacement        TolMAXD  ....  4.0000e-03 bohr
RMS Displacement         TolRMSD  ....  2.0000e-03 bohr
Strict Convergence                .... False

------------------------------------------------------------------------------
                        ORCA OPTIMIZATION COORDINATE SETUP
------------------------------------------------------------------------------

The optimization will be done in redundant internal coordinates (2022)
Making redundant internal coordinates   ...  (2022 redundants) done
Evaluating the initial hessian          ...  (Almloef) done
Evaluating the coordinates              ...  done
Calculating the B-matrix                .... done
Calculating the G-matrix                .... done
Diagonalizing the G-matrix              .... done
Small eigenvalue found = 1.875e-02
The first mode is                       ....   35
The number of degrees of freedom        ....   51

    -----------------------------------------------------------------
                    Redundant Internal Coordinates


    -----------------------------------------------------------------
         Definition                    Initial Value    Approx d2E/dq
    -----------------------------------------------------------------
      1. B(C   1,C   0)                  1.3835         0.639924   
      2. B(C   2,C   1)                  1.3904         0.623870   
      3. B(C   3,C   2)                  1.3877         0.630013   
      4. B(C   4,C   3)                  1.3871         0.631597   
      5. B(C   5,C   4)                  1.3980         0.606704   
      6. B(C   5,C   0)                  1.3992         0.604119   
      7. B(C   6,C   5)                  1.4994         0.417967   
      8. B(O   7,C   6)                  1.2229         1.034037   
      9. B(C   8,C   6)                  1.5027         0.412955   
     10. B(H   9,C   8)                  1.0932         0.355857   
     11. B(H  10,C   8)                  1.0878         0.362972   
     12. B(H  11,C   8)                  1.0931         0.356017   
     13. B(H  12,C   4)                  1.0810         0.372157   
     14. B(H  13,C   3)                  1.0798         0.373843   
     15. B(N  14,C   2)                  1.4693         0.418132   
     16. B(O  15,N  14)                  1.2284         0.907453   
     17. B(O  16,N  14)                  1.2284         0.907471   
     18. B(H  17,C   1)                  1.0799         0.373711   
     19. B(H  18,C   0)                  1.0815         0.371543   
     20. A(C   1,C   0,H  18)          120.3383         0.356694   
     21. A(C   5,C   0,H  18)          119.0472         0.353228   
     22. A(C   1,C   0,C   5)          120.6145         0.434510   
     23. A(C   0,C   1,C   2)          118.2015         0.437035   
     24. A(C   0,C   1,H  17)          121.5164         0.357046   
     25. A(C   2,C   1,H  17)          120.2821         0.355509   
     26. A(C   3,C   2,N  14)          118.6367         0.403172   
     27. A(C   1,C   2,N  14)          118.6579         0.402476   
     28. A(C   1,C   2,C   3)          122.7054         0.435808   
     29. A(C   2,C   3,C   4)          118.3162         0.436775   
     30. A(C   4,C   3,H  13)          121.3417         0.356274   
     31. A(C   2,C   3,H  13)          120.3421         0.356123   
     32. A(C   3,C   4,C   5)          120.4182         0.433820   
     33. A(C   5,C   4,H  12)          120.6519         0.353582   
     34. A(C   3,C   4,H  12)          118.9299         0.356001   
     35. A(C   0,C   5,C   6)          118.6091         0.402756   
     36. A(C   0,C   5,C   4)          119.7442         0.430366   
     37. A(C   4,C   5,C   6)          121.6467         0.403059   
     38. A(O   7,C   6,C   8)          121.6180         0.439467   
     39. A(C   5,C   6,C   8)          118.5299         0.376870   
     40. A(C   5,C   6,O   7)          119.8521         0.440425   
     41. A(C   6,C   8,H  11)          110.4557         0.329097   
     42. A(H   9,C   8,H  10)          109.5670         0.290661   
     43. A(C   6,C   8,H  10)          109.5000         0.330151   
     44. A(C   6,C   8,H   9)          110.4349         0.329073   
     45. A(H  10,C   8,H  11)          109.5828         0.290681   
     46. A(H   9,C   8,H  11)          107.2680         0.289780   
     47. A(O  15,N  14,O  16)          124.0122         0.485546   
     48. A(C   2,N  14,O  16)          117.9747         0.424575   
     49. A(C   2,N  14,O  15)          118.0131         0.424573   
     50. D(C   2,C   1,C   0,C   5)     -0.0120         0.028451   
     51. D(H  17,C   1,C   0,C   5)   -179.9870         0.028451   
     52. D(C   2,C   1,C   0,H  18)   -179.9972         0.028451   
     53. D(H  17,C   1,C   0,H  18)      0.0278         0.028451   
     54. D(C   3,C   2,C   1,C   0)     -0.0074         0.026953   
     55. D(C   3,C   2,C   1,H  17)    179.9680         0.026953   
     56. D(N  14,C   2,C   1,H  17)      0.0146         0.026953   
     57. D(N  14,C   2,C   1,C   0)   -179.9607         0.026953   
     58. D(H  13,C   3,C   2,N  14)     -0.0025         0.027520   
     59. D(H  13,C   3,C   2,C   1)   -179.9559         0.027520   
     60. D(C   4,C   3,C   2,N  14)    179.9817         0.027520   
     61. D(C   4,C   3,C   2,C   1)      0.0284         0.027520   
     62. D(H  12,C   4,C   3,C   2)    179.9447         0.027668   
     63. D(C   5,C   4,C   3,H  13)    179.9540         0.027668   
     64. D(C   5,C   4,C   3,C   2)     -0.0301         0.027668   
     65. D(H  12,C   4,C   3,H  13)     -0.0712         0.027668   
     66. D(C   6,C   5,C   4,H  12)      0.0421         0.025406   
     67. D(C   0,C   5,C   4,H  12)   -179.9626         0.025406   
     68. D(C   0,C   5,C   4,C   3)      0.0118         0.025406   
     69. D(C   6,C   5,C   0,H  18)     -0.0093         0.025178   
     70. D(C   6,C   5,C   0,C   1)   -179.9947         0.025178   
     71. D(C   6,C   5,C   4,C   3)   -179.9835         0.025406   
     72. D(C   4,C   5,C   0,H  18)    179.9952         0.025178   
     73. D(C   4,C   5,C   0,C   1)      0.0098         0.025178   
     74. D(C   8,C   6,C   5,C   4)     -0.1989         0.011961   
     75. D(C   8,C   6,C   5,C   0)    179.8058         0.011961   
     76. D(O   7,C   6,C   5,C   4)    179.7803         0.011961   
     77. D(O   7,C   6,C   5,C   0)     -0.2150         0.011961   
     78. D(H  10,C   8,C   6,C   5)   -179.8100         0.012624   
     79. D(H   9,C   8,C   6,O   7)   -120.5252         0.012624   
     80. D(H   9,C   8,C   6,C   5)     59.4536         0.012624   
     81. D(H  11,C   8,C   6,C   5)    -59.0408         0.012624   
     82. D(H  10,C   8,C   6,O   7)      0.2112         0.012624   
     83. D(O  16,N  14,C   2,C   3)   -179.9867         0.013781   
     84. D(O  16,N  14,C   2,C   1)     -0.0314         0.013781   
     85. D(O  15,N  14,C   2,C   3)      0.0003         0.013781   
     86. D(O  15,N  14,C   2,C   1)    179.9556         0.013781   
    -----------------------------------------------------------------

Number of atoms                         .... 19
Number of degrees of freedom            .... 86


         *************************************************************
         *                GEOMETRY OPTIMIZATION CYCLE   1            *
         *************************************************************
---------------------------------
CARTESIAN COORDINATES (ANGSTROEM)
---------------------------------
  C      0.691395   -1.226643   -0.002218
  C     -0.692088   -1.223263   -0.001965
  C     -1.346160    0.003689   -0.000233
  C     -0.668440    1.214682    0.001390
  C      0.718435    1.192488    0.000663
  C      1.406870   -0.024252   -0.001016
  C      2.905254   -0.080383   -0.001470
  O      3.473820   -1.163025    0.001114
  C      3.671897    1.212062   -0.004653
  H      3.419167    1.807936    0.876372
  H      4.739102    1.001224   -0.007995
  H      3.413312    1.807455   -0.884151
  H      1.256446    2.130134    0.001000
  H     -1.215262    2.145790    0.003425
  N     -2.815408    0.018981    0.000935
  O     -3.381039    1.109412    0.003302
  O     -3.402889   -1.059830   -0.000272
  H     -1.258846   -2.142486   -0.002672
  H      1.235376   -2.161358   -0.003591

----------------------------
CARTESIAN COORDINATES (A.U.)
----------------------------
  NO LB      ZA    FRAG     MASS         X           Y           Z
   0 C     6.0000    0    12.011    1.306548   -2.318020   -0.004191
   1 C     6.0000    0    12.011   -1.307858   -2.311632   -0.003714
   2 C     6.0000    0    12.011   -2.543874    0.006971   -0.000440
   3 C     6.0000    0    12.011   -1.263169    2.295417    0.002626
   4 C     6.0000    0    12.011    1.357645    2.253475    0.001252
   5 C     6.0000    0    12.011    2.658600   -0.045829   -0.001920
   6 C     6.0000    0    12.011    5.490135   -0.151901   -0.002777
   7 O     8.0000    0    15.999    6.564569   -2.197798    0.002105
   8 C     6.0000    0    12.011    6.938879    2.290465   -0.008793
   9 H     1.0000    0     1.008    6.461289    3.416505    1.656104
  10 H     1.0000    0     1.008    8.955605    1.892039   -0.015108
  11 H     1.0000    0     1.008    6.450224    3.415595   -1.670804
  12 H     1.0000    0     1.008    2.374339    4.025370    0.001889
  13 H     1.0000    0     1.008   -2.296512    4.054955    0.006473
  14 N     7.0000    0    14.007   -5.320350    0.035869    0.001767
  15 O     8.0000    0    15.999   -6.389237    2.096485    0.006241
  16 O     8.0000    0    15.999   -6.430529   -2.002789   -0.000513
  17 H     1.0000    0     1.008   -2.378875   -4.048712   -0.005049
  18 H     1.0000    0     1.008    2.334522   -4.084374   -0.006786

--------------------------------
INTERNAL COORDINATES (ANGSTROEM)
--------------------------------
 C      0   0   0     0.000000000000     0.00000000     0.00000000
 C      1   0   0     1.383487813367     0.00000000     0.00000000
 C      2   1   0     1.390404101368   118.20147180     0.00000000
 C      3   2   1     1.387736549360   122.70544028     0.00000000
 C      4   3   2     1.387053018595   118.31620142     0.02837971
 C      5   4   3     1.397998906132   120.41818771   359.96989323
 C      6   5   4     1.499434997782   121.64668133   180.01647208
 O      7   6   5     1.222860484018   119.85212941   179.78032605
 C      7   6   5     1.502718727711   118.52986069   359.80111136
 H      9   7   6     1.093226621473   110.43491874    59.45361872
 H      9   7   6     1.087837781955   109.49998736   180.18998059
 H      9   7   6     1.093103838539   110.45569428   300.95916140
 H      5   4   3     1.081035036711   118.92986760   179.94473654
 H      4   3   2     1.079804818446   120.34205973   180.04413342
 N      3   2   1     1.469327594780   118.65786729   180.03928491
 O     15   3   2     1.228406862371   118.01314527   179.95560657
 O     15   3   2     1.228401363147   117.97467813   359.96855470
 H      2   1   3     1.079901035120   121.51638728   180.02499529
 H      1   2   3     1.081484394928   120.33832235   180.00278366

---------------------------
INTERNAL COORDINATES (A.U.)
---------------------------
 C      0   0   0     0.000000000000     0.00000000     0.00000000
 C      1   0   0     2.614413076882     0.00000000     0.00000000
 C      2   1   0     2.627482967067   118.20147180     0.00000000
 C      3   2   1     2.622442024324   122.70544028     0.00000000
 C      4   3   2     2.621150338373   118.31620142     0.02837971
 C      5   4   3     2.641835068111   120.41818771   359.96989323
 C      6   5   4     2.833521501425   121.64668133   180.01647208
 O      7   6   5     2.310871414788   119.85212941   179.78032605
 C      7   6   5     2.839726851688   118.52986069   359.80111136
 H      9   7   6     2.065898916897   110.43491874    59.45361872
 H      9   7   6     2.055715486028   109.49998736   180.18998059
 H      9   7   6     2.065666890776   110.45569428   300.95916140
 H      5   4   3     2.042860160557   118.92986760   179.94473654
 H      4   3   2     2.040535384952   120.34205973   180.04413342
 N      3   2   1     2.776626755148   118.65786729   180.03928491
 O     15   3   2     2.321352550910   118.01314527   179.95560657
 O     15   3   2     2.321342158883   117.97467813   359.96855470
 H      2   1   3     2.040717208114   121.51638728   180.02499529
 H      1   2   3     2.043709324523   120.33832235   180.00278366

---------------------
BASIS SET INFORMATION
---------------------
There are 4 groups of distinct atoms

 Group   1 Type C   : 19s6p3d2f contracted to 5s4p3d2f pattern {88111/3111/111/11}
 Group   2 Type O   : 19s6p3d2f contracted to 5s4p3d2f pattern {88111/3111/111/11}
 Group   3 Type H   : 6s3p2d contracted to 4s3p2d pattern {3111/111/11}
 Group   4 Type N   : 19s6p3d2f contracted to 5s4p3d2f pattern {88111/3111/111/11}

Atom   0C    basis set group =>   1
Atom   1C    basis set group =>   1
Atom   2C    basis set group =>   1
Atom   3C    basis set group =>   1
Atom   4C    basis set group =>   1
Atom   5C    basis set group =>   1
Atom   6C    basis set group =>   1
Atom   7O    basis set group =>   2
Atom   8C    basis set group =>   1
Atom   9H    basis set group =>   3
Atom  10H    basis set group =>   3
Atom  11H    basis set group =>   3
Atom  12H    basis set group =>   3
Atom  13H    basis set group =>   3
Atom  14N    basis set group =>   4
Atom  15O    basis set group =>   2
Atom  16O    basis set group =>   2
Atom  17H    basis set group =>   3
Atom  18H    basis set group =>   3
---------------------------------
AUXILIARY/J BASIS SET INFORMATION
---------------------------------
There are 4 groups of distinct atoms

 Group   1 Type C   : 12s5p4d2f1g contracted to 6s4p3d1f1g pattern {711111/2111/211/2/1}
 Group   2 Type O   : 12s5p4d2f1g contracted to 6s4p3d1f1g pattern {711111/2111/211/2/1}
 Group   3 Type H   : 5s2p1d contracted to 3s1p1d pattern {311/2/1}
 Group   4 Type N   : 12s5p4d2f1g contracted to 6s4p3d1f1g pattern {711111/2111/211/2/1}

Atom   0C    basis set group =>   1
Atom   1C    basis set group =>   1
Atom   2C    basis set group =>   1
Atom   3C    basis set group =>   1
Atom   4C    basis set group =>   1
Atom   5C    basis set group =>   1
Atom   6C    basis set group =>   1
Atom   7O    basis set group =>   2
Atom   8C    basis set group =>   1
Atom   9H    basis set group =>   3
Atom  10H    basis set group =>   3
Atom  11H    basis set group =>   3
Atom  12H    basis set group =>   3
Atom  13H    basis set group =>   3
Atom  14N    basis set group =>   4
Atom  15O    basis set group =>   2
Atom  16O    basis set group =>   2
Atom  17H    basis set group =>   3
Atom  18H    basis set group =>   3


           ************************************************************
           *        Program running with 8 parallel MPI-processes     *
           *              working on a common directory               *
           ************************************************************
------------------------------------------------------------------------------
                             ORCA STARTUP CALCULATIONS
                           -- RI-GTO INTEGRALS CHOSEN --
------------------------------------------------------------------------------
------------------------------------------------------------------------------
                   ___                                                        
                  /   \      - P O W E R E D   B Y -                         
                 /     \                                                     
                 |  |  |   _    _      __       _____    __    __             
                 |  |  |  | |  | |    /  \     |  _  \  |  |  /  |          
                  \  \/   | |  | |   /    \    | | | |  |  | /  /          
                 / \  \   | |__| |  /  /\  \   | |_| |  |  |/  /          
                |  |  |   |  __  | /  /__\  \  |    /   |      \           
                |  |  |   | |  | | |   __   |  |    \   |  |\   \          
                \     /   | |  | | |  |  |  |  | |\  \  |  | \   \       
                 \___/    |_|  |_| |__|  |__|  |_| \__\ |__|  \__/        
                                                                              
                      - O R C A' S   B I G   F R I E N D -                    
                                      &                                       
                       - I N T E G R A L  F E E D E R -                       
                                                                              
 v1 FN, 2020, v2 2021, v3 2022-2024                                           
------------------------------------------------------------------------------


----------------------
SHARK INTEGRAL PACKAGE
----------------------

Number of atoms                             ...     19
Number of basis functions                   ...    785
Number of shells                            ...    303
Maximum angular momentum                    ...      3
Integral batch strategy                     ... SHARK/LIBINT Hybrid
RI-J (if used) integral strategy            ... SPLIT-RIJ (Revised 2003 algorithm where possible)
Printlevel                                  ...      1
Contraction scheme used                     ... PARTIAL GENERAL contraction
Prescreening option                         ... SCHWARTZ
   Thresh                                   ... 2.500e-11
   Tcut                                     ... 2.500e-12
   Tpresel                                  ... 2.500e-12 
Coulomb Range Separation                    ... NOT USED
Exchange Range Separation                   ... NOT USED
Multipole approximations                    ... NOT USED
Finite Nucleus Model                        ... NOT USED
CABS basis                                  ... NOT available
Auxiliary Coulomb fitting basis             ... AVAILABLE
   # of basis functions in Aux-J            ...    665
   # of shells in Aux-J                     ...    215
   Maximum angular momentum in Aux-J        ...      4
Auxiliary J/K fitting basis                 ... NOT available
Auxiliary Correlation fitting basis         ... NOT available
Auxiliary 'external' fitting basis          ... NOT available

Checking pre-screening integrals            ... done (  0.1 sec) Dimension = 303
Save PGC pre-screening integrals            ... done (  0.1 sec) Dimension = 303
Calculate PGC overlap integrals             ... done (  0.2 sec) Dimension = 231
Calculating pre-screening integrals (ORCA)  ... done (  0.3 sec) Dimension = 231
Check shell pair data                       ... done (  0.1 sec)
Shell pair information
Shell pair cut-off parameter TPreSel        ...   2.5e-12
Total number of shell pairs                 ...     46056
Shell pairs after pre-screening             ...     35790
Total number of primitive shell pairs       ...     58368
Primitive shell pairs kept                  ...     42246
          la=0 lb=0:   8010 shell pairs
          la=1 lb=0:   9050 shell pairs
          la=1 lb=1:   2226 shell pairs
          la=2 lb=0:   6347 shell pairs
          la=2 lb=1:   3118 shell pairs
          la=2 lb=2:   1139 shell pairs
          la=3 lb=0:   3057 shell pairs
          la=3 lb=1:   1500 shell pairs
          la=3 lb=2:   1074 shell pairs
          la=3 lb=3:    269 shell pairs

Calculating one electron integrals          ... done (  0.1 sec)
Calculating RI/J V-Matrix + Cholesky decomp.... done (  0.1 sec)
Calculating Nuclear repulsion               ... done (  0.0 sec) ENN=    648.793769863337 Eh

Diagonalization of the overlap matrix:
Smallest eigenvalue                        ... 4.459e-07
Time for diagonalization                   ...    0.161 sec
Threshold for overlap eigenvalues          ... 1.000e-07
Number of eigenvalues below threshold      ... 0

IMPORTANT:
Smallest eigenvalue of S below the DiffSThresh (1.000e-06) while
Thresh>1e-12 and/or TCut>1e-13! In order to avoid SCF convergence issues,
Thresh will be set to at least 1e-12 and TCut to at least 1e-13.
This can be turned off by adding %SCF DiffSThresh -1 END to the input.

Time for construction of square roots      ...    0.116 sec
Total time needed                          ...    0.344 sec

-------------------
DFT GRID GENERATION
-------------------

General Integration Accuracy     IntAcc      ... 4.388
Radial Grid Type                 RadialGrid  ... OptM3 with GC (2021)
Angular Grid (max. ang.)         AngularGrid ... 4 (Lebedev-302)
Angular grid pruning method      GridPruning ... 4 (adaptive)
Weight generation scheme         WeightScheme... mBecke (2022)
Basis function cutoff            BFCut       ... 1.0000e-11
Integration weight cutoff        WCut        ... 1.0000e-14
Partially contracted basis set               ... off
Rotationally invariant grid construction     ... off
Angular grids for H and He will be reduced by one unit
Diffuse basis detected: some atoms will have their outermost
                        angular grid increased by 1.

Total number of grid points                  ...    99179
Total number of batches                      ...     1560
Average number of points per batch           ...       63
Average number of grid points per atom       ...     5220

---------------------
SHARK GRID GENERATION
---------------------

General Integration Accuracy     IntAcc      ... 4.388
Radial Grid Type                 RadialGrid  ... OptM3 with GC (2021)
Angular Grid (max. ang.)         AngularGrid ... 4 (Lebedev-302)
Angular grid pruning method      GridPruning ... 4 (adaptive)
Weight generation scheme         WeightScheme... mBecke (2022)
Basis function cutoff            BFCut       ... 1.0000e-11
Integration weight cutoff        WCut        ... 1.0000e-14
Partially contracted basis set               ... off
Rotationally invariant grid construction     ... off
Angular grids for H and He will be reduced by one unit
Diffuse basis detected: some atoms will have their outermost
                        angular grid increased by 1.
Steep s-basis detected: some atoms will have their radial
                        grid points doubled.

Total number of grid points                  ...   175169
Total number of batches                      ...     2743
Average number of points per batch           ...       63
Average number of grid points per atom       ...     9219

--------------------
COSX GRID GENERATION
--------------------

GRIDX 1
-------
General Integration Accuracy     IntAcc      ... 3.816
Radial Grid Type                 RadialGrid  ... OptM3 with GC (2021)
Angular Grid (max. ang.)         AngularGrid ... 1 (Lebedev-50)
Angular grid pruning method      GridPruning ... 4 (adaptive)
Weight generation scheme         WeightScheme... mBecke (2022)
Basis function cutoff            BFCut       ... 1.0000e-11
Integration weight cutoff        WCut        ... 1.0000e-14
Partially contracted basis set               ... on
Rotationally invariant grid construction     ... off
Angular grids for H and He will be reduced by one unit
Diffuse basis detected: some atoms will have their outermost
                        angular grid increased by 1.

Total number of grid points                  ...    12486
Total number of batches                      ...      104
Average number of points per batch           ...      120
Average number of grid points per atom       ...      657
UseSFitting                                  ... on

GRIDX 2
-------
General Integration Accuracy     IntAcc      ... 4.020
Radial Grid Type                 RadialGrid  ... OptM3 with GC (2021)
Angular Grid (max. ang.)         AngularGrid ... 2 (Lebedev-110)
Angular grid pruning method      GridPruning ... 4 (adaptive)
Weight generation scheme         WeightScheme... mBecke (2022)
Basis function cutoff            BFCut       ... 1.0000e-11
Integration weight cutoff        WCut        ... 1.0000e-14
Partially contracted basis set               ... on
Rotationally invariant grid construction     ... off
Angular grids for H and He will be reduced by one unit
Diffuse basis detected: some atoms will have their outermost
                        angular grid increased by 1.

Total number of grid points                  ...    31033
Total number of batches                      ...      253
Average number of points per batch           ...      122
Average number of grid points per atom       ...     1633
UseSFitting                                  ... on

GRIDX 3
-------
General Integration Accuracy     IntAcc      ... 4.338
Radial Grid Type                 RadialGrid  ... OptM3 with GC (2021)
Angular Grid (max. ang.)         AngularGrid ... 3 (Lebedev-194)
Angular grid pruning method      GridPruning ... 4 (adaptive)
Weight generation scheme         WeightScheme... mBecke (2022)
Basis function cutoff            BFCut       ... 1.0000e-11
Integration weight cutoff        WCut        ... 1.0000e-14
Partially contracted basis set               ... on
Rotationally invariant grid construction     ... off
Angular grids for H and He will be reduced by one unit
Diffuse basis detected: some atoms will have their outermost
                        angular grid increased by 1.

Total number of grid points                  ...    68421
Total number of batches                      ...      544
Average number of points per batch           ...      125
Average number of grid points per atom       ...     3601
UseSFitting                                  ... on
Initializing property integral containers    ... done (  0.2 sec)

SHARK setup successfully completed in   9.4 seconds

Maximum memory used throughout the entire STARTUP-calculation: 79.8 MB


           ************************************************************
           *        Program running with 8 parallel MPI-processes     *
           *              working on a common directory               *
           ************************************************************
-------------------------------------------------------------------------------
                                 ORCA GUESS
                   Start orbitals & Density for SCF / CASSCF
-------------------------------------------------------------------------------

------------
SCF SETTINGS
------------
Hamiltonian:
 Density Functional     Method          .... DFT(GTOs)
 Exchange Functional    Exchange        .... PBE
   PBE kappa parameter   XKappa         ....  0.804000
   PBE mue parameter    XMuePBE         ....  0.219520
 Correlation Functional Correlation     .... PBE
   PBE beta parameter  CBetaPBE         ....  0.066725
 LDA part of GGA corr.  LDAOpt          .... PW91-LDA
 Gradients option       PostSCFGGA      .... off
 Hybrid DFT is turned on
   Fraction HF Exchange ScalHFX         ....  0.250000
   Scaling of DF-GGA-X  ScalDFX         ....  0.750000
   Scaling of DF-GGA-C  ScalDFC         ....  1.000000
   Scaling of DF-LDA-C  ScalLDAC        ....  1.000000
   Perturbative correction              ....  0.000000
   NL short-range parameter             ....  6.900000
 RI-approximation to the Coulomb term is turned on
   Number of AuxJ basis functions       .... 665
   RIJ-COSX (HFX calculated with COS-X)).... on


General Settings:
 Integral files         IntName         .... cs_rporg_150_ox_opt_04
 Hartree-Fock type      HFTyp           .... RHF
 Total Charge           Charge          ....    0
 Multiplicity           Mult            ....    1
 Number of Electrons    NEL             ....   86
 Basis Dimension        Dim             ....  713
 Nuclear Repulsion      ENuc            ....    648.7937698633 Eh

Convergence Acceleration:
 AO-DIIS                CNVDIIS         .... on
   Start iteration      DIISMaxIt       ....     0
   Startup error        DIISStart       ....  0.200000
   # of expansion vecs  DIISMaxEq       ....     5
   Bias factor          DIISBfac        ....   1.050
   Max. coefficient     DIISMaxC        ....  10.000
 MO-DIIS                CNVKDIIS        .... off
 Trust-Rad. Augm. Hess. CNVTRAH         .... auto
   Auto Start mean grad. ratio tolernc. ....  1.125000
   Auto Start start iteration           ....    50
   Auto Start num. interpolation iter.  ....    10
   Max. Number of Micro iterations      ....    24
   Max. Number of Macro iterations      .... Maxiter - #DIIS iter
   Number of Davidson start vectors     ....     2
   Converg. threshold    (grad. norm)   ....   1.000e-05
   Grad. Scal. Fac. for Micro threshold ....   0.100
   Minimum threshold for Micro iter.    ....   1.000e-02
   NR start threshold (gradient norm)   ....   1.000e-04
   Initial trust radius                 ....   0.400
   Minimum AH scaling param. (alpha)    ....   1.000
   Maximum AH scaling param. (alpha)    .... 1000.000
   Quad. conv. algorithm                .... NR
   White noise on init. David. guess    .... on
   Maximum white noise                  ....   0.010
   Pseudo random numbers                .... off
   Inactive MOs                         .... canonical
   Orbital update algorithm             .... Taylor
   Preconditioner                       .... Diag
   Full preconditioner red. dimension   ....   250
 SOSCF                  CNVSOSCF        .... on
   Start iteration      SOSCFMaxIt      ....   150
   Startup grad/error   SOSCFStart      ....  0.001000
   Hessian update       SOSCFHessUp     .... L-BFGS
 Level Shifting         CNVShift        .... on
   Level shift para.    LevelShift      ....    0.2500
   Turn off err/grad.   ShiftErr        ....    0.0000
 Zerner damping         CNVZerner       .... off
 Static damping         CNVDamp         .... on
   Fraction old density DampFac         ....    0.8500
   Max. Damping (<1)    DampMax         ....    0.9800
   Min. Damping (>=0)   DampMin         ....    0.0000
   Turn off err/grad.   DampErr         ....    0.0300

SCF Procedure:
 Maximum # iterations   MaxIter         ....  1500
 SCF integral mode      SCFMode         .... Direct
   Integral package                     .... SHARK and LIBINT hybrid scheme
 Reset frequency        DirectResetFreq ....    20
 Integral Threshold     Thresh          ....  1.000e-12 Eh
 Primitive CutOff       TCut            ....  1.000e-13 Eh

Convergence Tolerance:
 Convergence Check Mode ConvCheckMode   .... Total+1el-Energy
 Convergence forced     ConvForced      .... 0
 Energy Change          TolE            ....  1.000e-08 Eh
 1-El. energy change                    ....  1.000e-05 Eh
 Orbital Gradient       TolG            ....  1.000e-05
 Orbital Rotation angle TolX            ....  1.000e-05
 DIIS Error             TolErr          ....  5.000e-07

------------------------------
INITIAL GUESS: MODEL POTENTIAL
------------------------------
Loading Hartree-Fock densities                     ... done
Calculating cut-offs                               ... done
Initializing the effective Hamiltonian             ... done
Setting up the integral package (SHARK)            ... done
Starting the Coulomb interaction                   ... done (   0.6 sec)
Making the grid                                    ... done (   0.5 sec)
Mapping shells                                     ... done
Starting the XC term evaluation                    ... done (   0.6 sec)
  promolecular density results
     # of electrons  =     86.000714882
     EX              =    -73.954699809
     EC              =     -2.895547926
     EX+EC           =    -76.850247735
Transforming the Hamiltonian                       ... done (   0.8 sec)
Diagonalizing the Hamiltonian                      ... done (   0.2 sec)
Back transforming the eigenvectors                 ... done (   0.1 sec)
Now organizing SCF variables                       ... done
                      ------------------
                      INITIAL GUESS DONE (   3.2 sec)
                      ------------------
             **** ENERGY FILE WAS UPDATED (cs_rporg_150_ox_opt_04.en.tmp) ****
Finished Guess after   6.2 sec
Maximum memory used throughout the entire GUESS-calculation: 58.3 MB


           ************************************************************
           *        Program running with 8 parallel MPI-processes     *
           *              working on a common directory               *
           ************************************************************

-------------------------------------------------------------------------------------------
                                      ORCA LEAN-SCF
                              memory conserving SCF solver
-------------------------------------------------------------------------------------------

--------------------
CPCM SOLVATION MODEL
--------------------
CPCM parameters:
  Epsilon                                         ...      35.6880
  Refrac                                          ...       1.3442
  Rsolv                                           ...       2.1900
  Surface type                                    ...    GEPOL SES
  Discretization scheme                           ... Constant num. charges
  Epsilon function type                           ...         CPCM
Solvent:                                          ... ACETONITRILE
SMD-CDS solvent descriptors:
  Soln                                            ...       1.3442
  Soln25                                          ...       1.3416
  Sola                                            ...       0.0700
  Solb                                            ...       0.3200
  Solg                                            ...      41.2500
  Solc                                            ...       0.0000
  Solh                                            ...       0.0000
Radii:
  Scheme                                          ... Element-dependent radii
  Radius for C  used is    3.4960 Bohr (=   1.8500 Ang.)
  Radius for O  used is    4.0969 Bohr (=   2.1680 Ang.)
  Radius for H  used is    2.2677 Bohr (=   1.2000 Ang.)
  Radius for N  used is    3.5716 Bohr (=   1.8900 Ang.)
Calculating surface                               ...        done! (  0.0s)
Cavity surface points                             ...          569
Cavity Volume                                     ...    1400.0507
Cavity Surface-area                               ...     750.3785
Calculating surface distance matrix               ...        done! (  0.0s)
Performing Cholesky decomposition & store         ...        done! (  0.0s)
Overall time for CPCM initialization              ...                 0.1s

----------------------------------------D-I-I-S--------------------------------------------
Iteration    Energy (Eh)           Delta-E    RMSDP     MaxDP     DIISErr   Damp  Time(sec)
-------------------------------------------------------------------------------------------
               ***  Starting incremental Fock matrix formation  ***
    1    -588.6463112671074214     0.00e+00  1.48e-03  9.80e-02  2.77e-01  0.850  19.8
Warning: op=0 Small HOMO/LUMO gap (   0.077) - skipping pre-diagonalization
         Will do a full diagonalization
    2    -588.7362508583546514    -8.99e-02  1.55e-03  1.11e-01  1.95e-01  0.850  13.7
                               ***Turning on AO-DIIS***
    3    -588.7901747224630071    -5.39e-02  9.48e-04  8.38e-02  1.23e-01  0.850  10.7
    4    -588.8237092493286582    -3.35e-02  7.03e-04  6.97e-02  9.85e-02  0.850  10.9
    5    -588.8478835540834098    -2.42e-02  5.71e-04  5.71e-02  8.45e-02  0.850  12.1
    6    -588.8672441367618831    -1.94e-02  4.83e-04  4.70e-02  7.30e-02  0.850  11.0
    7    -588.8833921945820293    -1.61e-02  4.12e-04  3.90e-02  6.16e-02  0.850  10.6
    8    -588.8968633069916905    -1.35e-02  3.44e-04  3.35e-02  5.03e-02  0.850  11.2
    9    -588.9078616057354338    -1.10e-02  2.90e-04  2.88e-02  4.18e-02  0.850  11.6
   10    -588.9169078704169351    -9.05e-03  2.47e-04  2.45e-02  3.54e-02  0.850  10.8
   11    -588.9244388756524131    -7.53e-03  2.11e-04  2.06e-02  3.01e-02  0.850  11.8
   12    -588.9307501230532580    -6.31e-03  1.80e-04  1.74e-02  2.53e-02  0.850  11.3
   13    -588.9360439373799636    -5.29e-03  1.01e-03  9.87e-02  2.11e-02  0.000  10.0
   14    -588.9647181133707363    -2.87e-02  3.98e-05  3.35e-03  2.35e-03  0.000  10.8
                              *** Initializing SOSCF ***
---------------------------------------S-O-S-C-F--------------------------------------
Iteration    Energy (Eh)           Delta-E    RMSDP     MaxDP     MaxGrad    Time(sec)
--------------------------------------------------------------------------------------
   15    -588.9647329815197736    -1.49e-05  1.26e-05  7.62e-04  8.73e-04    10.3
               *** Restarting incremental Fock matrix formation ***
   16    -588.9647323187821257     6.63e-07  3.66e-04  2.18e-02  4.00e-05    16.8
   17    -588.9647324663981180    -1.48e-07  1.16e-04  6.87e-03  7.74e-05    14.9
   18    -588.9647325081159579    -4.17e-08  1.16e-04  6.80e-03  4.21e-05    14.7
   19    -588.9647325484891098    -4.04e-08  5.39e-06  3.35e-04  4.53e-06    14.9
   20    -588.9647325444213948     4.07e-09  1.42e-05  8.15e-04  5.77e-06    13.2
                 **** Energy Check signals convergence ****

               *****************************************************
               *                     SUCCESS                       *
               *           SCF CONVERGED AFTER  20 CYCLES          *
               *****************************************************

Recomputing exchange energy using gridx3       ... done (   23.785 sec)
Old exchange energy                            :    -18.771480577 Eh
New exchange energy                            :    -18.771563744 Eh
Exchange energy change after final integration :     -0.000083166 Eh
Total energy after final integration           :   -588.964815711 Eh

SMD CDS free energy correction energy :                -1.74020     Kcal/mol
Total Energy after SMD CDS correction =              -588.967588900 Eh
             **** ENERGY FILE WAS UPDATED (cs_rporg_150_ox_opt_04.en.tmp) ****

----------------
TOTAL SCF ENERGY
----------------

Total Energy       :       -588.96758889990952 Eh          -16026.62287 eV

Components:
Nuclear Repulsion  :        648.79376986333682 Eh           17654.57602 eV
Electronic Energy  :      -1237.74103358721140 Eh          -33680.64581 eV
One Electron Energy:      -2087.47455792310302 Eh          -56803.07053 eV
Two Electron Energy:        849.73352433589150 Eh           23122.42472 eV
CPCM Dielectric    :         -0.01746882054661 Eh              -0.47535 eV
SMD CDS (Gcds)     :         -0.00277318909352 Eh              -0.07546 eV

Virial components:
Potential Energy   :      -1174.46367429753059 Eh          -31958.78133 eV
Kinetic Energy     :        585.49608539762107 Eh           15932.15846 eV
Virial Ratio       :          2.00592916603350

DFT components:
N(Alpha)           :       43.000016638355 electrons
N(Beta)            :       43.000016638355 electrons
N(Total)           :       86.000033276709 electrons
E(X)               :      -56.283907426492 Eh       
E(C)               :       -2.897916945730 Eh       
E(XC)              :      -59.181824372222 Eh       

CPCM Solvation Model Properties:
Surface-charge          :         -0.02449351571045
Corrected charge        :          0.00000000000000
Outlying charge corr.   :          0.00003825401526 Eh               0.00104 eV
Free-energy (cav+disp)  :         -0.00277318909352 Eh              -0.07546 eV

---------------
SCF CONVERGENCE
---------------

  Last Energy change         ...   -4.0677e-09  Tolerance :   1.0000e-08
  Last MAX-Density change    ...    8.1519e-04  Tolerance :   1.0000e-07
  Last RMS-Density change    ...    1.4201e-05  Tolerance :   5.0000e-09
  Last DIIS Error            ...    8.7281e-04  Tolerance :   5.0000e-07
  Last Orbital Gradient      ...    5.7664e-06  Tolerance :   1.0000e-05
  Last Orbital Rotation      ...    1.0763e-05  Tolerance :   1.0000e-05


----------------
ORBITAL ENERGIES
----------------

  NO   OCC          E(Eh)            E(eV) 
   0   2.0000     -19.256052      -523.9838 
   1   2.0000     -19.255977      -523.9818 
   2   2.0000     -19.207892      -522.6733 
   3   2.0000     -14.637824      -398.3154 
   4   2.0000     -10.326983      -281.0115 
   5   2.0000     -10.301236      -280.3109 
   6   2.0000     -10.261613      -279.2327 
   7   2.0000     -10.258330      -279.1433 
   8   2.0000     -10.257640      -279.1246 
   9   2.0000     -10.254770      -279.0465 
  10   2.0000     -10.251759      -278.9645 
  11   2.0000     -10.220294      -278.1083 
  12   2.0000      -1.273319       -34.6488 
  13   2.0000      -1.096064       -29.8254 
  14   2.0000      -1.079336       -29.3702 
  15   2.0000      -0.924440       -25.1553 
  16   2.0000      -0.846246       -23.0275 
  17   2.0000      -0.800585       -21.7850 
  18   2.0000      -0.775073       -21.0908 
  19   2.0000      -0.730871       -19.8880 
  20   2.0000      -0.653332       -17.7781 
  21   2.0000      -0.636271       -17.3138 
  22   2.0000      -0.591497       -16.0954 
  23   2.0000      -0.580766       -15.8034 
  24   2.0000      -0.565302       -15.3826 
  25   2.0000      -0.549242       -14.9456 
  26   2.0000      -0.509786       -13.8720 
  27   2.0000      -0.499359       -13.5883 
  28   2.0000      -0.478406       -13.0181 
  29   2.0000      -0.462522       -12.5859 
  30   2.0000      -0.459897       -12.5144 
  31   2.0000      -0.444757       -12.1025 
  32   2.0000      -0.431863       -11.7516 
  33   2.0000      -0.409915       -11.1543 
  34   2.0000      -0.395520       -10.7627 
  35   2.0000      -0.378017       -10.2864 
  36   2.0000      -0.376409       -10.2426 
  37   2.0000      -0.343628        -9.3506 
  38   2.0000      -0.341854        -9.3023 
  39   2.0000      -0.324795        -8.8381 
  40   2.0000      -0.297558        -8.0970 
  41   2.0000      -0.292127        -7.9492 
  42   2.0000      -0.279176        -7.5968 
  43   0.0000      -0.109257        -2.9730 
  44   0.0000      -0.047110        -1.2819 
  45   0.0000      -0.029229        -0.7954 
  46   0.0000       0.000304         0.0083 
  47   0.0000       0.013417         0.3651 
  48   0.0000       0.018050         0.4912 
  49   0.0000       0.029370         0.7992 
  50   0.0000       0.032901         0.8953 
  51   0.0000       0.034775         0.9463 
  52   0.0000       0.035665         0.9705 
  53   0.0000       0.041895         1.1400 
*Only the first 10 virtual orbitals were printed.

                    ********************************
                    * MULLIKEN POPULATION ANALYSIS *
                    ********************************

-----------------------
MULLIKEN ATOMIC CHARGES
-----------------------
   0 C :   -0.880643
   1 C :   -0.503327
   2 C :    0.382275
   3 C :   -0.751081
   4 C :   -0.468905
   5 C :    0.911419
   6 C :    0.703016
   7 O :   -0.904812
   8 C :   -0.643311
   9 H :    0.303273
  10 H :    0.205735
  11 H :    0.302590
  12 H :    0.326920
  13 H :    0.598939
  14 N :    0.785430
  15 O :   -0.676924
  16 O :   -0.675387
  17 H :    0.676852
  18 H :    0.307943
Sum of atomic charges:    0.0000000

--------------------------------
MULLIKEN REDUCED ORBITAL CHARGES
--------------------------------
  0 C s       :     4.021828  s :     4.021828
      pz      :     0.919137  p :     2.675263
      px      :     0.717440
      py      :     1.038685
      dz2     :    -0.018129  d :     0.196654
      dxz     :     0.007597
      dyz     :     0.015186
      dx2y2   :     0.006259
      dxy     :     0.185740
      f0      :     0.001241  f :    -0.013101
      f+1     :    -0.001049
      f-1     :     0.000702
      f+2     :     0.000946
      f-2     :    -0.000906
      f+3     :     0.001230
      f-3     :    -0.015264

  1 C s       :     3.765698  s :     3.765698
      pz      :     0.913169  p :     2.542569
      px      :     0.658809
      py      :     0.970590
      dz2     :     0.008324  d :     0.214220
      dxz     :     0.019880
      dyz     :     0.010435
      dx2y2   :     0.037453
      dxy     :     0.138127
      f0      :     0.001475  f :    -0.019159
      f+1     :     0.000995
      f-1     :     0.000942
      f+2     :     0.001678
      f-2     :    -0.000709
      f+3     :     0.001146
      f-3     :    -0.024685

  2 C s       :     3.141425  s :     3.141425
      pz      :     1.008916  p :     2.717815
      px      :     0.461873
      py      :     1.247026
      dz2     :    -0.021764  d :    -0.184281
      dxz     :     0.002993
      dyz     :     0.038725
      dx2y2   :    -0.106125
      dxy     :    -0.098110
      f0      :     0.003188  f :    -0.057233
      f+1     :    -0.002038
      f-1     :     0.000397
      f+2     :     0.002589
      f-2     :    -0.000054
      f+3     :    -0.003492
      f-3     :    -0.057823

  3 C s       :     3.983413  s :     3.983413
      pz      :     0.903057  p :     2.568794
      px      :     0.709142
      py      :     0.956594
      dz2     :     0.012969  d :     0.219358
      dxz     :     0.011227
      dyz     :     0.006248
      dx2y2   :     0.045778
      dxy     :     0.143136
      f0      :     0.001312  f :    -0.020484
      f+1     :     0.000603
      f-1     :     0.000676
      f+2     :     0.001573
      f-2     :    -0.000801
      f+3     :     0.001433
      f-3     :    -0.025279

  4 C s       :     3.797658  s :     3.797658
      pz      :     0.963605  p :     2.512309
      px      :     0.558538
      py      :     0.990166
      dz2     :    -0.024037  d :     0.172424
      dxz     :    -0.003633
      dyz     :     0.019672
      dx2y2   :    -0.083916
      dxy     :     0.264339
      f0      :     0.001905  f :    -0.013485
      f+1     :     0.000351
      f-1     :     0.000574
      f+2     :     0.000548
      f-2     :    -0.000851
      f+3     :     0.002270
      f-3     :    -0.018283

  5 C s       :     2.757225  s :     2.757225
      pz      :     0.939133  p :     2.275784
      px      :     0.472030
      py      :     0.864621
      dz2     :    -0.022818  d :     0.146956
      dxz     :    -0.003719
      dyz     :    -0.000755
      dx2y2   :     0.084387
      dxy     :     0.089860
      f0      :     0.000786  f :    -0.091383
      f+1     :    -0.005060
      f-1     :    -0.000750
      f+2     :     0.000471
      f-2     :    -0.002528
      f+3     :    -0.011810
      f-3     :    -0.072492

  6 C s       :     3.337707  s :     3.337707
      pz      :     0.625088  p :     1.913976
      px      :     0.656059
      py      :     0.632828
      dz2     :     0.006371  d :     0.058101
      dxz     :    -0.003898
      dyz     :     0.034911
      dx2y2   :     0.072219
      dxy     :    -0.051502
      f0      :     0.001018  f :    -0.012800
      f+1     :     0.000062
      f-1     :     0.000828
      f+2     :     0.005214
      f-2     :     0.003900
      f+3     :    -0.003701
      f-3     :    -0.020121

  7 O s       :     4.141608  s :     4.141608
      pz      :     1.384384  p :     4.704565
      px      :     1.820100
      py      :     1.500081
      dz2     :     0.002525  d :     0.053129
      dxz     :     0.006930
      dyz     :     0.015167
      dx2y2   :     0.014066
      dxy     :     0.014440
      f0      :     0.000601  f :     0.005510
      f+1     :     0.000194
      f-1     :    -0.000057
      f+2     :     0.000454
      f-2     :     0.001056
      f+3     :     0.000595
      f-3     :     0.002667

  8 C s       :     3.383461  s :     3.383461
      pz      :     1.141852  p :     3.181307
      px      :     1.047674
      py      :     0.991781
      dz2     :     0.009286  d :     0.069425
      dxz     :     0.013951
      dyz     :     0.023599
      dx2y2   :     0.008088
      dxy     :     0.014500
      f0      :    -0.000203  f :     0.009118
      f+1     :    -0.000344
      f-1     :    -0.000923
      f+2     :     0.001049
      f-2     :     0.001558
      f+3     :     0.004715
      f-3     :     0.003266

  9 H s       :     0.652656  s :     0.652656
      pz      :     0.011969  p :     0.036663
      px      :     0.006770
      py      :     0.017924
      dz2     :     0.002620  d :     0.007409
      dxz     :     0.001568
      dyz     :    -0.000306
      dx2y2   :     0.002564
      dxy     :     0.000962

 10 H s       :     0.758360  s :     0.758360
      pz      :     0.011064  p :     0.029073
      px      :     0.008632
      py      :     0.009377
      dz2     :    -0.000260  d :     0.006832
      dxz     :     0.002678
      dyz     :     0.000730
      dx2y2   :     0.001405
      dxy     :     0.002279

 11 H s       :     0.653327  s :     0.653327
      pz      :     0.011873  p :     0.036680
      px      :     0.006744
      py      :     0.018064
      dz2     :     0.002643  d :     0.007403
      dxz     :     0.001516
      dyz     :    -0.000301
      dx2y2   :     0.002588
      dxy     :     0.000956

 12 H s       :     0.635793  s :     0.635793
      pz      :     0.021995  p :     0.026913
      px      :    -0.005042
      py      :     0.009959
      dz2     :     0.000004  d :     0.010375
      dxz     :     0.001688
      dyz     :     0.003153
      dx2y2   :     0.003956
      dxy     :     0.001573

 13 H s       :     0.403048  s :     0.403048
      pz      :     0.012219  p :    -0.002951
      px      :    -0.008085
      py      :    -0.007084
      dz2     :    -0.001046  d :     0.000964
      dxz     :     0.000970
      dyz     :     0.003184
      dx2y2   :    -0.001140
      dxy     :    -0.001005

 14 N s       :     3.366088  s :     3.366088
      pz      :     1.077738  p :     2.800944
      px      :     0.892670
      py      :     0.830537
      dz2     :    -0.023568  d :     0.036710
      dxz     :     0.034855
      dyz     :     0.031538
      dx2y2   :     0.043552
      dxy     :    -0.049667
      f0      :     0.001136  f :     0.010827
      f+1     :     0.000803
      f-1     :     0.000950
      f+2     :     0.004391
      f-2     :     0.004515
      f+3     :    -0.001192
      f-3     :     0.000226

 15 O s       :     4.059014  s :     4.059014
      pz      :     1.458764  p :     4.552533
      px      :     1.787721
      py      :     1.306048
      dz2     :     0.005075  d :     0.057549
      dxz     :     0.006091
      dyz     :     0.017375
      dx2y2   :     0.014379
      dxy     :     0.014629
      f0      :     0.000881  f :     0.007828
      f+1     :     0.000330
      f-1     :     0.000299
      f+2     :     0.000730
      f-2     :     0.001147
      f+3     :     0.002111
      f-3     :     0.002330

 16 O s       :     4.056508  s :     4.056508
      pz      :     1.458175  p :     4.553038
      px      :     1.773207
      py      :     1.321655
      dz2     :     0.005098  d :     0.057976
      dxz     :     0.006357
      dyz     :     0.017053
      dx2y2   :     0.014643
      dxy     :     0.014825
      f0      :     0.000881  f :     0.007865
      f+1     :     0.000340
      f-1     :     0.000293
      f+2     :     0.000678
      f-2     :     0.001201
      f+3     :     0.002105
      f-3     :     0.002367

 17 H s       :     0.336073  s :     0.336073
      pz      :     0.010816  p :    -0.013668
      px      :    -0.007909
      py      :    -0.016574
      dz2     :    -0.001155  d :     0.000743
      dxz     :     0.001094
      dyz     :     0.003054
      dx2y2   :    -0.000751
      dxy     :    -0.001499

 18 H s       :     0.671194  s :     0.671194
      pz      :     0.019516  p :     0.015877
      px      :    -0.016244
      py      :     0.012605
      dz2     :    -0.000390  d :     0.004986
      dxz     :     0.001395
      dyz     :     0.003110
      dx2y2   :     0.001200
      dxy     :    -0.000329



                     *******************************
                     * LOEWDIN POPULATION ANALYSIS *
                     *******************************

----------------------
LOEWDIN ATOMIC CHARGES
----------------------
   0 C :    0.223374
   1 C :    0.225315
   2 C :   -0.225828
   3 C :    0.230564
   4 C :    0.236892
   5 C :   -0.107276
   6 C :   -0.524914
   7 O :    0.491091
   8 C :    0.581000
   9 H :   -0.158377
  10 H :   -0.174920
  11 H :   -0.158606
  12 H :   -0.172891
  13 H :   -0.185122
  14 N :   -0.726082
  15 O :    0.406178
  16 O :    0.406440
  17 H :   -0.186459
  18 H :   -0.180379

-------------------------------
LOEWDIN REDUCED ORBITAL CHARGES
-------------------------------
  0 C s       :     2.477228  s :     2.477228
      pz      :     0.571976  p :     2.257638
      px      :     0.847390
      py      :     0.838271
      dz2     :     0.069870  d :     0.693165
      dxz     :     0.099489
      dyz     :     0.058054
      dx2y2   :     0.213843
      dxy     :     0.251909
      f0      :     0.021513  f :     0.348595
      f+1     :     0.029878
      f-1     :     0.022637
      f+2     :     0.044912
      f-2     :     0.026956
      f+3     :     0.063107
      f-3     :     0.139590

  1 C s       :     2.481971  s :     2.481971
      pz      :     0.577982  p :     2.265913
      px      :     0.851433
      py      :     0.836498
      dz2     :     0.069762  d :     0.681865
      dxz     :     0.097085
      dyz     :     0.064344
      dx2y2   :     0.201487
      dxy     :     0.249188
      f0      :     0.021919  f :     0.344936
      f+1     :     0.029732
      f-1     :     0.023178
      f+2     :     0.048795
      f-2     :     0.026512
      f+3     :     0.063894
      f-3     :     0.130906

  2 C s       :     2.466397  s :     2.466397
      pz      :     0.648258  p :     2.243759
      px      :     0.704179
      py      :     0.891322
      dz2     :     0.098944  d :     0.958814
      dxz     :     0.106694
      dyz     :     0.139285
      dx2y2   :     0.345693
      dxy     :     0.268198
      f0      :     0.034685  f :     0.556859
      f+1     :     0.044671
      f-1     :     0.036571
      f+2     :     0.048863
      f-2     :     0.073304
      f+3     :     0.093896
      f-3     :     0.224869

  3 C s       :     2.480872  s :     2.480872
      pz      :     0.576930  p :     2.263040
      px      :     0.848002
      py      :     0.838108
      dz2     :     0.069633  d :     0.679871
      dxz     :     0.099145
      dyz     :     0.062896
      dx2y2   :     0.202790
      dxy     :     0.245407
      f0      :     0.022018  f :     0.345653
      f+1     :     0.029971
      f-1     :     0.023052
      f+2     :     0.047366
      f-2     :     0.028398
      f+3     :     0.063851
      f-3     :     0.130997

  4 C s       :     2.472612  s :     2.472612
      pz      :     0.575807  p :     2.254160
      px      :     0.841117
      py      :     0.837236
      dz2     :     0.069244  d :     0.692099
      dxz     :     0.099542
      dyz     :     0.059888
      dx2y2   :     0.211615
      dxy     :     0.251810
      f0      :     0.021361  f :     0.344237
      f+1     :     0.028721
      f-1     :     0.022838
      f+2     :     0.046067
      f-2     :     0.025373
      f+3     :     0.061570
      f-3     :     0.138306

  5 C s       :     2.468309  s :     2.468309
      pz      :     0.599842  p :     2.273019
      px      :     0.816998
      py      :     0.856179
      dz2     :     0.090028  d :     0.881007
      dxz     :     0.098214
      dyz     :     0.122704
      dx2y2   :     0.312191
      dxy     :     0.257870
      f0      :     0.030052  f :     0.484941
      f+1     :     0.036420
      f-1     :     0.034521
      f+2     :     0.031783
      f-2     :     0.068012
      f+3     :     0.077970
      f-3     :     0.206182

  6 C s       :     2.492613  s :     2.492613
      pz      :     0.512451  p :     2.190858
      px      :     0.825615
      py      :     0.852792
      dz2     :     0.100822  d :     1.207191
      dxz     :     0.125979
      dyz     :     0.199073
      dx2y2   :     0.401114
      dxy     :     0.380202
      f0      :     0.042025  f :     0.634251
      f+1     :     0.035285
      f-1     :     0.042453
      f+2     :     0.063931
      f-2     :     0.068346
      f+3     :     0.123704
      f-3     :     0.258507

  7 O s       :     3.187655  s :     3.187655
      pz      :     1.133965  p :     4.019469
      px      :     1.458773
      py      :     1.426731
      dz2     :     0.027176  d :     0.225410
      dxz     :     0.010687
      dyz     :     0.024606
      dx2y2   :     0.087003
      dxy     :     0.075939
      f0      :     0.004854  f :     0.076375
      f+1     :     0.004025
      f-1     :     0.008428
      f+2     :     0.003641
      f-2     :     0.007432
      f+3     :     0.016568
      f-3     :     0.031427

  8 C s       :     2.453813  s :     2.453813
      pz      :     0.774600  p :     2.306197
      px      :     0.773258
      py      :     0.758338
      dz2     :     0.084574  d :     0.477492
      dxz     :     0.028529
      dyz     :     0.115808
      dx2y2   :     0.145992
      dxy     :     0.102589
      f0      :     0.012292  f :     0.181498
      f+1     :     0.016230
      f-1     :     0.029795
      f+2     :     0.017033
      f-2     :     0.018245
      f+3     :     0.031503
      f-3     :     0.056400

  9 H s       :     0.606718  s :     0.606718
      pz      :     0.128234  p :     0.320981
      px      :     0.094569
      py      :     0.098178
      dz2     :     0.079015  d :     0.230678
      dxz     :     0.042771
      dyz     :     0.046537
      dx2y2   :     0.032671
      dxy     :     0.029685

 10 H s       :     0.628521  s :     0.628521
      pz      :     0.086546  p :     0.314525
      px      :     0.140515
      py      :     0.087464
      dz2     :     0.016454  d :     0.231873
      dxz     :     0.073476
      dyz     :     0.012817
      dx2y2   :     0.048431
      dxy     :     0.080695

 11 H s       :     0.606741  s :     0.606741
      pz      :     0.128111  p :     0.321097
      px      :     0.094812
      py      :     0.098174
      dz2     :     0.079060  d :     0.230768
      dxz     :     0.042548
      dyz     :     0.046505
      dx2y2   :     0.032916
      dxy     :     0.029739

 12 H s       :     0.629483  s :     0.629483
      pz      :     0.075992  p :     0.314678
      px      :     0.114757
      py      :     0.123929
      dz2     :     0.024935  d :     0.228730
      dxz     :     0.020573
      dyz     :     0.044671
      dx2y2   :     0.082726
      dxy     :     0.055824

 13 H s       :     0.643524  s :     0.643524
      pz      :     0.074129  p :     0.311455
      px      :     0.112793
      py      :     0.124533
      dz2     :     0.026968  d :     0.230143
      dxz     :     0.019214
      dyz     :     0.044135
      dx2y2   :     0.081203
      dxy     :     0.058623

 14 N s       :     2.682672  s :     2.682672
      pz      :     0.813081  p :     2.863482
      px      :     1.018375
      py      :     1.032026
      dz2     :     0.118353  d :     1.505576
      dxz     :     0.131233
      dyz     :     0.309454
      dx2y2   :     0.484503
      dxy     :     0.462033
      f0      :     0.026296  f :     0.674351
      f+1     :     0.028355
      f-1     :     0.050411
      f+2     :     0.048886
      f-2     :     0.104008
      f+3     :     0.132758
      f-3     :     0.283637

 15 O s       :     3.237477  s :     3.237477
      pz      :     1.203208  p :     3.960089
      px      :     1.458304
      py      :     1.298577
      dz2     :     0.036040  d :     0.286109
      dxz     :     0.013729
      dyz     :     0.056825
      dx2y2   :     0.091962
      dxy     :     0.087553
      f0      :     0.010623  f :     0.110147
      f+1     :     0.004969
      f-1     :     0.011267
      f+2     :     0.010203
      f-2     :     0.012444
      f+3     :     0.021803
      f-3     :     0.038839

 16 O s       :     3.237500  s :     3.237500
      pz      :     1.202768  p :     3.959848
      px      :     1.454194
      py      :     1.302886
      dz2     :     0.036039  d :     0.286066
      dxz     :     0.014551
      dyz     :     0.055921
      dx2y2   :     0.092188
      dxy     :     0.087366
      f0      :     0.010616  f :     0.110146
      f+1     :     0.005138
      f-1     :     0.011098
      f+2     :     0.009451
      f-2     :     0.013192
      f+3     :     0.021532
      f-3     :     0.039120

 17 H s       :     0.644599  s :     0.644599
      pz      :     0.074210  p :     0.311782
      px      :     0.114271
      py      :     0.123301
      dz2     :     0.026933  d :     0.230077
      dxz     :     0.020474
      dyz     :     0.042853
      dx2y2   :     0.081799
      dxy     :     0.058018

 18 H s       :     0.641178  s :     0.641178
      pz      :     0.073568  p :     0.311563
      px      :     0.113122
      py      :     0.124873
      dz2     :     0.026782  d :     0.227639
      dxz     :     0.019420
      dyz     :     0.043202
      dx2y2   :     0.080394
      dxy     :     0.057842



                      *****************************
                      * MAYER POPULATION ANALYSIS *
                      *****************************

  NA   - Mulliken gross atomic population
  ZA   - Total nuclear charge
  QA   - Mulliken gross atomic charge
  VA   - Mayer's total valence
  BVA  - Mayer's bonded valence
  FA   - Mayer's free valence

  ATOM       NA         ZA         QA         VA         BVA        FA
  0 C      6.8806     6.0000    -0.8806     2.4861     2.4861     0.0000
  1 C      6.5033     6.0000    -0.5033     2.5686     2.5686     0.0000
  2 C      5.6177     6.0000     0.3823     3.5930     3.5930     0.0000
  3 C      6.7511     6.0000    -0.7511     2.4669     2.4669     0.0000
  4 C      6.4689     6.0000    -0.4689     2.2590     2.2590    -0.0000
  5 C      5.0886     6.0000     0.9114     2.3728     2.3728     0.0000
  6 C      5.2970     6.0000     0.7030     2.6185     2.6185     0.0000
  7 O      8.9048     8.0000    -0.9048     1.2033     1.2033     0.0000
  8 C      6.6433     6.0000    -0.6433     3.8324     3.8324     0.0000
  9 H      0.6967     1.0000     0.3033     0.8956     0.8956     0.0000
 10 H      0.7943     1.0000     0.2057     0.9879     0.9879    -0.0000
 11 H      0.6974     1.0000     0.3026     0.8968     0.8968     0.0000
 12 H      0.6731     1.0000     0.3269     1.0187     1.0187    -0.0000
 13 H      0.4011     1.0000     0.5989     0.4946     0.4946    -0.0000
 14 N      6.2146     7.0000     0.7854     2.7068     2.7068     0.0000
 15 O      8.6769     8.0000    -0.6769     1.2199     1.2199    -0.0000
 16 O      8.6754     8.0000    -0.6754     1.2295     1.2295    -0.0000
 17 H      0.3231     1.0000     0.6769     0.3231     0.3231    -0.0000
 18 H      0.6921     1.0000     0.3079     1.0553     1.0553     0.0000

  Mayer bond orders larger than 0.100000
B(  0-C ,  1-C ) :   1.4576 B(  0-C ,  2-C ) :  -0.3497 B(  0-C ,  4-C ) :  -0.2982 
B(  0-C ,  5-C ) :   0.5934 B(  0-C ,  6-C ) :   0.1711 B(  0-C , 18-H ) :   0.8516 
B(  1-C ,  2-C ) :   1.1036 B(  1-C ,  3-C ) :   0.1262 B(  1-C ,  5-C ) :   0.1187 
B(  1-C ,  7-O ) :  -0.1016 B(  1-C , 14-N ) :  -0.1247 B(  1-C , 17-H ) :   0.2273 
B(  2-C ,  3-C ) :   0.9909 B(  2-C ,  4-C ) :  -0.2627 B(  2-C , 14-N ) :   1.1931 
B(  2-C , 15-O ) :   0.3921 B(  2-C , 16-O ) :   0.4032 B(  3-C ,  4-C ) :   1.1367 
B(  3-C ,  5-C ) :   0.1796 B(  3-C , 13-H ) :   0.3327 B(  3-C , 14-N ) :  -0.1882 
B(  4-C ,  5-C ) :   0.7280 B(  4-C , 12-H ) :   0.9074 B(  5-C ,  6-C ) :   0.4206 
B(  5-C ,  7-O ) :   0.2189 B(  6-C ,  7-O ) :   0.8929 B(  6-C ,  8-C ) :   0.9638 
B(  7-O , 18-H ) :   0.1609 B(  8-C ,  9-H ) :   0.9064 B(  8-C , 10-H ) :   0.9460 
B(  8-C , 11-H ) :   0.9072 B( 14-N , 15-O ) :   0.8887 B( 14-N , 16-O ) :   0.8898 
B( 15-O , 16-O ) :   0.1912 

-------
TIMINGS
-------

Total SCF time: 0 days 0 hours 4 min 39 sec 

Total time                  ....     279.458 sec
[...]
      f+1     :     0.035409
      f-1     :     0.042650
      f+2     :     0.064519
      f-2     :     0.068720
      f+3     :     0.124151
      f-3     :     0.260485

  7 O s       :     3.180853  s :     3.180853
      pz      :     1.130254  p :     4.012909
      px      :     1.455387
      py      :     1.427268
      dz2     :     0.027403  d :     0.228290
      dxz     :     0.010836
      dyz     :     0.025089
      dx2y2   :     0.088164
      dxy     :     0.076798
      f0      :     0.004940  f :     0.077884
      f+1     :     0.004098
      f-1     :     0.008607
      f+2     :     0.003748
      f-2     :     0.007533
      f+3     :     0.016831
      f-3     :     0.032127

  8 C s       :     2.452467  s :     2.452467
      pz      :     0.772639  p :     2.304979
      px      :     0.772664
      py      :     0.759676
      dz2     :     0.084576  d :     0.479711
      dxz     :     0.028673
      dyz     :     0.116422
      dx2y2   :     0.147326
      dxy     :     0.102715
      f0      :     0.012495  f :     0.183792
      f+1     :     0.016294
      f-1     :     0.030121
      f+2     :     0.017357
      f-2     :     0.018361
      f+3     :     0.031824
      f-3     :     0.057340

  9 H s       :     0.605539  s :     0.605539
      pz      :     0.127957  p :     0.320725
      px      :     0.094719
      py      :     0.098048
      dz2     :     0.079036  d :     0.230999
      dxz     :     0.042750
      dyz     :     0.046534
      dx2y2   :     0.032969
      dxy     :     0.029710

 10 H s       :     0.627775  s :     0.627775
      pz      :     0.086312  p :     0.313802
      px      :     0.140174
      py      :     0.087316
      dz2     :     0.016482  d :     0.232012
      dxz     :     0.073436
      dyz     :     0.012772
      dx2y2   :     0.048550
      dxy     :     0.080772

 11 H s       :     0.605561  s :     0.605561
      pz      :     0.127861  p :     0.320829
      px      :     0.094949
      py      :     0.098019
      dz2     :     0.079067  d :     0.231081
      dxz     :     0.042565
      dyz     :     0.046538
      dx2y2   :     0.033181
      dxy     :     0.029729

 12 H s       :     0.628233  s :     0.628233
      pz      :     0.075808  p :     0.314093
      px      :     0.114846
      py      :     0.123439
      dz2     :     0.024953  d :     0.228993
      dxz     :     0.020647
      dyz     :     0.044692
      dx2y2   :     0.082860
      dxy     :     0.055841

 13 H s       :     0.642437  s :     0.642437
      pz      :     0.073922  p :     0.310591
      px      :     0.112583
      py      :     0.124086
      dz2     :     0.027001  d :     0.230234
      dxz     :     0.019139
      dyz     :     0.044185
      dx2y2   :     0.081079
      dxy     :     0.058830

 14 N s       :     2.674652  s :     2.674652
      pz      :     0.808918  p :     2.860819
      px      :     1.016494
      py      :     1.035407
      dz2     :     0.118655  d :     1.526139
      dxz     :     0.132048
      dyz     :     0.315880
      dx2y2   :     0.492093
      dxy     :     0.467462
      f0      :     0.026953  f :     0.683954
      f+1     :     0.028653
      f-1     :     0.050968
      f+2     :     0.049661
      f-2     :     0.105406
      f+3     :     0.133886
      f-3     :     0.288427

 15 O s       :     3.224924  s :     3.224924
      pz      :     1.196156  p :     3.951497
      px      :     1.452805
      py      :     1.302536
      dz2     :     0.036475  d :     0.291576
      dxz     :     0.014063
      dyz     :     0.058408
      dx2y2   :     0.093840
      dxy     :     0.088792
      f0      :     0.010941  f :     0.113362
      f+1     :     0.005080
      f-1     :     0.011537
      f+2     :     0.010661
      f-2     :     0.012726
      f+3     :     0.022068
      f-3     :     0.040349

 16 O s       :     3.224920  s :     3.224920
      pz      :     1.195732  p :     3.951245
      px      :     1.449107
      py      :     1.306407
      dz2     :     0.036479  d :     0.291552
      dxz     :     0.014863
      dyz     :     0.057527
      dx2y2   :     0.094142
      dxy     :     0.088540
      f0      :     0.010934  f :     0.113362
      f+1     :     0.005244
      f-1     :     0.011374
      f+2     :     0.009917
      f-2     :     0.013466
      f+3     :     0.021788
      f-3     :     0.040639

 17 H s       :     0.643493  s :     0.643493
      pz      :     0.073998  p :     0.310967
      px      :     0.114072
      py      :     0.122897
      dz2     :     0.026977  d :     0.230218
      dxz     :     0.020364
      dyz     :     0.042938
      dx2y2   :     0.081683
      dxy     :     0.058257

 18 H s       :     0.640117  s :     0.640117
      pz      :     0.073373  p :     0.310822
      px      :     0.113038
      py      :     0.124410
      dz2     :     0.026827  d :     0.227798
      dxz     :     0.019373
      dyz     :     0.043250
      dx2y2   :     0.080413
      dxy     :     0.057935



                      *****************************
                      * MAYER POPULATION ANALYSIS *
                      *****************************

  NA   - Mulliken gross atomic population
  ZA   - Total nuclear charge
  QA   - Mulliken gross atomic charge
  VA   - Mayer's total valence
  BVA  - Mayer's bonded valence
  FA   - Mayer's free valence

  ATOM       NA         ZA         QA         VA         BVA        FA
  0 C      6.8942     6.0000    -0.8942     2.4538     2.4538     0.0000
  1 C      6.5140     6.0000    -0.5140     2.5674     2.5674    -0.0000
  2 C      5.6142     6.0000     0.3858     3.5580     3.5580    -0.0000
  3 C      6.7693     6.0000    -0.7693     2.4405     2.4405    -0.0000
  4 C      6.4703     6.0000    -0.4703     2.2210     2.2210     0.0000
  5 C      5.0661     6.0000     0.9339     2.3155     2.3155    -0.0000
  6 C      5.2854     6.0000     0.7146     2.6048     2.6048    -0.0000
  7 O      8.9112     8.0000    -0.9112     1.1891     1.1891     0.0000
  8 C      6.6435     6.0000    -0.6435     3.8354     3.8354    -0.0000
  9 H      0.6946     1.0000     0.3054     0.8930     0.8930    -0.0000
 10 H      0.7943     1.0000     0.2057     0.9869     0.9869    -0.0000
 11 H      0.6951     1.0000     0.3049     0.8945     0.8945    -0.0000
 12 H      0.6752     1.0000     0.3248     1.0246     1.0246     0.0000
 13 H      0.3926     1.0000     0.6074     0.4788     0.4788    -0.0000
 14 N      6.2033     7.0000     0.7967     2.6787     2.6787    -0.0000
 15 O      8.6842     8.0000    -0.6842     1.1940     1.1940    -0.0000
 16 O      8.6862     8.0000    -0.6862     1.1972     1.1972    -0.0000
 17 H      0.3127     1.0000     0.6873     0.3040     0.3040    -0.0000
 18 H      0.6935     1.0000     0.3065     1.0599     1.0599     0.0000

  Mayer bond orders larger than 0.100000
B(  0-C ,  1-C ) :   1.4741 B(  0-C ,  2-C ) :  -0.3626 B(  0-C ,  4-C ) :  -0.3161 
B(  0-C ,  5-C ) :   0.5665 B(  0-C ,  6-C ) :   0.1765 B(  0-C , 18-H ) :   0.8558 
B(  1-C ,  2-C ) :   1.1128 B(  1-C ,  3-C ) :   0.1327 B(  1-C ,  5-C ) :   0.1230 
B(  1-C ,  7-O ) :  -0.1046 B(  1-C , 14-N ) :  -0.1261 B(  1-C , 17-H ) :   0.2002 
B(  2-C ,  3-C ) :   0.9834 B(  2-C ,  4-C ) :  -0.2724 B(  2-C , 14-N ) :   1.1780 
B(  2-C , 15-O ) :   0.3979 B(  2-C , 16-O ) :   0.4033 B(  3-C ,  4-C ) :   1.1303 
B(  3-C ,  5-C ) :   0.1907 B(  3-C , 13-H ) :   0.3112 B(  3-C , 14-N ) :  -0.1894 
B(  4-C ,  5-C ) :   0.7142 B(  4-C , 12-H ) :   0.9085 B(  5-C ,  6-C ) :   0.4087 
B(  5-C ,  7-O ) :   0.2163 B(  6-C ,  7-O ) :   0.8884 B(  6-C ,  8-C ) :   0.9648 
B(  7-O , 18-H ) :   0.1622 B(  8-C ,  9-H ) :   0.9044 B(  8-C , 10-H ) :   0.9468 
B(  8-C , 11-H ) :   0.9051 B( 14-N , 15-O ) :   0.8846 B( 14-N , 16-O ) :   0.8763 
B( 15-O , 16-O ) :   0.1786 

-------
TIMINGS
-------

Total SCF time: 0 days 0 hours 2 min 19 sec 

Total time                  ....     139.074 sec
Sum of individual times     ....     137.863 sec  ( 99.1%)

SCF preparation             ....       1.606 sec  (  1.2%)
Fock matrix formation       ....     121.167 sec  ( 87.1%)
  Startup                   ....       2.078 sec  (  1.7% of F)
  Split-RI-J                ....       9.110 sec  (  7.5% of F)
  Chain of spheres X        ....      89.084 sec  ( 73.5% of F)
  XC integration            ....      14.875 sec  ( 12.3% of F)
    XC Preparation          ....       0.000 sec  (  0.0% of XC)
    Basis function eval.    ....       2.467 sec  ( 16.6% of XC)
    Density eval.           ....       4.159 sec  ( 28.0% of XC)
    XC-Functional eval.     ....       0.131 sec  (  0.9% of XC)
    XC-Potential eval.      ....       5.337 sec  ( 35.9% of XC)
  CPCM terms                ....       3.347 sec  (  2.8% of F)
Diagonalization             ....       0.000 sec  (  0.0%)
Density matrix formation    ....       3.090 sec  (  2.2%)
Total Energy calculation    ....       2.076 sec  (  1.5%)
Population analysis         ....       1.134 sec  (  0.8%)
Orbital Transformation      ....       1.490 sec  (  1.1%)
Orbital Orthonormalization  ....       0.000 sec  (  0.0%)
DIIS solution               ....       4.382 sec  (  3.2%)
SOSCF solution              ....       2.917 sec  (  2.1%)
Finished LeanSCF after 139.8 sec

Maximum memory used throughout the entire LEANSCF-calculation: 106.5 MB


-------------------------------------------------------------------------------
                          DFT DISPERSION CORRECTION                            
                                                                               
                              DFTD3 V3.1  Rev 1                                
                          USING Becke-Johnson damping                          
-------------------------------------------------------------------------------
The PBE0 functional is recognized
Active option DFTDOPT                   ...         4   

molecular C6(AA) [au] = 4368.077753 


            DFT-D V3
 parameters
 s6 scaling factor         :     1.0000 
 a1 scaling factor         :     0.4145 
 s8 scaling factor         :     1.2177 
 a2 scaling factor         :     4.8593 
 ad hoc parameters k1-k3   :    16.0000     1.3333    -4.0000 

 Edisp/kcal,au: -11.554864373637  -0.018413846513 
 E6   /kcal   :  -7.217549103 
 E8   /kcal   :  -4.337315271 
 % E8         :  37.536704290 

-------------------------   ----------------
Dispersion correction           -0.018413847
-------------------------   ----------------


-------------------------   --------------------
FINAL SINGLE POINT ENERGY      -588.986735904083
-------------------------   --------------------

                                *** OPTIMIZATION RUN DONE ***



           ************************************************************
           *        Program running with 8 parallel MPI-processes     *
           *              working on a common directory               *
           ************************************************************

------------------------------------------------------------------------------
                              ORCA PROPERTY CALCULATIONS
------------------------------------------------------------------------------

GBWName                                 ... cs_rporg_150_ox_opt_04.gbw
Number of atoms                         ...     19
Number of basis functions               ...    785
Max core memory                         ...   3500 MB

Electric properties:
Dipole moment                           ... YES
Quadrupole moment                       ...  NO
Static polarizability (Dipole/Dipole)   ...  NO
Static polarizability (Dipole/Quad.)    ...  NO
Static polarizability (Quad./Quad.)     ...  NO
Static polarizability (Velocity)        ...  NO

Atomic electric properties:
Dipole moment                           ...  NO
Quadrupole moment                       ...  NO
Static polarizability                   ...  NO

Choice of electric origin               ... Center of mass
Position of electric origin             ...     0.000200     0.000620    -0.000611

General magnetic properties:
Magnetizability                         ...  NO

EPR properties:
g-Tensor (aka g-matrix)                 ...  NO
Zero-Field splitting spin-orbit         ...  NO
Zero-field splitting spin-spin          ...  NO
Hyperfine couplings                     ...  NO (   0 nuclei)
Quadrupole couplings                    ...  NO (   0 nuclei)
Contact density                         ...  NO (   0 nuclei)

NMR properties:
Chemical shifts                         ...  NO (   0 nuclei)
Spin-rotation constants                 ...  NO (   0 nuclei)
Spin-spin couplings                     ...  NO (   0 nuclei,    0 pairs)

Choice of magnetic origin               ... GIAO
Position of magnetic origin             ...     0.000000     0.000000     0.000000

Properties with geometric perturbations:
SCF Hessian                             ...  NO
IR spectrum                             ...  NO
VCD spectrum                            ...  NO
X-ray spectroscopy properties:
SCF XES/XAS/RIXS spectra                ...  NO


-------------
DIPOLE MOMENT
-------------

Method             : SCF
Type of density    : Electron Density
Multiplicity       :   1
Irrep              :   0
Energy             :  -588.9683220575695941 Eh
Relativity type    : 
Basis              : AO
                                X                 Y                 Z
Electronic contribution:     -9.357573223      -2.931831741       0.009849044
Nuclear contribution   :     10.783760477       4.276866724      -0.014442256
                        -----------------------------------------
Total Dipole Moment    :      1.426187254       1.345034983      -0.004593213
                        -----------------------------------------
Magnitude (a.u.)       :      1.960395441
Magnitude (Debye)      :      4.982929212



--------------------
Rotational spectrum 
--------------------
 
Rotational constants in cm-1:             0.097047             0.016050             0.013807 
Rotational constants in MHz :          2909.397101           481.164535           413.935466 

Dipole components along the rotational axes: 
x,y,z [a.u.] :    -1.426695     1.344496    -0.004484 
x,y,z [Debye]:    -3.626371     3.417438    -0.011399 

 

Dipole moment calculation done in   0.4 sec 

Maximum memory used throughout the entire PROP-calculation: 59.9 MB

--------------------------------
SUGGESTED CITATIONS FOR THIS RUN
--------------------------------

Below you find a list of papers that are relevant to this ORCA run
We neither can nor want to force you to cite these papers, but we appreciate if you do
You receive ORCA, which is the product of decades of hard work by many enthusiastic individuals, for free
The only thing we kindly ask in return is that you cite our papers,
We deeply appreciate it, if you show your appreciation for ORCA by not just citing the generic ORCA reference.

Please note that relegating all ORCA citations to the supporting information does *not* help us.
SI sections are not indexed - citations you put there will not count into any citation statistics
But we need these citations in order to attract the funding resources that allow us to do what we are doing

Therefore, if you are a happy ORCA user, please consider citing a few of the papers listed below in the main body of your paper

In addition to the list printed below, the program has created the file cs_rporg_150_ox_opt_04.bibtex that contains the list in bibtex format
You can import this file easily into all common literature databanks and citation aid programs


List of essential papers. We consider these as the minimum necessary citations

  1. Neese,F.
     Software update: the ORCA program system, version 5.0
     WIRES Comput. Molec. Sci., 2022 12(1)e1606
     doi.org/10.1002/wcms.1606

List of papers to cite with high priority. The work reported in these papers was absolutely
necessary for this run to complete.
Our perspective: the developers of density functionals and basis sets usually get cited in chemistry papers
Good! But without the algorithms to do something with them, the functionals or basis sets would not do anything.
Hence, in our opinion, the algorithm design and method developments papers are equally worthy of getting cited

  1. Neese,F.
     An improvement of the resolution of the identity approximation for the formation of the Coulomb matrix
     J. Comp. Chem., 2003 24(14)1740-1747
     doi.org/10.1002/jcc.10318
  2. Neese,F.; Wennmohs,F.; Hansen,A.; Becker,U.
     Efficient, approximate and parallel Hartree-Fock and hybrid DFT calculations. A 'chain-of-spheres' algorithm for the Hartree-Fock exchange
     Chem. Phys., 2009 356(1-3)98-109
     doi.org/10.1016/j.chemphys.2008.10.036
  3. Garcia-Rates,M.; Neese,F.
     Effect of the Solute Cavity on the Solvation Energy and its Derivatives within the Framework of the Gaussian Charge Scheme
     J. Comput. Chem., 2020 41 922-939
     doi.org/10.1002/jcc.26139
  4. Helmich-Paris,B.; de Souza,B.; Neese,F.; Izsák,R.
     An improved chain of spheres for exchange algorithm
     J. Chem. Phys., 2021 155 104109
     doi.org/doi: 10.1063/5.0058766.
  5. Neese,F.
     The SHARK Integral Generation and Digestion System
     J. Comp. Chem., 2022  1-16
     doi.org/10.1002/jcc.26942
  6. Grimme,S.; Antony,J.; Ehrlich,S.; Krieg,H.
     A consistent and accurate ab initio parametrization of density functional dispersion correction (DFT-D) for the 94 elements H-Pu
     J. Chem. Phys., 2010 132 154104-XXXX
     doi.org/10.1063/1.3382344
  7. Grimme,S.; Ehrlich,S.; Goerigk,L.
     Effect of the damping function in dispersion corrected density functional theory
     J. Comput. Chem., 2011 32(7)1456-1465
     doi.org/10.1002/jcc.21759

List of suggested additional citations. These are papers that are important in the 'surrounding' of 
of this run, or papers that preceded the highly important papers. If you like your results we are grateful for a citation.

  1. Izsak,R.; Neese,F.
     An overlap fitted chain of spheres exchange method
     J. Chem. Phys., 2011 135 144105
     doi.org/10.1063/1.3646921
  2. Izsak,R.; Hansen,A.; Neese,F.
     The resolution of identity and chain of spheres approximations for the LPNO-CCSD singles Fock term
     Molec. Phys., 2012 110 2413-2417
     doi.org/10.1080/00268976.2012.687466
  3. Neese,F.
     The ORCA program system
     WIRES Comput. Molec. Sci., 2012 2(1)73-78
     doi.org/10.1002/wcms.81
  4. Izsak,R.; Neese,F.; Klopper,W.
     Robust fitting techniques in the chain of spheres approximation to the Fock exchange: The role of the complementary space
     J. Chem. Phys., 2013 139 
     doi.org/10.1063/1.4819264
  5. Neese,F.
     Software update: the ORCA program system, version 4.0
     WIRES Comput. Molec. Sci., 2018 8(1)1-6
     doi.org/10.1002/wcms.1327
  6. Neese,F.; Wennmohs,F.; Becker,U.; Riplinger,C.
     The ORCA quantum chemistry program package
     J. Chem. Phys., 2020 152 Art. No. L224108
     doi.org/10.1063/5.0004608

List of optional additional citations

  1. Neese,F.
     Approximate second-order SCF convergence for spin unrestricted wavefunctions
     Chem. Phys. Lett., 2000 325(1-3)93-98
     doi.org/10.1016/s0009-2614(00)00662-x

Timings for individual modules:

Sum of individual times          ...     2132.153 sec (=  35.536 min)
Startup calculation              ...       80.990 sec (=   1.350 min)   3.8 %
SCF iterations                   ...     1294.393 sec (=  21.573 min)  60.7 %
Property calculations            ...        2.684 sec (=   0.045 min)   0.1 %
SCF Gradient evaluation          ...      753.493 sec (=  12.558 min)  35.3 %
Geometry relaxation              ...        0.593 sec (=   0.010 min)   0.0 %
                             ****ORCA TERMINATED NORMALLY****
TOTAL RUN TIME: 0 days 0 hours 36 minutes 2 seconds 605 msec
