 vasp.6.3.2 27Jun22 (build Oct 25 2024 11:36:28) complex                        
  
 executed on             LinuxIFC date 2024.12.21  19:28:30
 running on   80 total cores
 distrk:  each k-point on   80 cores,    1 groups
 distr:  one band on NCORE=  10 cores,    8 groups


--------------------------------------------------------------------------------------------------------


 INCAR:
   SYSTEM = 103_red
   ISTART = 1
   ICHARG = 2
   INIWAV = 1
   NELM = 100
   ALGO = fast   	
   ISPIN = 2
   EDIFF = 1E-05
   ISMEAR = 0
   SIGMA = 0.05
   PREC = accurate
   ENCUT = 500
   LREAL = auto  	
   LWAVE = .TRUE.
   LCHARG = .FALSE.
   LAECHG = .FALSE.
   LVHAR = .FALSE.
   LVTOT = .FALSE.
   EDIFFG = -0.02
   IBRION = 2
   NSW = 500
   ISIF = 2
   POTIM = 0.5
   IVDW = 11
   LPLANE = .TRUE.
   NCORE = 10
   LSCALU = .FALSE.
   NSIM = 4
   LSOL = .TRUE.
   ISOL = 2
   R_SOLV = 2.1900
   EPSILON_INF = 1.8069
   N_MOL = 0.0115
   P_MOL = 0.82
   EB_K = 35.6880
   NELECT = 53

 POTCAR:    PAW_PBE C 08Apr2002                   
 POTCAR:    PAW_PBE Cl 06Sep2000                  
 POTCAR:    PAW_PBE O 08Apr2002                   
 POTCAR:    PAW_PBE H 15Jun2001                   
 -----------------------------------------------------------------------------
|                                                                             |
|           W    W    AA    RRRRR   N    N  II  N    N   GGGG   !!!           |
|           W    W   A  A   R    R  NN   N  II  NN   N  G    G  !!!           |
|           W    W  A    A  R    R  N N  N  II  N N  N  G       !!!           |
|           W WW W  AAAAAA  RRRRR   N  N N  II  N  N N  G  GGG   !            |
|           WW  WW  A    A  R   R   N   NN  II  N   NN  G    G                |
|           W    W  A    A  R    R  N    N  II  N    N   GGGG   !!!           |
|                                                                             |
|     You use a magnetic or noncollinear calculation, but did not specify     |
|     the initial magnetic moment with the MAGMOM tag. Note that a            |
|     default of 1 will be used for all atoms. This ferromagnetic setup       |
|     may break the symmetry of the crystal, in particular it may rule        |
|     out finding an antiferromagnetic solution. Thence, we recommend         |
|     setting the initial magnetic moment manually or verifying carefully     |
|     that this magnetic setup is desired.                                    |
|                                                                             |
 -----------------------------------------------------------------------------

 POTCAR:    PAW_PBE C 08Apr2002                   
   SHA256 =  253f7b50bb8d59471dbedb8285d89021f4a42ed1a2c5d38a03a736e69125dd95 C/POTCAR              
   COPYR  = (c) Copyright 08Apr2002 Georg Kresse                                                    
   COPYR  = This file is part of the software VASP. Any use, copying, and all other rights are regul
   COPYR  = If you do not have a valid VASP license, you may not use, copy or distribute this file. 
   VRHFIN =C: s2p2                                                                                  
   LEXCH  = PE                                                                                      
   EATOM  =   147.1560 eV,   10.8157 Ry                                                             
                                                                                                    
   TITEL  = PAW_PBE C 08Apr2002                                                                     
   LULTRA =        F    use ultrasoft PP ?                                                          
   IUNSCR =        1    unscreen: 0-lin 1-nonlin 2-no                                               
   RPACOR =    1.200    partial core radius                                                         
   POMASS =   12.011; ZVAL   =    4.000    mass and valenz                                          
   RCORE  =    1.500    outmost cutoff radius                                                       
   RWIGS  =    1.630; RWIGS  =    0.863    wigner-seitz radius (au A)                               
   ENMAX  =  400.000; ENMIN  =  300.000 eV                                                          
   ICORE  =        2    local potential                                                             
   LCOR   =        T    correct aug charges                                                         
   LPAW   =        T    paw PP                                                                      
   EAUG   =  644.873                                                                                
   DEXC   =    0.000                                                                                
   RMAX   =    1.529    core radius for proj-oper                                                   
   RAUG   =    1.300    factor for augmentation sphere                                              
   RDEP   =    1.501    radius for radial grids                                                     
   RDEPT  =    1.300    core radius for aug-charge                                                  
                                                                                                    
   Atomic configuration                                                                             
    4 entries                                                                                       
     n  l   j            E        occ.                                                              
     1  0  0.50      -273.3789   2.0000                                                             
     2  0  0.50       -13.7508   2.0000                                                             
     2  1  0.50        -5.2854   2.0000                                                             
     3  2  1.50        -5.4423   0.0000                                                             
   Description                                                                                      
     l       E           TYP  RCUT    TYP  RCUT                                                     
     0    -13.7508458     23  1.200                                                                 
     0     -8.2022199     23  1.200                                                                 
     1     -5.2854383     23  1.500                                                                 
     1     34.0145650     23  1.500                                                                 
     2     -5.4423304      7  1.500                                                                 
  local pseudopotential read in
  partial core-charges read in
  partial kinetic energy density read in
  atomic valenz-charges read in
  non local Contribution for L=           0  read in
    real space projection operators read in
  non local Contribution for L=           0  read in
    real space projection operators read in
  non local Contribution for L=           1  read in
    real space projection operators read in
  non local Contribution for L=           1  read in
    real space projection operators read in
    PAW grid and wavefunctions read in
 
   number of l-projection  operators is LMAX  =           4
   number of lm-projection operators is LMMAX =           8
 
 POTCAR:    PAW_PBE Cl 06Sep2000                  
   SHA256 =  9f1b6e6ed4247ac726a768b330d26d7667cc3c95a39ff49c1d064c2d9dcce931 Cl/POTCAR             
   COPYR  = (c) Copyright 06Sep2000 Georg Kresse                                                    
   COPYR  = This file is part of the software VASP. Any use, copying, and all other rights are regul
   COPYR  = If you do not have a valid VASP license, you may not use, copy or distribute this file. 
   VRHFIN =Cl: s2p5                                                                                 
   LEXCH  = PE                                                                                      
   EATOM  =   409.7259 eV,   30.1140 Ry                                                             
                                                                                                    
   TITEL  = PAW_PBE Cl 06Sep2000                                                                    
   LULTRA =        F    use ultrasoft PP ?                                                          
   IUNSCR =        1    unscreen: 0-lin 1-nonlin 2-no                                               
   RPACOR =    1.500    partial core radius                                                         
   POMASS =   35.453; ZVAL   =    7.000    mass and valenz                                          
   RCORE  =    1.900    outmost cutoff radius                                                       
   RWIGS  =    2.100; RWIGS  =    1.111    wigner-seitz radius (au A)                               
   ENMAX  =  262.472; ENMIN  =  196.854 eV                                                          
   ICORE  =        2    local potential                                                             
   LCOR   =        T    correct aug charges                                                         
   LPAW   =        T    paw PP                                                                      
   EAUG   =  356.192                                                                                
   DEXC   =    0.000                                                                                
   RMAX   =    1.945    core radius for proj-oper                                                   
   RAUG   =    1.300    factor for augmentation sphere                                              
   RDEP   =    2.020    radius for radial grids                                                     
   RDEPT  =    1.678    core radius for aug-charge                                                  
                                                                                                    
   Atomic configuration                                                                             
    6 entries                                                                                       
     n  l   j            E        occ.                                                              
     1  0  0.50     -2751.1850   2.0000                                                             
     2  0  0.50      -252.6861   2.0000                                                             
     2  1  1.50      -191.6157   6.0000                                                             
     3  0  0.50       -20.6916   2.0000                                                             
     3  1  0.50        -8.5949   5.0000                                                             
     3  2  1.50        -8.1635   0.0000                                                             
   Description                                                                                      
     l       E           TYP  RCUT    TYP  RCUT                                                     
     0    -20.6915656     23  1.900                                                                 
     0    -22.0521482     23  1.900                                                                 
     1     -8.5948577     23  1.900                                                                 
     1     -5.3847331     23  1.900                                                                 
     2     -8.1634956     23  1.900                                                                 
  local pseudopotential read in
  partial core-charges read in
  partial kinetic energy density read in
  atomic valenz-charges read in
  non local Contribution for L=           0  read in
    real space projection operators read in
  non local Contribution for L=           0  read in
    real space projection operators read in
  non local Contribution for L=           1  read in
    real space projection operators read in
  non local Contribution for L=           1  read in
    real space projection operators read in
    PAW grid and wavefunctions read in
 
   number of l-projection  operators is LMAX  =           4
   number of lm-projection operators is LMMAX =           8
 
 POTCAR:    PAW_PBE O 08Apr2002                   
   SHA256 =  818f92134a0a090dccd8ba1447fa70422a3b330e708bb4f08108d8ae51209ddf O/POTCAR              
   COPYR  = (c) Copyright 08Apr2002 Georg Kresse                                                    
   COPYR  = This file is part of the software VASP. Any use, copying, and all other rights are regul
   COPYR  = If you do not have a valid VASP license, you may not use, copy or distribute this file. 
   VRHFIN =O: s2p4                                                                                  
   LEXCH  = PE                                                                                      
   EATOM  =   432.3788 eV,   31.7789 Ry                                                             
                                                                                                    
   TITEL  = PAW_PBE O 08Apr2002                                                                     
   LULTRA =        F    use ultrasoft PP ?                                                          
   IUNSCR =        1    unscreen: 0-lin 1-nonlin 2-no                                               
   RPACOR =    1.200    partial core radius                                                         
   POMASS =   16.000; ZVAL   =    6.000    mass and valenz                                          
   RCORE  =    1.520    outmost cutoff radius                                                       
   RWIGS  =    1.550; RWIGS  =    0.820    wigner-seitz radius (au A)                               
   ENMAX  =  400.000; ENMIN  =  300.000 eV                                                          
   ICORE  =        2    local potential                                                             
   LCOR   =        T    correct aug charges                                                         
   LPAW   =        T    paw PP                                                                      
   EAUG   =  605.392                                                                                
   DEXC   =    0.000                                                                                
   RMAX   =    1.553    core radius for proj-oper                                                   
   RAUG   =    1.300    factor for augmentation sphere                                              
   RDEP   =    1.550    radius for radial grids                                                     
   RDEPT  =    1.329    core radius for aug-charge                                                  
                                                                                                    
   Atomic configuration                                                                             
    4 entries                                                                                       
     n  l   j            E        occ.                                                              
     1  0  0.50      -514.6923   2.0000                                                             
     2  0  0.50       -23.9615   2.0000                                                             
     2  1  0.50        -9.0305   4.0000                                                             
     3  2  1.50        -9.5241   0.0000                                                             
   Description                                                                                      
     l       E           TYP  RCUT    TYP  RCUT                                                     
     0    -23.9615318     23  1.200                                                                 
     0     -9.5240782     23  1.200                                                                 
     1     -9.0304911     23  1.520                                                                 
     1      8.1634956     23  1.520                                                                 
     2     -9.5240782      7  1.500                                                                 
  local pseudopotential read in
  partial core-charges read in
  partial kinetic energy density read in
  kinetic energy density of atom read in
  atomic valenz-charges read in
  non local Contribution for L=           0  read in
    real space projection operators read in
  non local Contribution for L=           0  read in
    real space projection operators read in
  non local Contribution for L=           1  read in
    real space projection operators read in
  non local Contribution for L=           1  read in
    real space projection operators read in
    PAW grid and wavefunctions read in
 
   number of l-projection  operators is LMAX  =           4
   number of lm-projection operators is LMMAX =           8
 
 POTCAR:    PAW_PBE H 15Jun2001                   
   SHA256 =  030f79b5d3ab3cf0e668861823c8fb652ff669f3e15e46930bd03bfd63a607b6 H/POTCAR              
   COPYR  = (c) Copyright 15Jun2001 Georg Kresse                                                    
   COPYR  = This file is part of the software VASP. Any use, copying, and all other rights are regul
   COPYR  = If you do not have a valid VASP license, you may not use, copy or distribute this file. 
   VRHFIN =H: ultrasoft test                                                                        
   LEXCH  = PE                                                                                      
   EATOM  =    12.4884 eV,    0.9179 Ry                                                             
                                                                                                    
   TITEL  = PAW_PBE H 15Jun2001                                                                     
   LULTRA =        F    use ultrasoft PP ?                                                          
   IUNSCR =        0    unscreen: 0-lin 1-nonlin 2-no                                               
   RPACOR =    0.000    partial core radius                                                         
   POMASS =    1.000; ZVAL   =    1.000    mass and valenz                                          
   RCORE  =    1.100    outmost cutoff radius                                                       
   RWIGS  =    0.700; RWIGS  =    0.370    wigner-seitz radius (au A)                               
   ENMAX  =  250.000; ENMIN  =  200.000 eV                                                          
   RCLOC  =    0.701    cutoff for local pot                                                        
   LCOR   =        T    correct aug charges                                                         
   LPAW   =        T    paw PP                                                                      
   EAUG   =  400.000                                                                                
   RMAX   =    1.123    core radius for proj-oper                                                   
   RAUG   =    1.200    factor for augmentation sphere                                              
   RDEP   =    1.112    radius for radial grids                                                     
   RDEPT  =    0.926    core radius for aug-charge                                                  
                                                                                                    
   Atomic configuration                                                                             
    2 entries                                                                                       
     n  l   j            E        occ.                                                              
     1  0  0.50        -6.4927   1.0000                                                             
     2  1  0.50        -3.4015   0.0000                                                             
   Description                                                                                      
     l       E           TYP  RCUT    TYP  RCUT                                                     
     0     -6.4927494     23  1.100                                                                 
     0      6.8029130     23  1.100                                                                 
     1     -4.0817478     23  1.100                                                                 
  local pseudopotential read in
  atomic valenz-charges read in
  non local Contribution for L=           0  read in
    real space projection operators read in
  non local Contribution for L=           0  read in
    real space projection operators read in
  non local Contribution for L=           1  read in
    real space projection operators read in
    PAW grid and wavefunctions read in
 
   number of l-projection  operators is LMAX  =           3
   number of lm-projection operators is LMMAX =           5
 
 Optimization of the real space projectors (new method)

 maximal supplied QI-value         = 25.13
 optimisation between [QCUT,QGAM] = [ 11.31, 22.87] = [ 35.82,146.48] Ry 
 Optimized for a Real-space Cutoff    1.03 Angstroem

   l    n(q)    QCUT    max X(q) W(low)/X(q) W(high)/X(q)  e(spline) 
   0      7    11.310   115.676    0.20E-03    0.90E-03    0.20E-06
   0      7    11.310    87.132    0.20E-03    0.89E-03    0.19E-06
   1      6    11.310     4.429    0.16E-03    0.28E-03    0.12E-06
   1      6    11.310     2.733    0.12E-03    0.21E-03    0.99E-07
 Optimization of the real space projectors (new method)

 maximal supplied QI-value         = 19.84
 optimisation between [QCUT,QGAM] = [ 11.31, 22.82] = [ 35.82,145.81] Ry 
 Optimized for a Real-space Cutoff    1.20 Angstroem

   l    n(q)    QCUT    max X(q) W(low)/X(q) W(high)/X(q)  e(spline) 
   0      8    11.310   168.010    0.15E-03    0.18E-03    0.47E-07
   0      8    11.310   164.674    0.14E-03    0.17E-03    0.46E-07
   1      8    11.310    69.222    0.18E-03    0.20E-03    0.94E-07
   1      8    11.310    56.786    0.17E-03    0.19E-03    0.92E-07
 Optimization of the real space projectors (new method)

 maximal supplied QI-value         = 24.76
 optimisation between [QCUT,QGAM] = [ 11.39, 22.77] = [ 36.31,145.25] Ry 
 Optimized for a Real-space Cutoff    1.10 Angstroem

   l    n(q)    QCUT    max X(q) W(low)/X(q) W(high)/X(q)  e(spline) 
   0      7    11.387    20.381    0.22E-03    0.48E-03    0.18E-06
   0      7    11.387    15.268    0.22E-03    0.52E-03    0.19E-06
   1      7    11.387     5.964    0.22E-03    0.73E-03    0.24E-06
   1      7    11.387     5.382    0.19E-03    0.60E-03    0.21E-06
 Optimization of the real space projectors (new method)

 maximal supplied QI-value         = 34.20
 optimisation between [QCUT,QGAM] = [ 11.29, 22.57] = [ 35.68,142.71] Ry 
 Optimized for a Real-space Cutoff    1.20 Angstroem

   l    n(q)    QCUT    max X(q) W(low)/X(q) W(high)/X(q)  e(spline) 
   0      8    11.287    19.460    0.22E-03    0.50E-03    0.19E-06
   0      8    11.287    12.209    0.21E-03    0.48E-03    0.18E-06
   1      8    11.287     4.655    0.21E-03    0.11E-04    0.26E-06
  PAW_PBE C 08Apr2002                   :
 energy of atom  1       EATOM= -147.1560
 kinetic energy error for atom=    0.0076 (will be added to EATOM!!)
  PAW_PBE Cl 06Sep2000                  :
 energy of atom  2       EATOM= -409.7259
 kinetic energy error for atom=    0.0030 (will be added to EATOM!!)
  PAW_PBE O 08Apr2002                   :
 energy of atom  3       EATOM= -432.3788
 kinetic energy error for atom=    0.0224 (will be added to EATOM!!)
  PAW_PBE H 15Jun2001                   :
 energy of atom  4       EATOM=  -12.4884
 kinetic energy error for atom=    0.0020 (will be added to EATOM!!)
 
 
 POSCAR: C Cl O H
  positions in direct lattice
  velocities in cartesian coordinates
 exchange correlation table for  LEXCH =        8
   RHO(1)=    0.500       N(1)  =     2000
   RHO(2)=  100.500       N(2)  =     4000
 
 POSCAR: C Cl O H
  positions in direct lattice
  velocities in cartesian coordinates
 
 POSCAR: C Cl O H
  positions in direct lattice
  velocities in cartesian coordinates
 


--------------------------------------------------------------------------------------------------------


 ion  position               nearest neighbor table
   1  0.510  0.523  0.500-  17 1.09   2 1.39   6 1.44
   2  0.544  0.524  0.500-  16 1.09   1 1.39   3 1.41
   3  0.562  0.494  0.500-   4 1.41   2 1.41   9 1.75
   4  0.545  0.463  0.500-  15 1.09   5 1.39   3 1.41
   5  0.511  0.462  0.500-  14 1.09   4 1.39   6 1.44
   6  0.491  0.493  0.500-   7 1.44   1 1.44   5 1.44
   7  0.455  0.491  0.500-  10 1.29   6 1.44   8 1.52
   8  0.435  0.524  0.500-  13 1.10  12 1.10  11 1.10   7 1.52
   9  0.606  0.494  0.500-   3 1.75
  10  0.439  0.463  0.500-   7 1.29
  11  0.441  0.539  0.522-   8 1.10
  12  0.441  0.539  0.478-   8 1.10
  13  0.409  0.518  0.500-   8 1.10
  14  0.497  0.439  0.500-   5 1.09
  15  0.559  0.439  0.500-   4 1.09
  16  0.558  0.548  0.500-   2 1.09
  17  0.497  0.547  0.500-   1 1.09
 
  LATTYP: Found a simple cubic cell.
 ALAT       =    40.0000000000
  
  Lattice vectors:
  
 A1 = (  40.0000000000,   0.0000000000,   0.0000000000)
 A2 = (   0.0000000000,  40.0000000000,   0.0000000000)
 A3 = (   0.0000000000,   0.0000000000,  40.0000000000)


Analysis of symmetry for initial positions (statically):
=====================================================================
 Subroutine PRICEL returns:
 Original cell was already a primitive cell.
 

 Routine SETGRP: Setting up the symmetry group for a 
 simple cubic supercell.


 Subroutine GETGRP returns: Found  1 space group operations
 (whereof  1 operations were pure point group operations)
 out of a pool of 48 trial point group operations.


The static configuration has the point symmetry C_1 .


Analysis of symmetry for dynamics (positions and initial velocities):
=====================================================================
 Subroutine PRICEL returns:
 Original cell was already a primitive cell.
 

 Routine SETGRP: Setting up the symmetry group for a 
 simple cubic supercell.


 Subroutine GETGRP returns: Found  1 space group operations
 (whereof  1 operations were pure point group operations)
 out of a pool of 48 trial point group operations.


The dynamic configuration has the point symmetry C_1 .


Analysis of constrained symmetry for selective dynamics:
=====================================================================
 Subroutine PRICEL returns:
 Original cell was already a primitive cell.
 

 Routine SETGRP: Setting up the symmetry group for a 
 simple cubic supercell.


 Subroutine GETGRP returns: Found  1 space group operations
 (whereof  1 operations were pure point group operations)
 out of a pool of 48 trial point group operations.


The constrained configuration has the point symmetry C_1 .


Analysis of structural, dynamic, and magnetic symmetry:
=====================================================================
 Subroutine PRICEL returns:
 Original cell was already a primitive cell.
 

 Routine SETGRP: Setting up the symmetry group for a 
 simple cubic supercell.


 Subroutine GETGRP returns: Found  1 space group operations
 (whereof  1 operations were pure point group operations)
 out of a pool of 48 trial point group operations.


The overall configuration has the point symmetry C_1 .


 Subroutine INISYM returns: Found  1 space group operations
 (whereof  1 operations are pure point group operations),
 and found     1 'primitive' translations


----------------------------------------------------------------------------------------

                                     Primitive cell                                     

  volume of cell :   64000.0000

  direct lattice vectors                    reciprocal lattice vectors
    40.000000000  0.000000000  0.000000000     0.025000000  0.000000000  0.000000000
     0.000000000 40.000000000  0.000000000     0.000000000  0.025000000  0.000000000
     0.000000000  0.000000000 40.000000000     0.000000000  0.000000000  0.025000000

  length of vectors
    40.000000000 40.000000000 40.000000000     0.025000000  0.025000000  0.025000000

  position of ions in fractional coordinates (direct lattice)
     0.509663017  0.523323272  0.500014904
     0.544361546  0.523823673  0.500006187
     0.562361095  0.493521853  0.499995515
     0.545187007  0.462753328  0.499995620
     0.510539918  0.462344447  0.500002279
     0.491051474  0.492586822  0.500006531
     0.455155915  0.491169396  0.500005140
     0.435427698  0.523741228  0.499988646
     0.606169761  0.494101264  0.499984867
     0.438927596  0.463294514  0.500012009
     0.440877063  0.539355007  0.522089429
     0.440906072  0.539348847  0.477891586
     0.408617612  0.517927732  0.499972968
     0.497249837  0.438530140  0.500003727
     0.559225265  0.439345933  0.499991204
     0.557759762  0.547596088  0.500016462
     0.496518362  0.547238455  0.500023926

  ion indices of the primitive-cell ions
   primitive index   ion index
                 1           1
                 2           2
                 3           3
                 4           4
                 5           5
                 6           6
                 7           7
                 8           8
                 9           9
                10          10
                11          11
                12          12
                13          13
                14          14
                15          15
                16          16
                17          17

----------------------------------------------------------------------------------------

 
 
 KPOINTS: K-Point Grid                            

Automatic generation of k-mesh.
 Grid dimensions read from file:
 generate k-points for:    1    1    1

 Generating k-lattice:

  Cartesian coordinates                     Fractional coordinates (reciprocal lattice)
     0.025000000  0.000000000  0.000000000     1.000000000  0.000000000  0.000000000
     0.000000000  0.025000000  0.000000000     0.000000000  1.000000000  0.000000000
     0.000000000  0.000000000  0.025000000     0.000000000  0.000000000  1.000000000

  Length of vectors
     0.025000000  0.025000000  0.025000000

  Shift w.r.t. Gamma in fractional coordinates (k-lattice)
     0.000000000  0.000000000  0.000000000

 
 Subroutine IBZKPT returns following result:
 ===========================================
 
 Found      1 irreducible k-points:
 
 Following reciprocal coordinates:
            Coordinates               Weight
  0.000000  0.000000  0.000000      1.000000
 
 Following cartesian coordinates:
            Coordinates               Weight
  0.000000  0.000000  0.000000      1.000000
 


--------------------------------------------------------------------------------------------------------




 Dimension of arrays:
   k-points           NKPTS =      1   k-points in BZ     NKDIM =      1   number of bands    NBANDS=     48
   number of dos      NEDOS =    301   number of ions     NIONS =     17
   non local maximal  LDIM  =      4   non local SUM 2l+1 LMDIM =      8
   total plane-waves  NPLWV = ******
   max r-space proj   IRMAX =   2915   max aug-charges    IRDMAX=  11613
   dimension x,y,z NGX =   294 NGY =  294 NGZ =  294
   dimension x,y,z NGXF=   588 NGYF=  588 NGZF=  588
   support grid    NGXF=   588 NGYF=  588 NGZF=  588
   ions per type =               8   1   1   7
   NGX,Y,Z   is equivalent  to a cutoff of  12.22, 12.22, 12.22 a.u.
   NGXF,Y,Z  is equivalent  to a cutoff of  24.44, 24.44, 24.44 a.u.

 SYSTEM =  103_red                                 
 POSCAR =  C Cl O H                                

 Startparameter for this run:
   NWRITE =      2    write-flag & timer
   PREC   = accura    normal or accurate (medium, high low for compatibility)
   ISTART =      1    job   : 0-new  1-cont  2-samecut
   ICHARG =      2    charge: 1-file 2-atom 10-const
   ISPIN  =      2    spin polarized calculation?
   LNONCOLLINEAR =      F non collinear calculations
   LSORBIT =      F    spin-orbit coupling
   INIWAV =      1    electr: 0-lowe 1-rand  2-diag
   LASPH  =      F    aspherical Exc in radial PAW
 Electronic Relaxation 1
   ENCUT  =  500.0 eV  36.75 Ry    6.06 a.u.  72.93 72.93 72.93*2*pi/ulx,y,z
   ENINI  =  500.0     initial cutoff
   ENAUG  =  644.9 eV  augmentation charge cutoff
   NELM   =    100;   NELMIN=  2; NELMDL=  0     # of ELM steps 
   EDIFF  = 0.1E-04   stopping-criterion for ELM
   LREAL  =      T    real-space projection
   NLSPLINE    = F    spline interpolate recip. space projectors
   LCOMPAT=      F    compatible to vasp.4.4
   GGA_COMPAT  = T    GGA compatible to vasp.4.4-vasp.4.6
   LMAXPAW     = -100 max onsite density
   LMAXMIX     =    2 max onsite mixed and CHGCAR
   VOSKOWN=      0    Vosko Wilk Nusair interpolation
   ROPT   =   -0.00025  -0.00025  -0.00025  -0.00025
 Ionic relaxation
   EDIFFG = -.2E-01   stopping-criterion for IOM
   NSW    =    500    number of steps for IOM
   NBLOCK =      1;   KBLOCK =    500    inner block; outer block 
   IBRION =      2    ionic relax: 0-MD 1-quasi-New 2-CG
   NFREE  =      1    steps in history (QN), initial steepest desc. (CG)
   ISIF   =      2    stress and relaxation
   IWAVPR =     11    prediction:  0-non 1-charg 2-wave 3-comb
   ISYM   =      2    0-nonsym 1-usesym 2-fastsym
   LCORR  =      T    Harris-Foulkes like correction to forces

   POTIM  = 0.5000    time-step for ionic-motion
   TEIN   =    0.0    initial temperature
   TEBEG  =    0.0;   TEEND  =   0.0 temperature during run
   SMASS  =  -3.00    Nose mass-parameter (am)
   estimated Nose-frequenzy (Omega)   =  0.10E-29 period in steps = 0.13E+47 mass=  -0.366E-25a.u.
   SCALEE = 1.0000    scale energy and forces
   NPACO  =    256;   APACO  = 10.0  distance and # of slots for P.C.
   PSTRESS=    0.0 pullay stress

  Mass of Ions in am
   POMASS =  12.01 35.45 16.00  1.00
  Ionic Valenz
   ZVAL   =   4.00  7.00  6.00  1.00
  Atomic Wigner-Seitz radii
   RWIGS  =  -1.00 -1.00 -1.00 -1.00
  virtual crystal weights 
   VCA    =   1.00  1.00  1.00  1.00
   NELECT =      53.0000    total number of electrons
   NUPDOWN=      -1.0000    fix difference up-down

 DOS related values:
   EMIN   =  10.00;   EMAX   =-10.00  energy-range for DOS
   EFERMI =   0.00
   ISMEAR =     0;   SIGMA  =   0.05  broadening in eV -4-tet -1-fermi 0-gaus

 Electronic relaxation 2 (details)
   IALGO  =     68    algorithm
   LDIAG  =      T    sub-space diagonalisation (order eigenvalues)
   LSUBROT=      F    optimize rotation matrix (better conditioning)
   TURBO    =      0    0=normal 1=particle mesh
   IRESTART =      0    0=no restart 2=restart with 2 vectors
   NREBOOT  =      0    no. of reboots
   NMIN     =      0    reboot dimension
   EREF     =   0.00    reference energy to select bands
   IMIX   =      4    mixing-type and parameters
     AMIX     =   0.40;   BMIX     =  1.00
     AMIX_MAG =   1.60;   BMIX_MAG =  1.00
     AMIN     =   0.10
     WC   =   100.;   INIMIX=   1;  MIXPRE=   1;  MAXMIX= -45

 Intra band minimization:
   WEIMIN = 0.0010     energy-eigenvalue tresh-hold
   EBREAK =  0.52E-07  absolut break condition
   DEPER  =   0.30     relativ break condition  

   TIME   =   0.40     timestep for ELM

  volume/ion in A,a.u.               =    3764.71     25405.49
  Fermi-wavevector in a.u.,A,eV,Ry     =   0.153735  0.290518  0.321567  0.023635
  Thomas-Fermi vector in A             =   0.836066
 
 Write flags
   LWAVE        =      T    write WAVECAR
   LDOWNSAMPLE  =      F    k-point downsampling of WAVECAR
   LCHARG       =      F    write CHGCAR
   LVTOT        =      F    write LOCPOT, total local potential
   LVHAR        =      F    write LOCPOT, Hartree potential only
   LELF         =      F    write electronic localiz. function (ELF)
   LORBIT       =      0    0 simple, 1 ext, 2 COOP (PROOUT), +10 PAW based schemes


 Dipole corrections
   LMONO  =      F    monopole corrections only (constant potential shift)
   LDIPOL =      F    correct potential (dipole corrections)
   IDIPOL =      0    1-x, 2-y, 3-z, 4-all directions 
   EPSILON=  1.0000000 bulk dielectric constant

 Exchange correlation treatment:
   GGA     =    --    GGA type
   LEXCH   =     8    internal setting for exchange type
   LIBXC   =     F    Libxc                    
   VOSKOWN =     0    Vosko Wilk Nusair interpolation
   LHFCALC =     F    Hartree Fock is set to
   LHFONE  =     F    Hartree Fock one center treatment
   AEXX    =    0.0000 exact exchange contribution

 Linear response parameters
   LEPSILON=     F    determine dielectric tensor
   LRPA    =     F    only Hartree local field effects (RPA)
   LNABLA  =     F    use nabla operator in PAW spheres
   LVEL    =     F    velocity operator in full k-point grid
   CSHIFT  =0.1000    complex shift for real part using Kramers Kronig
   OMEGAMAX=  -1.0    maximum frequency
   DEG_THRESHOLD= 0.2000000E-02 threshold for treating states as degnerate
   RTIME   =   -0.100 relaxation time in fs
  (WPLASMAI=    0.000 imaginary part of plasma frequency in eV, 0.658/RTIME)
   DFIELD  = 0.0000000 0.0000000 0.0000000 field for delta impulse in time
 
  Optional k-point grid parameters
   LKPOINTS_OPT  =     F    use optional k-point grid
   KPOINTS_OPT_MODE=     1    mode for optional k-point grid
 
 Orbital magnetization related:
   ORBITALMAG=     F  switch on orbital magnetization
   LCHIMAG   =     F  perturbation theory with respect to B field
   DQ        =  0.001000  dq finite difference perturbation B field
   LLRAUG    =     F  two centre corrections for induced B field

 Solvation model:
   LSOL             =     T         switch on solvation model
   LSOL_SCF         =     T         include solvation in SCF
   ISOL             =     2         solvation model type
   EFERMI_ref       =  0.000000         reference Fermi level
   capacitance_init =  1.000000         initial capacitance
 Nonlinear solvation model:
   LNLDIEL     =     T         switch on non-linear dielectric mode
   LNLION      =     T         switch on non-linear ionic mode
   LNLTEST     =     F         test non-linear model in linear regime
   I_NLOC_SOL  =     1         type of nonlocal dielectric response
   NC_K        =  0.015000     cutoff charge density for cavities (1/Angstrom**3)
   TAU         =  0.000879     cavity formation energy (eV/Angstrom**2)
   SIGMA_K     =  0.600000     cavity width
   A_K         =  0.125000     smoothing length (Angstrom)
   R_SOLV      =  2.190000     solvent radius (Angstrom)
   R_CAV       =  0.000000     cavity radius (Angstrom)
   R_DIEL      =  1.000000     dielectric radius (Angstrom)
   R_ION       =  0.000000     ionic radius (Angstrom)
   R_B         =  0.000000     bound charge radius (Angstrom)
   SOLTEMP     =298.000000     solvent temperature (K)
   EB_K        = 35.688000     relative permittivity of the bulk solvent
   EPSILON_INF =  1.806900     optical relative permittivity of bulk solvent
   N_MOL       =  0.011500     molar density of solvent (1/Angstrom**3)
   P_MOL       =  0.820000     solvent dipole moment (e*Angstrom)
   C_MOLAR     =  0.000000     electrolyte concentration (mol/L)
   LAMBDA_D_K  =  0.000000     Debye length (Angstrom)
   ZION        =  1.000000     charge of ions in electrolyte (e)
   D_ION       = -1.000000     minimum ion packing diameter (Angstrom)



--------------------------------------------------------------------------------------------------------


 conjugate gradient relaxation of ions
   using selective dynamics as specified on POSCAR
 charge density and potential will be updated during run
 spin polarized calculation
 RMM-DIIS sequential band-by-band and
  variant of blocked Davidson during initial phase
 perform sub-space diagonalisation
    before iterative eigenvector-optimisation
 modified Broyden-mixing scheme, WC =      100.0
 initial mixing is a Kerker type mixing with AMIX =  0.4000 and BMIX =      1.0000
 Hartree-type preconditioning will be used
 using additional bands           21
 real space projection scheme for non local part
 use partial core corrections
 calculate Harris-corrections to forces 
   (improved forces if not selfconsistent)
 use gradient corrections 
 use of overlap-Matrix (Vanderbilt PP)
 Gauss-broadening in eV      SIGMA  =   0.05


--------------------------------------------------------------------------------------------------------


  energy-cutoff  :      500.00
  volume of cell :    64000.00
      direct lattice vectors                 reciprocal lattice vectors
    40.000000000  0.000000000  0.000000000     0.025000000  0.000000000  0.000000000
     0.000000000 40.000000000  0.000000000     0.000000000  0.025000000  0.000000000
     0.000000000  0.000000000 40.000000000     0.000000000  0.000000000  0.025000000

  length of vectors
    40.000000000 40.000000000 40.000000000     0.025000000  0.025000000  0.025000000


 
 old parameters found on file WAVECAR:
  energy-cutoff  :      500.00
  volume of cell :    64000.00
      direct lattice vectors                 reciprocal lattice vectors
    40.000000000  0.000000000  0.000000000     0.025000000  0.000000000  0.000000000
     0.000000000 40.000000000  0.000000000     0.000000000  0.025000000  0.000000000
     0.000000000  0.000000000 40.000000000     0.000000000  0.000000000  0.025000000

  length of vectors

 
 k-points in units of 2pi/SCALE and weight: K-Point Grid                            
   0.00000000  0.00000000  0.00000000       1.000
 
 k-points in reciprocal lattice and weights: K-Point Grid                            
   0.00000000  0.00000000  0.00000000       1.000
 
 position of ions in fractional coordinates (direct lattice) 
   0.50966302  0.52332327  0.50001490
   0.54436155  0.52382367  0.50000619
   0.56236110  0.49352185  0.49999551
   0.54518701  0.46275333  0.49999562
   0.51053992  0.46234445  0.50000228
   0.49105147  0.49258682  0.50000653
   0.45515591  0.49116940  0.50000514
   0.43542770  0.52374123  0.49998865
   0.60616976  0.49410126  0.49998487
   0.43892760  0.46329451  0.50001201
   0.44087706  0.53935501  0.52208943
   0.44090607  0.53934885  0.47789159
   0.40861761  0.51792773  0.49997297
   0.49724984  0.43853014  0.50000373
   0.55922526  0.43934593  0.49999120
   0.55775976  0.54759609  0.50001646
   0.49651836  0.54723846  0.50002393
 
 position of ions in cartesian coordinates  (Angst):
  20.38652067 20.93293089 20.00059617
  21.77446183 20.95294692 20.00024750
  22.49444381 19.74087414 19.99982059
  21.80748026 18.51013313 19.99982479
  20.42159674 18.49377790 20.00009118
  19.64205894 19.70347288 20.00026125
  18.20623660 19.64677582 20.00020561
  17.41710793 20.94964912 19.99954582
  24.24679044 19.76405054 19.99939468
  17.55710382 18.53178056 20.00048035
  17.63508252 21.57420028 20.88357714
  17.63624289 21.57395389 19.11566342
  16.34470449 20.71710929 19.99891872
  19.88999349 17.54120560 20.00014909
  22.36901060 17.57383731 19.99964816
  22.31039048 21.90384354 20.00065849
  19.86073449 21.88953821 20.00095705
 


--------------------------------------------------------------------------------------------------------


 k-point   1 :   0.0000 0.0000 0.0000  plane waves: 1624525

 maximum and minimum number of plane-waves per node :    162473   162437

 maximum number of plane-waves:   1624525
 maximum index in each direction: 
   IXMAX=   72   IYMAX=   72   IZMAX=   72
   IXMIN=  -72   IYMIN=  -72   IZMIN=  -72


 real space projection operators:
  total allocation   :       1963.73 KBytes
  max/ min on nodes  :        206.23        188.09


 parallel 3D FFT for wavefunctions:
    minimum data exchange during FFTs selected (reduces bandwidth)
 parallel 3D FFT for charge:
    minimum data exchange during FFTs selected (reduces bandwidth)


 total amount of memory used by VASP MPI-rank0   703991. kBytes
=======================================================================

   base      :      30000. kBytes
   nonlr-proj:       1079. kBytes
   fftplans  :     167689. kBytes
   grid      :     474012. kBytes
   one-center:         12. kBytes
   wavefun   :      31199. kBytes
 
     INWAV:  cpu time      8.7445: real time      8.7642
 Broyden mixing: mesh for mixing (old mesh)
   NGX =145   NGY =145   NGZ =145
  (NGX  =588   NGY  =588   NGZ  =588)
  gives a total of ****** points

 initial charge density was supplied:
 charge density of overlapping atoms calculated
 number of electron      52.0000000 magnetization      17.0000000
 keeping initial charge density in first step


--------------------------------------------------------------------------------------------------------


 Maximum index for non-local projection operator          320
 Maximum index for augmentation-charges          335 (set IRDMAX)


--------------------------------------------------------------------------------------------------------


 First call to EWALD:  gamma=   0.044
 Maximum number of real-space cells 3x 3x 3
 Maximum number of reciprocal cells 3x 3x 3

    FEWALD:  cpu time      0.0015: real time      0.0015


--------------------------------------- Iteration      1(   1)  ---------------------------------------


    POTLOK:  cpu time      5.6407: real time      5.6500
    SETDIJ:  cpu time      0.0985: real time      0.0981
     EDDAV:  cpu time     14.9119: real time     14.9419
       DOS:  cpu time      0.0212: real time      0.0213
    CHARGE:  cpu time      1.6554: real time      1.6582
    MIXING:  cpu time      0.2255: real time      0.2256
    --------------------------------------------
      LOOP:  cpu time     22.5532: real time     22.5952

 eigenvalue-minimisations  :   248
 total energy-change (2. order) :-0.1070052E+03  (-0.9188531E+01)
 number of electron      52.9999998 magnetization      16.3835555
 augmentation part        0.8025410 magnetization      15.4863531

 Broyden mixing:
  rms(total) = 0.28162E+01    rms(broyden)= 0.28159E+01
  rms(prec ) = 0.28504E+01
  weight for this iteration     100.00

 Free energy of the ion-electron system (eV)
  ---------------------------------------------------
  alpha Z        PSCENC =         0.19067513
  Ewald energy   TEWEN  =      5117.86831832
  -Hartree energ DENC   =     -6633.66296572
  -exchange      EXHF   =         0.00000000
  -V(xc)+E(xc)   XCENC  =       171.15653699
  PAW double counting   =      1551.30687014    -1557.75428063
  entropy T*S    EENTRO =        -0.00000000
  eigenvalues    EBANDS =      -862.78208450
  atomic energy  EATOM  =      2106.67170235
  Solvation  Ecorr_sol  =         0.00000000
  ---------------------------------------------------
  free energy    TOTEN  =      -107.00522791 eV

  energy without entropy =     -107.00522791  energy(sigma->0) =     -107.00522791


--------------------------------------------------------------------------------------------------------




--------------------------------------- Iteration      1(   2)  ---------------------------------------


    --------------------------------------------
      INIT:  cpu time      0.2724: real time      0.2729
  FINALIZE:  cpu time     33.4670: real time     33.5210
    --------------------------------------------
    POTLOK:  cpu time     39.3734: real time     39.4451
    SETDIJ:  cpu time      0.0586: real time      0.0587
    EDDIAG:  cpu time      2.8375: real time      2.8421
  RMM-DIIS:  cpu time     11.9226: real time     11.9495
    ORTHCH:  cpu time      0.3781: real time      0.3790
       DOS:  cpu time      0.0005: real time      0.0005
    CHARGE:  cpu time      1.6308: real time      1.6342
    MIXING:  cpu time      0.1787: real time      0.1788
    --------------------------------------------
      LOOP:  cpu time     56.3803: real time     56.4879

 eigenvalue-minimisations  :   192
 total energy-change (2. order) : 0.4938723E+02  (-0.8684158E+01)
 number of electron      52.9999997 magnetization      15.6893201
 augmentation part        0.7296576 magnetization      14.7158072

 Broyden mixing:
  rms(total) = 0.13402E+01    rms(broyden)= 0.13402E+01
  rms(prec ) = 0.13693E+01
  weight for this iteration     100.00

 eigenvalues of (default mixing * dielectric matrix)
  average eigenvalue GAMMA=   0.9749
  0.9749

 Free energy of the ion-electron system (eV)
  ---------------------------------------------------
  alpha Z        PSCENC =         0.19067513
  Ewald energy   TEWEN  =      5117.86831832
  -Hartree energ DENC   =     -6759.62594751
  -exchange      EXHF   =         0.00000000
  -V(xc)+E(xc)   XCENC  =       213.06343888
  PAW double counting   =      2517.05931271    -2524.63757604
  entropy T*S    EENTRO =        -0.00000000
  eigenvalues    EBANDS =      -734.77411153
  atomic energy  EATOM  =      2106.67170235
  Solvation  Ecorr_sol  =         6.56618492
  ---------------------------------------------------
  free energy    TOTEN  =       -57.61800276 eV

  energy without entropy =      -57.61800276  energy(sigma->0) =      -57.61800276


--------------------------------------------------------------------------------------------------------




--------------------------------------- Iteration      1(   3)  ---------------------------------------


    --------------------------------------------
      INIT:  cpu time      0.2524: real time      0.2523
  FINALIZE:  cpu time     41.1464: real time     41.1930
    --------------------------------------------
    POTLOK:  cpu time     47.0981: real time     47.1636
    SETDIJ:  cpu time      0.0564: real time      0.0565
    EDDIAG:  cpu time      2.8295: real time      2.8342
  RMM-DIIS:  cpu time     12.0499: real time     12.0741
    ORTHCH:  cpu time      0.3654: real time      0.3662
       DOS:  cpu time      0.0003: real time      0.0003
    CHARGE:  cpu time      1.6309: real time      1.6344
    MIXING:  cpu time      0.2006: real time      0.2001
    --------------------------------------------
      LOOP:  cpu time     64.2311: real time     64.3294

 eigenvalue-minimisations  :   192
 total energy-change (2. order) :-0.2607821E+02  (-0.3711380E+01)
 number of electron      52.9999997 magnetization      14.9943584
 augmentation part        0.6479779 magnetization      13.9918746

 Broyden mixing:
  rms(total) = 0.76584E+00    rms(broyden)= 0.76574E+00
  rms(prec ) = 0.78035E+00
  weight for this iteration     100.00

 eigenvalues of (default mixing * dielectric matrix)
  average eigenvalue GAMMA=   1.0888
  1.4049  0.7728

 Free energy of the ion-electron system (eV)
  ---------------------------------------------------
  alpha Z        PSCENC =         0.19067513
  Ewald energy   TEWEN  =      5117.86831832
  -Hartree energ DENC   =     -6863.60960975
  -exchange      EXHF   =         0.00000000
  -V(xc)+E(xc)   XCENC  =       195.24903184
  PAW double counting   =      3399.39409141    -3407.59155820
  entropy T*S    EENTRO =        -0.00000000
  eigenvalues    EBANDS =      -646.26319331
  atomic energy  EATOM  =      2106.67170235
  Solvation  Ecorr_sol  =        14.39433358
  ---------------------------------------------------
  free energy    TOTEN  =       -83.69620862 eV

  energy without entropy =      -83.69620862  energy(sigma->0) =      -83.69620862


--------------------------------------------------------------------------------------------------------




--------------------------------------- Iteration      1(   4)  ---------------------------------------


    --------------------------------------------
      INIT:  cpu time      0.2743: real time      0.2748
  FINALIZE:  cpu time     43.3729: real time     43.4472
    --------------------------------------------
    POTLOK:  cpu time     49.3546: real time     49.4751
    SETDIJ:  cpu time      0.0623: real time      0.0624
    EDDIAG:  cpu time      2.8303: real time      2.8361
  RMM-DIIS:  cpu time     11.3527: real time     11.3763
    ORTHCH:  cpu time      0.3732: real time      0.3741
       DOS:  cpu time      0.0004: real time      0.0004
    CHARGE:  cpu time      1.6283: real time      1.6320
    MIXING:  cpu time      0.1895: real time      0.1897
    --------------------------------------------
      LOOP:  cpu time     65.7914: real time     65.9462

 eigenvalue-minimisations  :   194
 total energy-change (2. order) :-0.5667336E+01  (-0.1375757E+01)
 number of electron      52.9999996 magnetization      14.3086530
 augmentation part        0.6168387 magnetization      13.3155497

 Broyden mixing:
  rms(total) = 0.55717E+00    rms(broyden)= 0.55711E+00
  rms(prec ) = 0.56746E+00
  weight for this iteration     100.00

 eigenvalues of (default mixing * dielectric matrix)
  average eigenvalue GAMMA=   1.0858
  1.3923  1.1854  0.6797

 Free energy of the ion-electron system (eV)
  ---------------------------------------------------
  alpha Z        PSCENC =         0.19067513
  Ewald energy   TEWEN  =      5117.86831832
  -Hartree energ DENC   =     -6921.81682983
  -exchange      EXHF   =         0.00000000
  -V(xc)+E(xc)   XCENC  =       193.18710929
  PAW double counting   =      3981.73478636    -3990.05696769
  entropy T*S    EENTRO =        -0.00000000
  eigenvalues    EBANDS =      -601.25629019
  atomic energy  EATOM  =      2106.67170235
  Solvation  Ecorr_sol  =        24.11395114
  ---------------------------------------------------
  free energy    TOTEN  =       -89.36354511 eV

  energy without entropy =      -89.36354511  energy(sigma->0) =      -89.36354511


--------------------------------------------------------------------------------------------------------




--------------------------------------- Iteration      1(   5)  ---------------------------------------


    --------------------------------------------
      INIT:  cpu time      0.2477: real time      0.2480
  FINALIZE:  cpu time     43.3859: real time     43.4336
    --------------------------------------------
    POTLOK:  cpu time     49.3365: real time     49.4022
    SETDIJ:  cpu time      0.0582: real time      0.0583
    EDDIAG:  cpu time      2.8364: real time      2.8386
  RMM-DIIS:  cpu time     11.2809: real time     11.3043
    ORTHCH:  cpu time      0.3785: real time      0.3794
       DOS:  cpu time      0.0005: real time      0.0005
    CHARGE:  cpu time      1.6272: real time      1.6305
    MIXING:  cpu time      0.1946: real time      0.1941
    --------------------------------------------
      LOOP:  cpu time     65.7129: real time     65.8079

 eigenvalue-minimisations  :   193
 total energy-change (2. order) :-0.5037299E+01  (-0.3831227E+00)
 number of electron      52.9999996 magnetization      13.2607946
 augmentation part        0.6159465 magnetization      12.2809411

 Broyden mixing:
  rms(total) = 0.34745E+00    rms(broyden)= 0.34743E+00
  rms(prec ) = 0.35637E+00
  weight for this iteration     100.00

 eigenvalues of (default mixing * dielectric matrix)
  average eigenvalue GAMMA=   1.3056
  1.9276  1.8026  0.8352  0.6569

 Free energy of the ion-electron system (eV)
  ---------------------------------------------------
  alpha Z        PSCENC =         0.19067513
  Ewald energy   TEWEN  =      5117.86831832
  -Hartree energ DENC   =     -6943.02106037
  -exchange      EXHF   =         0.00000000
  -V(xc)+E(xc)   XCENC  =       189.77584520
  PAW double counting   =      4232.97305193    -4241.15123100
  entropy T*S    EENTRO =        -0.00000000
  eigenvalues    EBANDS =      -592.20861068
  atomic energy  EATOM  =      2106.67170235
  Solvation  Ecorr_sol  =        34.50046463
  ---------------------------------------------------
  free energy    TOTEN  =       -94.40084449 eV

  energy without entropy =      -94.40084449  energy(sigma->0) =      -94.40084449


--------------------------------------------------------------------------------------------------------




--------------------------------------- Iteration      1(   6)  ---------------------------------------


    --------------------------------------------
      INIT:  cpu time      0.2755: real time      0.2760
  FINALIZE:  cpu time     43.2773: real time     43.3267
    --------------------------------------------
    POTLOK:  cpu time     49.2567: real time     49.3243
    SETDIJ:  cpu time      0.0614: real time      0.0615
    EDDIAG:  cpu time      2.8413: real time      2.8465
  RMM-DIIS:  cpu time     11.6744: real time     11.7005
    ORTHCH:  cpu time      0.3725: real time      0.3733
       DOS:  cpu time      0.0010: real time      0.0010
    CHARGE:  cpu time      1.6295: real time      1.6336
    MIXING:  cpu time      0.2016: real time      0.2012
    --------------------------------------------
      LOOP:  cpu time     66.0383: real time     66.1419

 eigenvalue-minimisations  :   192
 total energy-change (2. order) :-0.6821685E+01  (-0.4475155E+00)
 number of electron      52.9999996 magnetization      12.7365909
 augmentation part        0.6126877 magnetization      11.7729792

 Broyden mixing:
  rms(total) = 0.19868E+00    rms(broyden)= 0.19866E+00
  rms(prec ) = 0.20606E+00
  weight for this iteration     100.00

 eigenvalues of (default mixing * dielectric matrix)
  average eigenvalue GAMMA=   1.2953
  2.3077  1.7245  0.9615  0.8450  0.6378

 Free energy of the ion-electron system (eV)
  ---------------------------------------------------
  alpha Z        PSCENC =         0.19067513
  Ewald energy   TEWEN  =      5117.86831832
  -Hartree energ DENC   =     -6973.09989903
  -exchange      EXHF   =         0.00000000
  -V(xc)+E(xc)   XCENC  =       185.20867002
  PAW double counting   =      4501.47871393    -4509.49302856
  entropy T*S    EENTRO =        -0.00000000
  eigenvalues    EBANDS =      -580.34157010
  atomic energy  EATOM  =      2106.67170235
  Solvation  Ecorr_sol  =        50.29388816
  ---------------------------------------------------
  free energy    TOTEN  =      -101.22252976 eV

  energy without entropy =     -101.22252976  energy(sigma->0) =     -101.22252976


--------------------------------------------------------------------------------------------------------




--------------------------------------- Iteration      1(   7)  ---------------------------------------


    --------------------------------------------
      INIT:  cpu time      0.2460: real time      0.2459
  FINALIZE:  cpu time     45.4977: real time     45.5400
    --------------------------------------------
    POTLOK:  cpu time     51.4532: real time     51.5104
    SETDIJ:  cpu time      0.0572: real time      0.0573
    EDDIAG:  cpu time      2.8492: real time      2.8518
  RMM-DIIS:  cpu time     11.4150: real time     11.4385
    ORTHCH:  cpu time      0.3715: real time      0.3724
       DOS:  cpu time      0.0025: real time      0.0025
    CHARGE:  cpu time      1.6192: real time      1.6226
    MIXING:  cpu time      0.1972: real time      0.1964
    --------------------------------------------
      LOOP:  cpu time     67.9650: real time     68.0518

 eigenvalue-minimisations  :   194
 total energy-change (2. order) :-0.1016667E+01  (-0.1386856E+00)
 number of electron      52.9999996 magnetization      11.9328936
 augmentation part        0.5962180 magnetization      10.9855753

 Broyden mixing:
  rms(total) = 0.17965E+00    rms(broyden)= 0.17963E+00
  rms(prec ) = 0.18571E+00
  weight for this iteration     100.00

 eigenvalues of (default mixing * dielectric matrix)
  average eigenvalue GAMMA=   1.1967
  2.1140  2.1140  0.8494  0.8494  0.6268  0.6268

 Free energy of the ion-electron system (eV)
  ---------------------------------------------------
  alpha Z        PSCENC =         0.19067513
  Ewald energy   TEWEN  =      5117.86831832
  -Hartree energ DENC   =     -6985.18229966
  -exchange      EXHF   =         0.00000000
  -V(xc)+E(xc)   XCENC  =       184.72379199
  PAW double counting   =      4507.97517481    -4515.98241960
  entropy T*S    EENTRO =        -0.00000000
  eigenvalues    EBANDS =      -576.25959166
  atomic energy  EATOM  =      2106.67170235
  Solvation  Ecorr_sol  =        57.75545117
  ---------------------------------------------------
  free energy    TOTEN  =      -102.23919713 eV

  energy without entropy =     -102.23919713  energy(sigma->0) =     -102.23919713


--------------------------------------------------------------------------------------------------------




--------------------------------------- Iteration      1(   8)  ---------------------------------------


    --------------------------------------------
      INIT:  cpu time      0.2633: real time      0.2632
  FINALIZE:  cpu time     47.6626: real time     47.7134
    --------------------------------------------
    POTLOK:  cpu time     53.6501: real time     53.7161
    SETDIJ:  cpu time      0.0575: real time      0.0575
    EDDIAG:  cpu time      2.8336: real time      2.8381
  RMM-DIIS:  cpu time     12.0011: real time     12.0258
    ORTHCH:  cpu time      0.3761: real time      0.3770
       DOS:  cpu time      0.0005: real time      0.0005
    CHARGE:  cpu time      1.6222: real time      1.6256
    MIXING:  cpu time      0.1943: real time      0.1938
    --------------------------------------------
      LOOP:  cpu time     70.7354: real time     70.8346

 eigenvalue-minimisations  :   193
 total energy-change (2. order) :-0.1055929E+01  (-0.5820089E-01)
 number of electron      52.9999996 magnetization      10.3857655
 augmentation part        0.5954891 magnetization       9.4480649

 Broyden mixing:
  rms(total) = 0.13346E+00    rms(broyden)= 0.13345E+00
  rms(prec ) = 0.13825E+00
  weight for this iteration     100.00

 eigenvalues of (default mixing * dielectric matrix)
  average eigenvalue GAMMA=   1.4634
  2.8798  2.8798  1.1778  1.1778  0.8781  0.6551  0.5955

 Free energy of the ion-electron system (eV)
  ---------------------------------------------------
  alpha Z        PSCENC =         0.19067513
  Ewald energy   TEWEN  =      5117.86831832
  -Hartree energ DENC   =     -6991.89595607
  -exchange      EXHF   =         0.00000000
  -V(xc)+E(xc)   XCENC  =       183.72818562
  PAW double counting   =      4423.68401668    -4431.60168411
  entropy T*S    EENTRO =        -0.00000000
  eigenvalues    EBANDS =      -580.03084119
  atomic energy  EATOM  =      2106.67170235
  Solvation  Ecorr_sol  =        68.09045741
  ---------------------------------------------------
  free energy    TOTEN  =      -103.29512585 eV

  energy without entropy =     -103.29512585  energy(sigma->0) =     -103.29512585


--------------------------------------------------------------------------------------------------------




--------------------------------------- Iteration      1(   9)  ---------------------------------------


    --------------------------------------------
      INIT:  cpu time      0.2655: real time      0.2656
  FINALIZE:  cpu time     45.4314: real time     45.4730
    --------------------------------------------
    POTLOK:  cpu time     51.4082: real time     51.4629
    SETDIJ:  cpu time      0.0632: real time      0.0633
    EDDIAG:  cpu time      2.8382: real time      2.8408
  RMM-DIIS:  cpu time     11.9931: real time     12.0180
    ORTHCH:  cpu time      0.3806: real time      0.3814
       DOS:  cpu time      0.0004: real time      0.0004
    CHARGE:  cpu time      1.6166: real time      1.6198
    MIXING:  cpu time      0.2079: real time      0.2071
    --------------------------------------------
      LOOP:  cpu time     68.5083: real time     68.5938

 eigenvalue-minimisations  :   199
 total energy-change (2. order) :-0.3935972E+00  (-0.1126912E+00)
 number of electron      52.9999995 magnetization       9.9984595
 augmentation part        0.5922889 magnetization       9.0713822

 Broyden mixing:
  rms(total) = 0.11098E+00    rms(broyden)= 0.11097E+00
  rms(prec ) = 0.11340E+00
  weight for this iteration     100.00

 eigenvalues of (default mixing * dielectric matrix)
  average eigenvalue GAMMA=   1.4265
  2.9867  2.9639  1.6072  0.8367  0.8367  0.7803  0.7803  0.6206

 Free energy of the ion-electron system (eV)
  ---------------------------------------------------
  alpha Z        PSCENC =         0.19067513
  Ewald energy   TEWEN  =      5117.86831832
  -Hartree energ DENC   =     -7011.91526173
  -exchange      EXHF   =         0.00000000
  -V(xc)+E(xc)   XCENC  =       183.62325479
  PAW double counting   =      4348.87359064    -4356.71200723
  entropy T*S    EENTRO =        -0.00000000
  eigenvalues    EBANDS =      -578.88930087
  atomic energy  EATOM  =      2106.67170235
  Solvation  Ecorr_sol  =        86.60030554
  ---------------------------------------------------
  free energy    TOTEN  =      -103.68872305 eV

  energy without entropy =     -103.68872305  energy(sigma->0) =     -103.68872305


--------------------------------------------------------------------------------------------------------




--------------------------------------- Iteration      1(  10)  ---------------------------------------


    --------------------------------------------
      INIT:  cpu time      0.2679: real time      0.2683
  FINALIZE:  cpu time     47.5736: real time     47.6188
    --------------------------------------------
    POTLOK:  cpu time     53.5601: real time     53.6198
    SETDIJ:  cpu time      0.0556: real time      0.0556
    EDDIAG:  cpu time      2.8455: real time      2.8491
  RMM-DIIS:  cpu time     11.6599: real time     11.6834
    ORTHCH:  cpu time      0.3788: real time      0.3797
       DOS:  cpu time      0.0004: real time      0.0004
    CHARGE:  cpu time      1.6169: real time      1.6203
    MIXING:  cpu time      0.2146: real time      0.2144
    --------------------------------------------
      LOOP:  cpu time     70.3317: real time     70.4227

 eigenvalue-minimisations  :   200
 total energy-change (2. order) :-0.6803487E+00  (-0.2011276E-01)
 number of electron      52.9999995 magnetization       9.0997041
 augmentation part        0.5863049 magnetization       8.1782658

 Broyden mixing:
  rms(total) = 0.78194E-01    rms(broyden)= 0.78189E-01
  rms(prec ) = 0.80243E-01
  weight for this iteration     100.00

 eigenvalues of (default mixing * dielectric matrix)
  average eigenvalue GAMMA=   1.4429
  4.0013  2.4773  1.5420  1.2811  0.7629  0.7629  0.8474  0.6073  0.7040

 Free energy of the ion-electron system (eV)
  ---------------------------------------------------
  alpha Z        PSCENC =         0.19067513
  Ewald energy   TEWEN  =      5117.86831832
  -Hartree energ DENC   =     -7018.61833872
  -exchange      EXHF   =         0.00000000
  -V(xc)+E(xc)   XCENC  =       183.12975365
  PAW double counting   =      4360.54007847    -4368.41596757
  entropy T*S    EENTRO =        -0.00000000
  eigenvalues    EBANDS =      -575.68599297
  atomic energy  EATOM  =      2106.67170235
  Solvation  Ecorr_sol  =        89.95069956
  ---------------------------------------------------
  free energy    TOTEN  =      -104.36907176 eV

  energy without entropy =     -104.36907176  energy(sigma->0) =     -104.36907176


--------------------------------------------------------------------------------------------------------




--------------------------------------- Iteration      1(  11)  ---------------------------------------


    --------------------------------------------
      INIT:  cpu time      0.2497: real time      0.2498
  FINALIZE:  cpu time     45.4254: real time     45.4691
    --------------------------------------------
    POTLOK:  cpu time     51.4333: real time     51.4921
    SETDIJ:  cpu time      0.0569: real time      0.0570
    EDDIAG:  cpu time      2.8676: real time      2.8673
  RMM-DIIS:  cpu time     11.6788: real time     11.7033
    ORTHCH:  cpu time      0.3799: real time      0.3807
       DOS:  cpu time      0.0020: real time      0.0020
    CHARGE:  cpu time      1.6181: real time      1.6213
    MIXING:  cpu time      0.2215: real time      0.2212
    --------------------------------------------
      LOOP:  cpu time     68.2581: real time     68.3450

 eigenvalue-minimisations  :   194
 total energy-change (2. order) :-0.1518730E+01  (-0.1412521E-01)
 number of electron      52.9999995 magnetization       7.9916078
 augmentation part        0.5856706 magnetization       7.0728267

 Broyden mixing:
  rms(total) = 0.57057E-01    rms(broyden)= 0.57053E-01
  rms(prec ) = 0.58243E-01
  weight for this iteration     100.00

 eigenvalues of (default mixing * dielectric matrix)
  average eigenvalue GAMMA=   1.7090
  6.3360  2.2935  2.2935  1.5628  0.8886  0.8886  0.7520  0.7520  0.7121  0.6104

 Free energy of the ion-electron system (eV)
  ---------------------------------------------------
  alpha Z        PSCENC =         0.19067513
  Ewald energy   TEWEN  =      5117.86831832
  -Hartree energ DENC   =     -7027.20527346
  -exchange      EXHF   =         0.00000000
  -V(xc)+E(xc)   XCENC  =       181.70537209
  PAW double counting   =      4344.29519767    -4352.17917639
  entropy T*S    EENTRO =        -0.00000000
  eigenvalues    EBANDS =      -574.71491501
  atomic energy  EATOM  =      2106.67170235
  Solvation  Ecorr_sol  =        97.48029737
  ---------------------------------------------------
  free energy    TOTEN  =      -105.88780192 eV

  energy without entropy =     -105.88780192  energy(sigma->0) =     -105.88780192


--------------------------------------------------------------------------------------------------------




--------------------------------------- Iteration      1(  12)  ---------------------------------------


    --------------------------------------------
      INIT:  cpu time      0.2731: real time      0.2731
  FINALIZE:  cpu time     45.5042: real time     45.5540
    --------------------------------------------
    POTLOK:  cpu time     51.4919: real time     51.5580
    SETDIJ:  cpu time      0.0575: real time      0.0576
    EDDIAG:  cpu time      2.8835: real time      2.8890
  RMM-DIIS:  cpu time     11.7477: real time     11.7714
    ORTHCH:  cpu time      0.3818: real time      0.3826
       DOS:  cpu time      0.0009: real time      0.0009
    CHARGE:  cpu time      1.6155: real time      1.6187
    MIXING:  cpu time      0.2319: real time      0.2322
    --------------------------------------------
      LOOP:  cpu time     68.4106: real time     68.5104

 eigenvalue-minimisations  :   197
 total energy-change (2. order) :-0.1587349E+01  (-0.1992909E-01)
 number of electron      52.9999995 magnetization       7.6568679
 augmentation part        0.5849334 magnetization       6.7400784

 Broyden mixing:
  rms(total) = 0.41917E-01    rms(broyden)= 0.41915E-01
  rms(prec ) = 0.42516E-01
  weight for this iteration     100.00

 eigenvalues of (default mixing * dielectric matrix)
  average eigenvalue GAMMA=   1.6695
  6.8841  2.2367  2.2367  1.3761  1.0634  1.0634  0.7251  0.7251  0.7867  0.6601
  0.6071

 Free energy of the ion-electron system (eV)
  ---------------------------------------------------
  alpha Z        PSCENC =         0.19067513
  Ewald energy   TEWEN  =      5117.86831832
  -Hartree energ DENC   =     -7036.93418475
  -exchange      EXHF   =         0.00000000
  -V(xc)+E(xc)   XCENC  =       180.21019892
  PAW double counting   =      4329.91524157    -4337.81164973
  entropy T*S    EENTRO =        -0.00000000
  eigenvalues    EBANDS =      -573.52256746
  atomic energy  EATOM  =      2106.67170235
  Solvation  Ecorr_sol  =       105.93711443
  ---------------------------------------------------
  free energy    TOTEN  =      -107.47515119 eV

  energy without entropy =     -107.47515119  energy(sigma->0) =     -107.47515119


--------------------------------------------------------------------------------------------------------




--------------------------------------- Iteration      1(  13)  ---------------------------------------


    --------------------------------------------
      INIT:  cpu time      0.2670: real time      0.2672
  FINALIZE:  cpu time     43.2229: real time     43.2940
    --------------------------------------------
    POTLOK:  cpu time     49.2115: real time     49.3003
    SETDIJ:  cpu time      0.0588: real time      0.0589
    EDDIAG:  cpu time      2.8760: real time      2.8823
  RMM-DIIS:  cpu time     11.7946: real time     11.8205
    ORTHCH:  cpu time      0.3746: real time      0.3754
       DOS:  cpu time      0.0002: real time      0.0002
    CHARGE:  cpu time      1.6173: real time      1.6205
    MIXING:  cpu time      0.2393: real time      0.2397
    --------------------------------------------
      LOOP:  cpu time     66.1724: real time     66.2977

 eigenvalue-minimisations  :   206
 total energy-change (2. order) :-0.2693500E+00  (-0.3761154E-02)
 number of electron      52.9999995 magnetization       6.6205322
 augmentation part        0.5823846 magnetization       5.7053789

 Broyden mixing:
  rms(total) = 0.34332E-01    rms(broyden)= 0.34330E-01
  rms(prec ) = 0.34827E-01
  weight for this iteration     100.00

 eigenvalues of (default mixing * dielectric matrix)
  average eigenvalue GAMMA=   1.7123
  7.3807  2.1732  2.1732  1.6620  1.6620  0.7351  0.7351  0.9684  0.9435  0.8533
  0.6492  0.6117

 Free energy of the ion-electron system (eV)
  ---------------------------------------------------
  alpha Z        PSCENC =         0.19067513
  Ewald energy   TEWEN  =      5117.86831832
  -Hartree energ DENC   =     -7037.91888571
  -exchange      EXHF   =         0.00000000
  -V(xc)+E(xc)   XCENC  =       179.93446438
  PAW double counting   =      4331.81878853    -4339.71050305
  entropy T*S    EENTRO =        -0.00000000
  eigenvalues    EBANDS =      -574.11783855
  atomic energy  EATOM  =      2106.67170235
  Solvation  Ecorr_sol  =       107.51877735
  ---------------------------------------------------
  free energy    TOTEN  =      -107.74450123 eV

  energy without entropy =     -107.74450123  energy(sigma->0) =     -107.74450123


--------------------------------------------------------------------------------------------------------




--------------------------------------- Iteration      1(  14)  ---------------------------------------


    --------------------------------------------
      INIT:  cpu time      0.2537: real time      0.2538
  FINALIZE:  cpu time     40.9266: real time     40.9948
    --------------------------------------------
    POTLOK:  cpu time     46.8915: real time     46.9767
    SETDIJ:  cpu time      0.0631: real time      0.0632
    EDDIAG:  cpu time      2.8812: real time      2.8859
  RMM-DIIS:  cpu time     11.3899: real time     11.4161
    ORTHCH:  cpu time      0.3759: real time      0.3767
       DOS:  cpu time      0.0006: real time      0.0006
    CHARGE:  cpu time      1.6160: real time      1.6193
    MIXING:  cpu time      0.2497: real time      0.2500
    --------------------------------------------
      LOOP:  cpu time     63.4678: real time     63.5886

 eigenvalue-minimisations  :   193
 total energy-change (2. order) :-0.4691099E+00  (-0.1785983E-02)
 number of electron      52.9999995 magnetization       5.8886945
 augmentation part        0.5821619 magnetization       4.9734997

 Broyden mixing:
  rms(total) = 0.26767E-01    rms(broyden)= 0.26766E-01
  rms(prec ) = 0.26965E-01
  weight for this iteration     100.00

 eigenvalues of (default mixing * dielectric matrix)
  average eigenvalue GAMMA=   1.8551
  8.5378  3.3227  2.4952  1.9441  1.3640  1.1223  1.1223  0.7450  0.7450  0.7735
  0.7024  0.6212  0.6212

 Free energy of the ion-electron system (eV)
  ---------------------------------------------------
  alpha Z        PSCENC =         0.19067513
  Ewald energy   TEWEN  =      5117.86831832
  -Hartree energ DENC   =     -7039.03052698
  -exchange      EXHF   =         0.00000000
  -V(xc)+E(xc)   XCENC  =       179.43409371
  PAW double counting   =      4347.84111225    -4355.72363371
  entropy T*S    EENTRO =        -0.00000000
  eigenvalues    EBANDS =      -576.76689542
  atomic energy  EATOM  =      2106.67170235
  Solvation  Ecorr_sol  =       111.30154320
  ---------------------------------------------------
  free energy    TOTEN  =      -108.21361113 eV

  energy without entropy =     -108.21361113  energy(sigma->0) =     -108.21361113


--------------------------------------------------------------------------------------------------------




--------------------------------------- Iteration      1(  15)  ---------------------------------------


    --------------------------------------------
      INIT:  cpu time      0.2606: real time      0.2606
  FINALIZE:  cpu time     40.9253: real time     40.9919
    --------------------------------------------
    POTLOK:  cpu time     46.8957: real time     46.9808
    SETDIJ:  cpu time      0.0630: real time      0.0630
    EDDIAG:  cpu time      2.8817: real time      2.8868
  RMM-DIIS:  cpu time     11.6390: real time     11.6653
    ORTHCH:  cpu time      0.3753: real time      0.3762
       DOS:  cpu time      0.0021: real time      0.0021
    CHARGE:  cpu time      1.6167: real time      1.6202
    MIXING:  cpu time      0.2571: real time      0.2575
    --------------------------------------------
      LOOP:  cpu time     63.7306: real time     63.8519

 eigenvalue-minimisations  :   198
 total energy-change (2. order) :-0.2616358E+00  (-0.1447282E-02)
 number of electron      52.9999995 magnetization       5.4365055
 augmentation part        0.5821384 magnetization       4.5210329

 Broyden mixing:
  rms(total) = 0.22290E-01    rms(broyden)= 0.22289E-01
  rms(prec ) = 0.22440E-01
  weight for this iteration     100.00

 eigenvalues of (default mixing * dielectric matrix)
  average eigenvalue GAMMA=   1.8619
  9.0932  3.8805  2.1308  2.1308  1.2798  1.2798  1.0866  0.7584  0.7584  0.8253
  0.8025  0.8025  0.6194  0.6194

 Free energy of the ion-electron system (eV)
  ---------------------------------------------------
  alpha Z        PSCENC =         0.19067513
  Ewald energy   TEWEN  =      5117.86831832
  -Hartree energ DENC   =     -7039.89273749
  -exchange      EXHF   =         0.00000000
  -V(xc)+E(xc)   XCENC  =       179.15960191
  PAW double counting   =      4351.57314775    -4359.45834676
  entropy T*S    EENTRO =        -0.00000000
  eigenvalues    EBANDS =      -578.06740935
  atomic energy  EATOM  =      2106.67170235
  Solvation  Ecorr_sol  =       113.47980115
  ---------------------------------------------------
  free energy    TOTEN  =      -108.47524697 eV

  energy without entropy =     -108.47524697  energy(sigma->0) =     -108.47524697


--------------------------------------------------------------------------------------------------------




--------------------------------------- Iteration      1(  16)  ---------------------------------------


    --------------------------------------------
      INIT:  cpu time      0.2481: real time      0.2485
  FINALIZE:  cpu time     45.5031: real time     45.5623
    --------------------------------------------
    POTLOK:  cpu time     51.4694: real time     51.5460
    SETDIJ:  cpu time      0.0581: real time      0.0581
    EDDIAG:  cpu time      2.8803: real time      2.8832
  RMM-DIIS:  cpu time     11.8506: real time     11.8734
    ORTHCH:  cpu time      0.3790: real time      0.3799
       DOS:  cpu time      0.0025: real time      0.0025
    CHARGE:  cpu time      1.6154: real time      1.6188
    MIXING:  cpu time      0.2692: real time      0.2691
    --------------------------------------------
[...]
 eigenvalue-minimisations  :   272
 total energy-change (2. order) :-0.2694761E-04  (-0.2277864E-03)
 number of electron      52.9999995 magnetization       1.0000001
 augmentation part        0.5849627 magnetization       0.0843556

 Broyden mixing:
  rms(total) = 0.15256E-02    rms(broyden)= 0.15237E-02
  rms(prec ) = 0.15401E-02
  weight for this iteration     100.00

 Free energy of the ion-electron system (eV)
  ---------------------------------------------------
  alpha Z        PSCENC =         0.19067513
  Ewald energy   TEWEN  =      5121.90129188
  -Hartree energ DENC   =     -7040.22748523
  -exchange      EXHF   =         0.00000000
  -V(xc)+E(xc)   XCENC  =       178.86589581
  PAW double counting   =      4354.37109394    -4362.26159623
  entropy T*S    EENTRO =        -0.00000000
  eigenvalues    EBANDS =      -580.45250581
  atomic energy  EATOM  =      2106.67170235
  Solvation  Ecorr_sol  =       112.17517508
  ---------------------------------------------------
  free energy    TOTEN  =      -108.76575306 eV

  energy without entropy =     -108.76575306  energy(sigma->0) =     -108.76575306


--------------------------------------------------------------------------------------------------------




--------------------------------------- Iteration     12(   2)  ---------------------------------------


    --------------------------------------------
      INIT:  cpu time      0.2474: real time      0.2476
  FINALIZE:  cpu time     69.2837: real time     69.4007
    --------------------------------------------
    POTLOK:  cpu time     75.2501: real time     75.3847
    SETDIJ:  cpu time      0.0638: real time      0.0638
    EDDIAG:  cpu time      2.8418: real time      2.8470
  RMM-DIIS:  cpu time     10.8147: real time     10.8378
    ORTHCH:  cpu time      0.3746: real time      0.3755
       DOS:  cpu time      0.0030: real time      0.0030
    --------------------------------------------
      LOOP:  cpu time     89.3480: real time     89.5117

 eigenvalue-minimisations  :   172
 total energy-change (2. order) :-0.7820058E-06  (-0.3660028E-05)
 number of electron      52.9999995 magnetization       1.0000001
 augmentation part        0.5849627 magnetization       0.0843556

 Free energy of the ion-electron system (eV)
  ---------------------------------------------------
  alpha Z        PSCENC =         0.19067513
  Ewald energy   TEWEN  =      5121.90129188
  -Hartree energ DENC   =     -7040.22255771
  -exchange      EXHF   =         0.00000000
  -V(xc)+E(xc)   XCENC  =       178.86550368
  PAW double counting   =      4354.29145878    -4362.18176702
  entropy T*S    EENTRO =        -0.00000000
  eigenvalues    EBANDS =      -580.45717728
  atomic energy  EATOM  =      2106.67170235
  Solvation  Ecorr_sol  =       112.17511633
  ---------------------------------------------------
  free energy    TOTEN  =      -108.76575384 eV

  energy without entropy =     -108.76575384  energy(sigma->0) =     -108.76575384


--------------------------------------------------------------------------------------------------------




 average (electrostatic) potential at core
  the test charge radii are     0.6991  0.9406  0.7215  0.5201
  (the norm of the test charge is              1.0000)
       1 -57.6952       2 -57.9065       3 -58.7156       4 -57.8926       5 -57.5337
       6 -57.3690       7 -58.2904       8 -57.4793       9-100.1758      10 -77.5615
      11 -41.0360      12 -41.0366      13 -40.9288      14 -40.8484      15 -41.4129
      16 -41.4445      17 -41.2000
 
 
 
 E-fermi :  -1.3671     XC(G=0):  -0.0529     alpha+bet : -0.0197

 Fermi energy:        -1.3671027585

 spin component 1

 k-point     1 :       0.0000    0.0000    0.0000
  band No.  band energies     occupation 
      1     -23.1737      1.00000
      2     -21.1650      1.00000
      3     -19.6423      1.00000
      4     -17.6151      1.00000
      5     -17.3988      1.00000
      6     -16.4859      1.00000
      7     -14.1454      1.00000
      8     -13.8590      1.00000
      9     -12.3783      1.00000
     10     -11.1752      1.00000
     11     -10.2974      1.00000
     12      -9.9291      1.00000
     13      -9.6844      1.00000
     14      -9.4288      1.00000
     15      -9.2871      1.00000
     16      -8.6816      1.00000
     17      -8.4538      1.00000
     18      -8.2543      1.00000
     19      -7.6064      1.00000
     20      -7.4646      1.00000
     21      -7.1348      1.00000
     22      -6.6575      1.00000
     23      -6.6527      1.00000
     24      -5.5139      1.00000
     25      -4.8980      1.00000
     26      -3.9097      1.00000
     27      -1.6105      1.00000
     28      -0.4614      0.00000
     29      -0.3756      0.00000
     30      -0.2056      0.00000
     31      -0.0750      0.00000
     32       0.0052      0.00000
     33       0.0122      0.00000
     34       0.0412      0.00000
     35       0.0922      0.00000
     36       0.0982      0.00000
     37       0.1065      0.00000
     38       0.1077      0.00000
     39       0.1155      0.00000
     40       0.1300      0.00000
     41       0.1727      0.00000
     42       0.1737      0.00000
     43       0.1793      0.00000
     44       0.1830      0.00000
     45       0.1884      0.00000
     46       0.1887      0.00000
     47       0.1902      0.00000
     48       0.1912      0.00000
 Fermi energy:        -1.3671027585

 spin component 2

 k-point     1 :       0.0000    0.0000    0.0000
  band No.  band energies     occupation 
      1     -22.9523      1.00000
      2     -21.0889      1.00000
      3     -19.5748      1.00000
      4     -17.5259      1.00000
      5     -17.2967      1.00000
      6     -16.4333      1.00000
      7     -13.9738      1.00000
      8     -13.8131      1.00000
      9     -12.2992      1.00000
     10     -11.0827      1.00000
     11     -10.2542      1.00000
     12      -9.8534      1.00000
     13      -9.6548      1.00000
     14      -9.2709      1.00000
     15      -9.2611      1.00000
     16      -8.4823      1.00000
     17      -8.4266      1.00000
     18      -8.1725      1.00000
     19      -7.5361      1.00000
     20      -7.2443      1.00000
     21      -7.1023      1.00000
     22      -6.6427      1.00000
     23      -6.2992      1.00000
     24      -5.3585      1.00000
     25      -4.5579      1.00000
     26      -3.7963      1.00000
     27      -1.0197      0.00000
     28      -0.3535      0.00000
     29      -0.2515      0.00000
     30      -0.1151      0.00000
     31       0.0079      0.00000
     32       0.0254      0.00000
     33       0.0759      0.00000
     34       0.0829      0.00000
     35       0.0937      0.00000
     36       0.1023      0.00000
     37       0.1157      0.00000
     38       0.1177      0.00000
     39       0.1451      0.00000
     40       0.1524      0.00000
     41       0.1819      0.00000
     42       0.1859      0.00000
     43       0.1862      0.00000
     44       0.1880      0.00000
     45       0.1897      0.00000
     46       0.1899      0.00000
     47       0.1912      0.00000
     48       0.1957      0.00000


--------------------------------------------------------------------------------------------------------


 soft charge-density along one line, spin component           1
         0         1         2         3         4         5         6         7         8         9
 total charge-density along one line
 
 soft charge-density along one line, spin component           2
         0         1         2         3         4         5         6         7         8         9
 total charge-density along one line
 
 pseudopotential strength for first ion, spin component:           1
 10.198  13.561   0.000   0.000   0.001  -0.001  -0.000  -0.003
 13.561  18.032   0.000   0.000   0.001  -0.001  -0.000  -0.004
  0.000   0.000  -4.321   0.000   0.000   8.451  -0.000  -0.001
  0.000   0.000   0.000  -4.322   0.000  -0.000   8.457  -0.000
  0.001   0.001   0.000   0.000  -4.323  -0.001  -0.000   8.454
 -0.001  -0.001   8.451  -0.000  -0.001 -18.665   0.000   0.002
 -0.000  -0.000  -0.000   8.457  -0.000   0.000 -18.681   0.000
 -0.003  -0.004  -0.001  -0.000   8.454   0.002   0.000 -18.670
 pseudopotential strength for first ion, spin component:           2
 10.179  13.536   0.000   0.000   0.001   0.000  -0.000  -0.003
 13.536  17.998   0.000   0.000   0.001   0.000  -0.000  -0.004
  0.000   0.000  -4.321  -0.000   0.000   8.456   0.000  -0.001
  0.000   0.000  -0.000  -4.304   0.000   0.000   8.429  -0.000
  0.001   0.001   0.000   0.000  -4.323  -0.001  -0.000   8.459
  0.000   0.000   8.456   0.000  -0.001 -18.681  -0.000   0.001
 -0.000  -0.000   0.000   8.429  -0.000  -0.000 -18.641   0.000
 -0.003  -0.004  -0.001  -0.000   8.459   0.001   0.000 -18.686
 total augmentation occupancy for first ion, spin component:           1
  7.711  -3.336  -0.105   0.000   0.185  -0.024   0.000   0.034
 -3.336   1.486   0.063  -0.000  -0.119   0.015  -0.000  -0.020
 -0.105   0.063   1.717   0.000   0.036   0.150   0.000   0.007
  0.000  -0.000   0.000   1.178  -0.000   0.000   0.064  -0.000
  0.185  -0.119   0.036  -0.000   1.809   0.007  -0.000   0.166
 -0.024   0.015   0.150   0.000   0.007   0.014   0.000   0.001
  0.000  -0.000   0.000   0.064  -0.000   0.000   0.004  -0.000
  0.034  -0.020   0.007  -0.000   0.166   0.001  -0.000   0.016
 total augmentation occupancy for first ion, spin component:           2
  0.007  -0.000   0.005  -0.000   0.005   0.001  -0.000   0.001
 -0.000  -0.001  -0.003   0.000  -0.003  -0.000   0.000  -0.000
  0.005  -0.003   0.001  -0.000  -0.001   0.000   0.000  -0.000
 -0.000   0.000  -0.000   0.107   0.000   0.000  -0.000   0.000
  0.005  -0.003  -0.001   0.000   0.001  -0.000   0.000   0.000
  0.001  -0.000   0.000   0.000  -0.000   0.000   0.000   0.000
 -0.000   0.000   0.000  -0.000   0.000   0.000  -0.000  -0.000
  0.001  -0.000  -0.000   0.000   0.000   0.000  -0.000   0.000


------------------------ aborting loop because EDIFF is reached ----------------------------------------


    CHARGE:  cpu time      1.6270: real time      1.6304
    FORLOC:  cpu time      0.3668: real time      0.3674
    FORNL :  cpu time      5.1419: real time      5.1532
    STRESS:  cpu time     13.5551: real time     13.5840
    FORCOR:  cpu time      5.3620: real time      5.3720
    FORHAR:  cpu time      0.8639: real time      0.8651
    MIXING:  cpu time      0.1052: real time      0.1054
    OFIELD:  cpu time      0.0000: real time      0.0000

 ---------------------------------------------------------------------------------------------

         DFTD3 V3.0 Rev 1        
 Edisp (eV)   -0.20685

 E6    (eV) :    -0.0819
 E8    (eV) :    -0.1250
 % E8        : 60.41
    FORVDW:  cpu time      0.0056: real time      0.0056

  FORCE on cell =-STRESS in cart. coord.  units (eV):
  Direction    XX          YY          ZZ          XY          YZ          ZX
  --------------------------------------------------------------------------------------
  Alpha Z     0.19068     0.19068     0.19068
  Ewald    3537.96994  1943.29574  -359.36539    30.40808    -0.03293    -0.27330
  Hartree  3747.29329  2340.39485   840.37279   -10.38793    -0.04265    -0.16530
  E(xc)    -196.96931  -197.41556  -201.67806     0.24849     0.00011    -0.00053
  Local   -7868.45374 -4874.29485 -1149.24465    -5.94865     0.08161     0.41905
  n-local    10.41557     9.21470    12.12130    -0.18287     0.00236     0.00008
  augment   -13.73241   -15.93539   -15.44742    -0.80031    -0.00003     0.00026
  Kinetic   782.94562   794.26921   872.57861   -13.36062    -0.00766     0.02034
  Fock        0.00000     0.00000     0.00000     0.00000     0.00000     0.00000
  vdW        -0.02810     0.01626     0.00341     0.01528     0.00000     0.00000
  -------------------------------------------------------------------------------------
  Total      -0.36847    -0.26438    -0.46875    -0.00854     0.00081     0.00060
  in kB      -0.00922    -0.00662    -0.01173    -0.00021     0.00002     0.00001
  external pressure =       -0.01 kB  Pullay stress =        0.00 kB


 VOLUME and BASIS-vectors are now :
 -----------------------------------------------------------------------------
  energy-cutoff  :      500.00
  volume of cell :    64000.00
      direct lattice vectors                 reciprocal lattice vectors
    40.000000000  0.000000000  0.000000000     0.025000000  0.000000000  0.000000000
     0.000000000 40.000000000  0.000000000     0.000000000  0.025000000  0.000000000
     0.000000000  0.000000000 40.000000000     0.000000000  0.000000000  0.025000000

  length of vectors
    40.000000000 40.000000000 40.000000000     0.025000000  0.025000000  0.025000000


 FORCES acting on ions
    electron-ion (+dipol)            ewald-force                    non-local-force                 convergence-correction
 -----------------------------------------------------------------------------------------------
   0.308E+02 -.176E+03 -.601E-01   -.318E+02 0.176E+03 0.607E-01   0.102E+01 0.129E+00 -.134E-02   0.613E-02 0.182E-02 -.797E-03
   -.947E+02 -.179E+03 -.252E-01   0.942E+02 0.180E+03 0.249E-01   0.500E+00 -.105E+01 -.398E-03   0.242E-02 -.283E-02 0.498E-04
   -.135E+03 -.992E+00 0.358E-01   0.129E+03 0.853E+00 -.349E-01   0.625E+01 0.137E+00 -.118E-02   -.223E-02 -.241E-02 -.734E-04
   -.994E+02 0.179E+03 0.324E-01   0.987E+02 -.180E+03 -.325E-01   0.631E+00 0.110E+01 0.164E-03   0.522E-02 -.144E-02 -.872E-05
   0.241E+02 0.181E+03 -.308E-01   -.255E+02 -.181E+03 0.313E-01   0.136E+01 0.639E+00 -.874E-03   0.640E-02 -.456E-02 -.539E-05
   0.301E+02 -.362E+01 0.633E-02   -.318E+02 0.333E+01 -.697E-02   0.163E+01 0.281E+00 0.195E-02   0.263E-02 -.114E-02 -.234E-03
   0.705E+02 -.596E+02 0.281E-01   -.683E+02 0.624E+02 -.291E-01   -.219E+01 -.283E+01 0.517E-03   -.103E-02 -.294E-02 0.998E-04
   0.145E+03 -.138E+03 0.732E-01   -.145E+03 0.136E+03 -.730E-01   -.356E+00 0.203E+01 0.495E-05   -.728E-02 0.361E-02 0.273E-03
   -.347E+03 -.398E+01 0.702E-01   0.354E+03 0.406E+01 -.723E-01   -.693E+01 -.809E-01 0.201E-02   -.446E-03 -.116E-02 -.120E-03
   0.265E+03 0.287E+03 -.118E+00   -.289E+03 -.327E+03 0.134E+00   0.235E+02 0.392E+02 -.153E-01   -.481E-02 -.666E-02 -.563E-03
   0.164E+02 -.562E+02 -.551E+02   -.153E+02 0.592E+02 0.594E+02   -.105E+01 -.299E+01 -.427E+01   -.122E-02 0.681E-03 0.411E-03
   0.163E+02 -.562E+02 0.551E+02   -.152E+02 0.592E+02 -.594E+02   -.105E+01 -.299E+01 0.427E+01   -.117E-02 0.718E-03 -.430E-03
   0.845E+02 -.860E+01 0.464E-01   -.899E+02 0.730E+01 -.494E-01   0.538E+01 0.129E+01 0.270E-02   -.799E-03 0.988E-03 0.335E-04
   0.230E+02 0.851E+02 -.374E-02   -.260E+02 -.900E+02 0.400E-02   0.298E+01 0.491E+01 -.190E-03   0.177E-02 -.371E-03 -.129E-04
   -.419E+02 0.788E+02 0.129E-01   0.448E+02 -.836E+02 -.138E-01   -.292E+01 0.485E+01 0.893E-03   -.117E-02 0.232E-02 -.688E-05
   -.401E+02 -.797E+02 -.280E-01   0.428E+02 0.846E+02 0.296E-01   -.279E+01 -.494E+01 -.200E-02   -.156E-03 -.126E-02 0.380E-04
   0.231E+02 -.833E+02 -.427E-01   -.259E+02 0.883E+02 0.451E-01   0.275E+01 -.495E+01 -.245E-02   0.122E-02 0.183E-03 -.120E-03
 -----------------------------------------------------------------------------------------------
   -.287E+02 -.347E+02 0.129E-01   -.888E-13 -.142E-13 0.391E-14   0.287E+02 0.347E+02 -.156E-01   0.547E-02 -.144E-01 -.147E-02
 
 
 POSITION                                       TOTAL-FORCE (eV/Angst)
 -----------------------------------------------------------------------------------
     20.38628     20.93130     20.00044        -0.001195      0.010408     -0.001373
     21.77397     20.95242     20.00025         0.001039      0.004284     -0.000419
     22.49521     19.74206     19.99984        -0.011377     -0.004782     -0.000148
     21.80572     18.51178     19.99987        -0.002936     -0.007065      0.000243
     20.42137     18.49484     20.00017         0.001715      0.001834     -0.000104
     19.64201     19.70339     20.00017         0.006998     -0.004938      0.001317
     18.20543     19.64103     20.00011         0.002332     -0.004588     -0.000167
     17.41927     20.94923     19.99951         0.011578     -0.008316      0.000671
     24.24705     19.76530     19.99949         0.003127     -0.000428     -0.000023
     17.55667     18.53555     20.00054         0.004154      0.005761      0.000180
     17.63781     21.57422     20.88348         0.004475      0.000796      0.005993
     17.63896     21.57405     19.11577         0.004443      0.001688     -0.006788
     16.34886     20.71159     19.99895        -0.010166     -0.002985     -0.000014
     19.88040     17.54773     20.00021        -0.005399     -0.001082      0.000312
     22.37163     17.57783     19.99970        -0.001860      0.002200      0.000291
     22.31205     21.90194     20.00062        -0.002936      0.003572     -0.000047
     19.85726     21.88584     20.00092        -0.003990      0.003641      0.000077
 -----------------------------------------------------------------------------------
    total drift:                                0.022968     -0.000120     -0.004188


--------------------------------------------------------------------------------------------------------



  FREE ENERGIE OF THE ION-ELECTRON SYSTEM (eV)
  ---------------------------------------------------
  free  energy   TOTEN  =      -108.97260482 eV

  energy  without entropy=     -108.97260482  energy(sigma->0) =     -108.97260482
 
 d Force = 0.3397090E-04[ 0.142E-04, 0.537E-04]  d Energy = 0.3441716E-04-0.446E-06
 d Force =-0.1079877E+00[-0.108E+00,-0.108E+00]  d Ewald  =-0.1079876E+00-0.474E-07


--------------------------------------------------------------------------------------------------------


    --------------------------------------------
      INIT:  cpu time      0.2329: real time      0.2340
  FINALIZE:  cpu time     73.9223: real time     73.9953
    --------------------------------------------
    POTLOK:  cpu time     79.9467: real time     80.0327


--------------------------------------------------------------------------------------------------------


 Conjugate gradient step on ions:
 trial-energy change:   -0.000034  1 .order   -0.000034   -0.000054   -0.000014
  (g-gl).g = 0.137E-03      g.g   = 0.131E-03  gl.gl    = 0.159E-03
 g(Force)  = 0.131E-03   g(Stress)= 0.000E+00 ortho     =-0.734E-05
 gamma     =   0.85755
 trial     =   0.43141
 opt step  =   0.58656  (harmonic =   0.58656) maximal distance =0.00089644
 next E    =  -108.972607   (d E  =  -0.00004)


--------------------------------------------------------------------------------------------------------


  
 reached required accuracy - stopping structural energy minimisation
 writing wavefunctions
     LOOP+:  cpu time    327.5274: real time    329.4990
    4ORBIT:  cpu time      0.0000: real time      0.0000

 total amount of memory used by VASP MPI-rank0   703991. kBytes
=======================================================================

   base      :      30000. kBytes
   nonlr-proj:       1079. kBytes
   fftplans  :     167689. kBytes
   grid      :     474012. kBytes
   one-center:         12. kBytes
   wavefun   :      31199. kBytes
 
  
  
 General timing and accounting informations for this job:
 ========================================================
  
                  Total CPU time used (sec):    10699.382
                            User time (sec):    10445.219
                          System time (sec):      254.162
                         Elapsed time (sec):    10718.165
  
                   Maximum memory used (kb):     2350440.
                   Average memory used (kb):          N/A
  
                          Minor page faults:      9000424
                          Major page faults:            0
                 Voluntary context switches:       380977
