
                                 *****************
                                 * O   R   C   A *
                                 *****************

                                            #,                                       
                                            ###                                      
                                            ####                                     
                                            #####                                    
                                            ######                                   
                                           ########,                                 
                                     ,,################,,,,,                         
                               ,,#################################,,                 
                          ,,##########################################,,             
                       ,#########################################, ''#####,          
                    ,#############################################,,   '####,        
                  ,##################################################,,,,####,       
                ,###########''''           ''''###############################       
              ,#####''   ,,,,##########,,,,          '''####'''          '####       
            ,##' ,,,,###########################,,,                        '##       
           ' ,,###''''                  '''############,,,                           
         ,,##''                                '''############,,,,        ,,,,,,###''
      ,#''                                            '''#######################'''  
     '                                                          ''''####''''         
             ,#######,   #######,   ,#######,      ##                                
            ,#'     '#,  ##    ##  ,#'     '#,    #''#        ,####,   ,####,        
            ##       ##  ##   ,#'  ##            #'  '#       #'       #'  '#        
            ##       ##  #######   ##           ,######,      #####,   #    #        
            '#,     ,#'  ##    ##  '#,     ,#' ,#      #,     #,   #   #,  ,#        
             '#######'   ##     ##  '#######'  #'      '#     '####' # '####'        



                #########################################################
                #                        -***-                          #
                #          Department of theory and spectroscopy        #
                #                                                       #
                #                      Frank Neese                      #
                #                                                       #
                #     Directorship, Architecture, Infrastructure        #
                #                    SHARK, DRIVERS                     #
                #        Core code/Algorithms in most modules           #
                #                                                       #
                #        Max Planck Institute fuer Kohlenforschung      #
                #                Kaiser Wilhelm Platz 1                 #
                #                 D-45470 Muelheim/Ruhr                 #
                #                      Germany                          #
                #                                                       #
                #                  All rights reserved                  #
                #                        -***-                          #
                #########################################################


                         Program Version 6.0.0  -   RELEASE  -


 With contributions from (in alphabetic order):
   Daniel Aravena         : Magnetic Suceptibility
   Michael Atanasov       : Ab Initio Ligand Field Theory (pilot matlab implementation)
   Alexander A. Auer      : GIAO ZORA, VPT2 properties, NMR spectrum
   Ute Becker             : All parallelization in ORCA, NUMFREQ, NUMCALC
   Giovanni Bistoni       : ED, misc. LED, open-shell LED, HFLD
   Martin Brehm           : Molecular dynamics
   Dmytro Bykov           : pre 5.0 version of the SCF Hessian
   Marcos Casanova-Páez   : Triplet and SCS-CIS(D). UHF-(DLPNO)-IP/EA/STEOM-CCSD. UHF-CVS-IP/STEOM-CCSD
   Vijay G. Chilkuri      : MRCI spin determinant printing, contributions to CSF-ICE
   Pauline Colinet        : FMM embedding
   Dipayan Datta          : RHF DLPNO-CCSD density
   Achintya Kumar Dutta   : EOM-CC, STEOM-CC
   Nicolas Foglia         : Exact transition moments, OPA infrastructure, MCD improvements
   Dmitry Ganyushin       : Spin-Orbit,Spin-Spin,Magnetic field MRCI
   Miquel Garcia          : C-PCM and meta-GGA Hessian, CCSD/C-PCM, Gaussian charge scheme
   Tiago L. C. Gouveia    : GS-ROHF, GS-ROCIS
   Yang Guo               : DLPNO-NEVPT2, F12-NEVPT2, CIM, IAO-localization
   Andreas Hansen         : Spin unrestricted coupled pair/coupled cluster methods
   Ingolf Harden          : AUTO-CI MPn and infrastructure 
   Benjamin Helmich-Paris : MC-RPA, TRAH-(SCF,CASSCF), AVAS, COSX integrals, SCF dyn. polar.
   Lee Huntington         : MR-EOM, pCC
   Robert Izsak           : Overlap fitted RIJCOSX, COSX-SCS-MP3, EOM
   Riya Kayal             : Wick's Theorem for AUTO-CI, AUTO-CI UHF-CCSDT
   Emily Kempfer          : AUTO-CI, RHF CISDT and CCSDT
   Christian Kollmar      : KDIIS, OOCD, Brueckner-CCSD(T), CCSD density, CASPT2, CASPT2-K, improved NEVPT2
   Axel Koslowski         : Symmetry handling
   Simone Kossmann        : Meta GGA functionals, TD-DFT gradient, OOMP2, (MP2 Hessian; deprecated post 5.0)
   Lucas Lang             : DCDCAS
   Marvin Lechner         : AUTO-CI (C++ implementation), FIC-MRCC
   Spencer Leger          : CASSCF response
   Dagmar Lenk            : GEPOL surface, SMD, ORCA-2-JSON
   Dimitrios Liakos       : Extrapolation schemes; Compound Job, initial MDCI parallelization
   Dimitrios Manganas     : Further ROCIS development; embedding schemes. LFT, Crystal Embedding
   Dimitrios Pantazis     : SARC Basis sets
   Anastasios Papadopoulos: AUTO-CI, single reference methods and gradients
   Taras Petrenko         : pre 6.0 DFT Hessian and TD-DFT gradient, (ASA, deprecated), ECA, 1-Electron XAS/XES, NRVS
   Peter Pinski           : DLPNO-MP2, DLPNO-MP2 Gradient
   Christoph Reimann      : Effective Core Potentials
   Marius Retegan         : Local ZFS, SOC
   Christoph Riplinger    : Optimizer, TS searches, QM/MM, DLPNO-CCSD(T), (RO)-DLPNO pert. Triples
   Michael Roemelt        : Original ROCIS implementation
   Masaaki Saitow         : Open-shell DLPNO-CCSD energy and density
   Barbara Sandhoefer     : DKH picture change effects
   Kantharuban Sivalingam : CASSCF convergence/infrastructure, NEVPT2 and variants, FIC-MRCI
   Bernardo de Souza      : ESD, SOC TD-DFT
   Georgi Stoychev        : AutoAux, RI-MP2 NMR, DLPNO-MP2 response, X2C
   Van Anh Tran           : RI-MP2 g-tensors
   Willem Van den Heuvel  : Paramagnetic NMR
   Zikuan Wang            : NOTCH, Electric field optimization 
   Frank Wennmohs         : Technical directorship and infrastructure
   Hang Xu                : AUTO-CI-Response properties 


 We gratefully acknowledge several colleagues who have allowed us to
 interface, adapt or use parts of their codes:
   Stefan Grimme, W. Hujo, H. Kruse, P. Pracht,  : VdW corrections, initial TS optimization,
                  C. Bannwarth, S. Ehlert,         DFT functionals, gCP, sTDA/sTD-DF
                  L. Wittmann, M. Mueller
   Ed Valeev, F. Pavosevic, A. Kumar             : LibInt (2-el integral package), F12 methods
   Garnet Chan, S. Sharma, J. Yang, R. Olivares  : DMRG
   Ulf Ekstrom                                   : XCFun DFT Library
   Mihaly Kallay                                 : mrcc  (arbitrary order and MRCC methods)
   Frank Weinhold                                : gennbo (NPA and NBO analysis)
   Simon Mueller                                 : openCOSMO-RS
   Christopher J. Cramer and Donald G. Truhlar   : smd solvation model
   Lars Goerigk                                  : TD-DFT with DH, B97 family of functionals
   V. Asgeirsson, H. Jonsson                     : NEB implementation
   FAccTs GmbH                                   : IRC, NEB, NEB-TS, DLPNO-Multilevel, CI-OPT
                                                   MM, QMMM, 2- and 3-layer-ONIOM, Crystal-QMMM,
                                                   LR-CPCM, SF, NACMEs, symmetry and pop. for TD-DFT,
                                                   nearIR, NL-DFT gradient (VV10), updates on ESD,
                                                   ML-optimized integration grids, MBIS, APM,
                                                   GOAT, DOCKER, SOLVATOR, interface openCOSMO-RS
   S Lehtola, MJT Oliveira, MAL Marques          : LibXC Library
   Liviu Ungur et al                             : ANISO software


 Your calculation uses the libint2 library for the computation of 2-el integrals
 For citations please refer to: http://libint.valeyev.net

 Your ORCA version has been built with support for libXC version: 6.2.2
 For citations please refer to: https://libxc.gitlab.io

 This ORCA versions uses:
   CBLAS   interface :  Fast vector & matrix operations
   LAPACKE interface :  Fast linear algebra routines
   SCALAPACK package :  Parallel linear algebra routines
   Shared memory     :  Shared parallel matrices
   BLAS/LAPACK       :  OpenBLAS 0.3.27  USE64BITINT DYNAMIC_ARCH NO_AFFINITY SkylakeX SINGLE_THREADED
        Core in use  :  SkylakeX
   Copyright (c) 2011-2014, The OpenBLAS Project


NOTE: MaxCore=3000 MB was set to SCF,MP2,MDCI,CIPSI,MRCI and CIS
      => If you want to overwrite this, your respective input block should be placed after the MaxCore statement
Your calculation utilizes the atom-pairwise dispersion correction
with the Becke-Johnson damping scheme (D3BJ)


Your calculation utilizes the SMD solvation module
Please cite in your paper:
A.V. Marenich, C.J. Cramer, D.G. Truhlar J. Phys. Chem. B, 113, (2009), 6378 

Warning: RI is on but no J-basis has been assigned. Assigning Def2/J (nothing to worry about!)
================================================================================

----- Orbital basis set information -----
Your calculation utilizes the basis: aug-cc-pVTZ 
    H, B-Ne : Obtained from the ccRepo (grant-hill.group.shef.ac.uk/ccrepo) Feb. 2017
              R. A. Kendall, T. H. Dunning, Jr., R. J. Harrison, J. Chem. Phys. 96, 6796 (1992)
         He : Obtained from the ccRepo (grant-hill.group.shef.ac.uk/ccrepo) Feb. 2017
              D. E. Woon, T. H. Dunning, Jr., J. Chem. Phys. 100, 2975 (1994)
  Li-Be, Na : Obtained from the ccRepo (grant-hill.group.shef.ac.uk/ccrepo) Feb. 2017
              B. P. Prascher, D. E. Woon, K. A. Peterson, T. H. Dunning, Jr., A. K. Wilson, Theor. Chem. Acc. 128, 69 (2011)
         Mg : Obtained from the Peterson Research Group Website (tyr0.chem.wsu.edu/~kipeters) Feb. 2017
              B. P. Prascher, D. E. Woon, K. A. Peterson, T. H. Dunning, Jr., A. K. Wilson, Theor. Chem. Acc. 128, 69 (2011)
      Al-Ar : Obtained from the ccRepo (grant-hill.group.shef.ac.uk/ccrepo) Feb. 2017
              D. E. Woon, T. H. Dunning, Jr., J. Chem. Phys. 98, 1358 (1993)
      Sc-Zn : Obtained from the ccRepo (grant-hill.group.shef.ac.uk/ccrepo) Feb. 2017
              N. B. Balabanov, K. A. Peterson, J. Chem. Phys. 123, 064107 (2005)
              N. B. Balabanov, K. A. Peterson, J. Chem. Phys. 125, 074110 (2006)
      Ga-Kr : Obtained from the ccRepo (grant-hill.group.shef.ac.uk/ccrepo) Feb. 2017
              A. K. Wilson, D. E. Woon, K. A. Peterson, T. H. Dunning, Jr., J. Chem. Phys. 110, 7667 (1999)
     Ag, Au : Obtained from the Peterson Research Group Website (tyr0.chem.wsu.edu/~kipeters) Feb. 2017
              K. A. Peterson, C. Puzzarini, Theor. Chem. Acc. 114, 283 (2005)

----- AuxJ basis set information -----
Your calculation utilizes the auxiliary basis: def2/J
   F. Weigend, Phys. Chem. Chem. Phys. 8, 1057 (2006).

================================================================================
                                        WARNINGS
                       Please study these warnings very carefully!
================================================================================

Using LibXC functional ID 497 : Re-regularized SCAN exchange by Furness et al
[ 1]  J. W. Furness, A. D. Kaplan, J. Ning, J. P. Perdew, and J. Sun.,  J. Phys. Chem. Lett. 11, 8208-8215 (2020)
[ 2]  J. W. Furness, A. D. Kaplan, J. Ning, J. P. Perdew, and J. Sun.,  J. Phys. Chem. Lett. 11, 9248-9248 (2020)
Using LibXC functional ID 498 : Re-regularized SCAN correlation by Furness et al
[ 1]  J. W. Furness, A. D. Kaplan, J. Ning, J. P. Perdew, and J. Sun.,  J. Phys. Chem. Lett. 11, 8208-8215 (2020)
[ 2]  J. W. Furness, A. D. Kaplan, J. Ning, J. P. Perdew, and J. Sun.,  J. Phys. Chem. Lett. 11, 9248-9248 (2020)
Using LibXC functional ID 497 : Re-regularized SCAN exchange by Furness et al
[ 1]  J. W. Furness, A. D. Kaplan, J. Ning, J. P. Perdew, and J. Sun.,  J. Phys. Chem. Lett. 11, 8208-8215 (2020)
[ 2]  J. W. Furness, A. D. Kaplan, J. Ning, J. P. Perdew, and J. Sun.,  J. Phys. Chem. Lett. 11, 9248-9248 (2020)
Using LibXC functional ID 498 : Re-regularized SCAN correlation by Furness et al
[ 1]  J. W. Furness, A. D. Kaplan, J. Ning, J. P. Perdew, and J. Sun.,  J. Phys. Chem. Lett. 11, 8208-8215 (2020)
[ 2]  J. W. Furness, A. D. Kaplan, J. Ning, J. P. Perdew, and J. Sun.,  J. Phys. Chem. Lett. 11, 9248-9248 (2020)

================================================================================
                                       INPUT FILE
================================================================================
NAME = cs_rporg_145_ox_solv_04.inp
|  1> !r2SCANh aug-cc-pVTZ d3 TightSCF SlowConv RIJCOSX defgrid2
|  2>  
|  3> %pal
|  4> nprocs 4
|  5> end
|  6>  
|  7> %scf
|  8> MaxIter 1500
|  9> end
| 10>  
| 11> %maxcore 3000
| 12>  
| 13> !CPCM
| 14> %cpcm smd true
| 15> SMDsolvent "MeCN"
| 16> surfacetype gepol_ses
| 17> rsolv 2.19
| 18> end 
| 19>  
| 20> * xyz 0 1
| 21> C          -0.45962349392076      1.19930168964946      0.00062202556794
| 22> C           0.93187577371451      1.21292315738455      0.00021003045593
| 23> C           1.62461355579551      0.00264447710890     -0.00023259743760
| 24> C           0.94147031950354     -1.21572927971146     -0.00024754015947
| 25> C          -0.44629067380136     -1.21277951487668      0.00019404075702
| 26> C          -1.16457141606032     -0.01003943569872      0.00066278241731
| 27> C          -2.65943474979432     -0.08619562751851      0.00125896770752
| 28> O          -3.21849789447990     -1.16065283026292     -0.00068065256956
| 29> C          -3.44514706371262      1.20360842703596     -0.00042582391608
| 30> H          -3.20900994320141      1.81348807306859      0.88908099447108
| 31> H          -3.20722570566812      1.81245947226407     -0.89017014718689
| 32> H          -4.51791848417965      0.96213295731483     -0.00129821423503
| 33> H          -1.01178782473404     -2.14828242074604      0.00023169281017
| 34> H           1.50422972929259     -2.15194601130068     -0.00059587432262
| 35> Cl          3.35241439280556      0.01090662049481     -0.00078466924471
| 36> H           1.48532961925900      2.15441464352816      0.00021462148241
| 37> H          -0.99337054081820      2.15308200226567      0.00096246340259
| 38> *
| 39> 
| 40>                          ****END OF INPUT****
================================================================================

                       ****************************
                       * Single Point Calculation *
                       ****************************

---------------------------------
CARTESIAN COORDINATES (ANGSTROEM)
---------------------------------
  C     -0.459623    1.199302    0.000622
  C      0.931876    1.212923    0.000210
  C      1.624614    0.002644   -0.000233
  C      0.941470   -1.215729   -0.000248
  C     -0.446291   -1.212780    0.000194
  C     -1.164571   -0.010039    0.000663
  C     -2.659435   -0.086196    0.001259
  O     -3.218498   -1.160653   -0.000681
  C     -3.445147    1.203608   -0.000426
  H     -3.209010    1.813488    0.889081
  H     -3.207226    1.812459   -0.890170
  H     -4.517918    0.962133   -0.001298
  H     -1.011788   -2.148282    0.000232
  H      1.504230   -2.151946   -0.000596
  Cl     3.352414    0.010907   -0.000785
  H      1.485330    2.154415    0.000215
  H     -0.993371    2.153082    0.000962

----------------------------
CARTESIAN COORDINATES (A.U.)
----------------------------
  NO LB      ZA    FRAG     MASS         X           Y           Z
   0 C     6.0000    0    12.011   -0.868563    2.266352    0.001175
   1 C     6.0000    0    12.011    1.760990    2.292093    0.000397
   2 C     6.0000    0    12.011    3.070075    0.004997   -0.000440
   3 C     6.0000    0    12.011    1.779121   -2.297395   -0.000468
   4 C     6.0000    0    12.011   -0.843367   -2.291821    0.000367
   5 C     6.0000    0    12.011   -2.200721   -0.018972    0.001252
   6 C     6.0000    0    12.011   -5.025603   -0.162886    0.002379
   7 O     8.0000    0    15.999   -6.082080   -2.193316   -0.001286
   8 C     6.0000    0    12.011   -6.510384    2.274490   -0.000805
   9 H     1.0000    0     1.008   -6.064150    3.426996    1.680120
  10 H     1.0000    0     1.008   -6.060778    3.425052   -1.682178
  11 H     1.0000    0     1.008   -8.537629    1.818168   -0.002453
  12 H     1.0000    0     1.008   -1.912002   -4.059665    0.000438
  13 H     1.0000    0     1.008    2.842582   -4.066589   -0.001126
  14 Cl   17.0000    0    35.453    6.335145    0.020611   -0.001483
  15 H     1.0000    0     1.008    2.806866    4.071254    0.000406
  16 H     1.0000    0     1.008   -1.877198    4.068735    0.001819

--------------------------------
INTERNAL COORDINATES (ANGSTROEM)
--------------------------------
 C      0   0   0     0.000000000000     0.00000000     0.00000000
 C      1   0   0     1.391565997699     0.00000000     0.00000000
 C      2   1   0     1.394510779654   119.22505356     0.00000000
 C      3   2   1     1.396824718003   120.93470657     0.00000000
 C      4   3   2     1.387764198502   119.15760060     0.00000000
 C      1   2   3     1.399806248039   120.79957454     0.00000000
 C      6   1   2     1.496802093642   123.15514611   179.99258468
 O      7   6   1     1.211203386059   120.40526643   179.89313877
 C      7   6   1     1.510278510047   118.43211903     0.09795489
 H      9   7   6     1.104054483386   111.07500746   300.18692953
 H      9   7   6     1.104061197888   111.08478216    59.62628620
 H      9   7   6     1.099613424851   108.66306825   179.91305215
 H      5   4   3     1.093138928051   121.03053163   180.00220869
 H      4   3   2     1.092336964105   119.71055566   180.00014799
 Cl     3   2   1     1.727820679402   119.51192793   179.99852092
 H      2   1   3     1.092116009245   121.00990661   179.99912914
 H      1   2   3     1.092969766601   118.67105564   180.00028404

---------------------------
INTERNAL COORDINATES (A.U.)
---------------------------
 C      0   0   0     0.000000000000     0.00000000     0.00000000
 C      1   0   0     2.629678632928     0.00000000     0.00000000
 C      2   1   0     2.635243464347   119.22505356     0.00000000
 C      3   2   1     2.639616174117   120.93470657     0.00000000
 C      4   3   2     2.622494273630   119.15760060     0.00000000
 C      1   2   3     2.645250449345   120.79957454     0.00000000
 C      6   1   2     2.828546033664   123.15514611   179.99258468
 O      7   6   1     2.288842692130   120.40526643   179.89313877
 C      7   6   1     2.854012769936   118.43211903     0.09795489
 H      9   7   6     2.086360610528   111.07500746   300.18692953
 H      9   7   6     2.086373299097   111.08478216    59.62628620
 H      9   7   6     2.077968226152   108.66306825   179.91305215
 H      5   4   3     2.065733200345   121.03053163   180.00220869
 H      4   3   2     2.064217708118   119.71055566   180.00014799
 Cl     3   2   1     3.265107892596   119.51192793   179.99852092
 H      2   1   3     2.063800163945   121.00990661   179.99912914
 H      1   2   3     2.065413531532   118.67105564   180.00028404

---------------------
BASIS SET INFORMATION
---------------------
There are 4 groups of distinct atoms

 Group   1 Type C   : 19s6p3d2f contracted to 5s4p3d2f pattern {88111/3111/111/11}
 Group   2 Type O   : 19s6p3d2f contracted to 5s4p3d2f pattern {88111/3111/111/11}
 Group   3 Type H   : 6s3p2d contracted to 4s3p2d pattern {3111/111/11}
 Group   4 Type Cl  : 42s17p3d2f contracted to 6s5p3d2f pattern {131313111/77111/111/11}

Atom   0C    basis set group =>   1
Atom   1C    basis set group =>   1
Atom   2C    basis set group =>   1
Atom   3C    basis set group =>   1
Atom   4C    basis set group =>   1
Atom   5C    basis set group =>   1
Atom   6C    basis set group =>   1
Atom   7O    basis set group =>   2
Atom   8C    basis set group =>   1
Atom   9H    basis set group =>   3
Atom  10H    basis set group =>   3
Atom  11H    basis set group =>   3
Atom  12H    basis set group =>   3
Atom  13H    basis set group =>   3
Atom  14Cl   basis set group =>   4
Atom  15H    basis set group =>   3
Atom  16H    basis set group =>   3
---------------------------------
AUXILIARY/J BASIS SET INFORMATION
---------------------------------
There are 4 groups of distinct atoms

 Group   1 Type C   : 12s5p4d2f1g contracted to 6s4p3d1f1g pattern {711111/2111/211/2/1}
 Group   2 Type O   : 12s5p4d2f1g contracted to 6s4p3d1f1g pattern {711111/2111/211/2/1}
 Group   3 Type H   : 5s2p1d contracted to 3s1p1d pattern {311/2/1}
 Group   4 Type Cl  : 14s5p5d2f1g contracted to 8s4p3d1f1g pattern {71111111/2111/311/2/1}

Atom   0C    basis set group =>   1
Atom   1C    basis set group =>   1
Atom   2C    basis set group =>   1
Atom   3C    basis set group =>   1
Atom   4C    basis set group =>   1
Atom   5C    basis set group =>   1
Atom   6C    basis set group =>   1
Atom   7O    basis set group =>   2
Atom   8C    basis set group =>   1
Atom   9H    basis set group =>   3
Atom  10H    basis set group =>   3
Atom  11H    basis set group =>   3
Atom  12H    basis set group =>   3
Atom  13H    basis set group =>   3
Atom  14Cl   basis set group =>   4
Atom  15H    basis set group =>   3
Atom  16H    basis set group =>   3


           ************************************************************
           *        Program running with 4 parallel MPI-processes     *
           *              working on a common directory               *
           ************************************************************
------------------------------------------------------------------------------
                             ORCA STARTUP CALCULATIONS
                           -- RI-GTO INTEGRALS CHOSEN --
------------------------------------------------------------------------------
------------------------------------------------------------------------------
                   ___                                                        
                  /   \      - P O W E R E D   B Y -                         
                 /     \                                                     
                 |  |  |   _    _      __       _____    __    __             
                 |  |  |  | |  | |    /  \     |  _  \  |  |  /  |          
                  \  \/   | |  | |   /    \    | | | |  |  | /  /          
                 / \  \   | |__| |  /  /\  \   | |_| |  |  |/  /          
                |  |  |   |  __  | /  /__\  \  |    /   |      \           
                |  |  |   | |  | | |   __   |  |    \   |  |\   \          
                \     /   | |  | | |  |  |  |  | |\  \  |  | \   \       
                 \___/    |_|  |_| |__|  |__|  |_| \__\ |__|  \__/        
                                                                              
                      - O R C A' S   B I G   F R I E N D -                    
                                      &                                       
                       - I N T E G R A L  F E E D E R -                       
                                                                              
 v1 FN, 2020, v2 2021, v3 2022-2024                                           
------------------------------------------------------------------------------


----------------------
SHARK INTEGRAL PACKAGE
----------------------

Number of atoms                             ...     17
Number of basis functions                   ...    704
Number of shells                            ...    274
Maximum angular momentum                    ...      3
Integral batch strategy                     ... SHARK/LIBINT Hybrid
RI-J (if used) integral strategy            ... SPLIT-RIJ (Revised 2003 algorithm where possible)
Printlevel                                  ...      1
Contraction scheme used                     ... PARTIAL GENERAL contraction
Prescreening option                         ... SCHWARTZ
   Thresh                                   ... 2.500e-11
   Tcut                                     ... 2.500e-12
   Tpresel                                  ... 2.500e-12 
Coulomb Range Separation                    ... NOT USED
Exchange Range Separation                   ... NOT USED
Multipole approximations                    ... NOT USED
Finite Nucleus Model                        ... NOT USED
CABS basis                                  ... NOT available
Auxiliary Coulomb fitting basis             ... AVAILABLE
   # of basis functions in Aux-J            ...    569
   # of shells in Aux-J                     ...    187
   Maximum angular momentum in Aux-J        ...      4
Auxiliary J/K fitting basis                 ... NOT available
Auxiliary Correlation fitting basis         ... NOT available
Auxiliary 'external' fitting basis          ... NOT available

Checking pre-screening integrals            ... done (  0.0 sec) Dimension = 274
Save PGC pre-screening integrals            ... done (  0.0 sec) Dimension = 274
Calculate PGC overlap integrals             ... done (  0.1 sec) Dimension = 205
Calculating pre-screening integrals (ORCA)  ... done (  0.4 sec) Dimension = 205
Check shell pair data                       ... done (  0.1 sec)
Shell pair information
Shell pair cut-off parameter TPreSel        ...   2.5e-12
Total number of shell pairs                 ...     37675
Shell pairs after pre-screening             ...     30114
Total number of primitive shell pairs       ...     47019
Primitive shell pairs kept                  ...     35336
          la=0 lb=0:   6718 shell pairs
          la=1 lb=0:   7783 shell pairs
          la=1 lb=1:   2039 shell pairs
          la=2 lb=0:   5259 shell pairs
          la=2 lb=1:   2673 shell pairs
          la=2 lb=2:    924 shell pairs
          la=3 lb=0:   2453 shell pairs
          la=3 lb=1:   1230 shell pairs
          la=3 lb=2:    834 shell pairs
          la=3 lb=3:    201 shell pairs

Calculating one electron integrals          ... done (  0.1 sec)
Calculating RI/J V-Matrix + Cholesky decomp.... done (  0.1 sec)
Calculating Nuclear repulsion               ... done (  0.0 sec) ENN=    541.752827776454 Eh

Diagonalization of the overlap matrix:
Smallest eigenvalue                        ... 7.064e-07
Time for diagonalization                   ...    0.064 sec
Threshold for overlap eigenvalues          ... 1.000e-07
Number of eigenvalues below threshold      ... 0

IMPORTANT:
Smallest eigenvalue of S below the DiffSThresh (1.000e-06) while
Thresh>1e-12 and/or TCut>1e-13! In order to avoid SCF convergence issues,
Thresh will be set to at least 1e-12 and TCut to at least 1e-13.
This can be turned off by adding %SCF DiffSThresh -1 END to the input.

Time for construction of square roots      ...    0.069 sec
Total time needed                          ...    0.164 sec

-------------------
DFT GRID GENERATION
-------------------

General Integration Accuracy     IntAcc      ... 4.388
Radial Grid Type                 RadialGrid  ... OptM3 with GC (2021)
Angular Grid (max. ang.)         AngularGrid ... 4 (Lebedev-302)
Angular grid pruning method      GridPruning ... 4 (adaptive)
Weight generation scheme         WeightScheme... mBecke (2022)
Basis function cutoff            BFCut       ... 1.0000e-11
Integration weight cutoff        WCut        ... 1.0000e-14
Partially contracted basis set               ... off
Rotationally invariant grid construction     ... off
Angular grids for H and He will be reduced by one unit
Diffuse basis detected: some atoms will have their outermost
                        angular grid increased by 1.

Total number of grid points                  ...    87851
Total number of batches                      ...     1382
Average number of points per batch           ...       63
Average number of grid points per atom       ...     5168

---------------------
SHARK GRID GENERATION
---------------------

General Integration Accuracy     IntAcc      ... 4.388
Radial Grid Type                 RadialGrid  ... OptM3 with GC (2021)
Angular Grid (max. ang.)         AngularGrid ... 4 (Lebedev-302)
Angular grid pruning method      GridPruning ... 4 (adaptive)
Weight generation scheme         WeightScheme... mBecke (2022)
Basis function cutoff            BFCut       ... 1.0000e-11
Integration weight cutoff        WCut        ... 1.0000e-14
Partially contracted basis set               ... off
Rotationally invariant grid construction     ... off
Angular grids for H and He will be reduced by one unit
Diffuse basis detected: some atoms will have their outermost
                        angular grid increased by 1.
Core-polarized basis detected: some atoms will have their core
                               angular grid increased.
Steep s-basis detected: some atoms will have their radial
                        grid points doubled.

Total number of grid points                  ...   156956
Total number of batches                      ...     2461
Average number of points per batch           ...       63
Average number of grid points per atom       ...     9233

--------------------
COSX GRID GENERATION
--------------------

GRIDX 1
-------
General Integration Accuracy     IntAcc      ... 3.816
Radial Grid Type                 RadialGrid  ... OptM3 with GC (2021)
Angular Grid (max. ang.)         AngularGrid ... 1 (Lebedev-50)
Angular grid pruning method      GridPruning ... 4 (adaptive)
Weight generation scheme         WeightScheme... mBecke (2022)
Basis function cutoff            BFCut       ... 1.0000e-11
Integration weight cutoff        WCut        ... 1.0000e-14
Partially contracted basis set               ... on
Rotationally invariant grid construction     ... off
Angular grids for H and He will be reduced by one unit
Diffuse basis detected: some atoms will have their outermost
                        angular grid increased by 1.

Total number of grid points                  ...    12265
Total number of batches                      ...      102
Average number of points per batch           ...      120
Average number of grid points per atom       ...      721
UseSFitting                                  ... on

GRIDX 2
-------
General Integration Accuracy     IntAcc      ... 4.020
Radial Grid Type                 RadialGrid  ... OptM3 with GC (2021)
Angular Grid (max. ang.)         AngularGrid ... 2 (Lebedev-110)
Angular grid pruning method      GridPruning ... 4 (adaptive)
Weight generation scheme         WeightScheme... mBecke (2022)
Basis function cutoff            BFCut       ... 1.0000e-11
Integration weight cutoff        WCut        ... 1.0000e-14
Partially contracted basis set               ... on
Rotationally invariant grid construction     ... off
Angular grids for H and He will be reduced by one unit
Diffuse basis detected: some atoms will have their outermost
                        angular grid increased by 1.

Total number of grid points                  ...    26882
Total number of batches                      ...      220
Average number of points per batch           ...      122
Average number of grid points per atom       ...     1581
UseSFitting                                  ... on

GRIDX 3
-------
General Integration Accuracy     IntAcc      ... 4.338
Radial Grid Type                 RadialGrid  ... OptM3 with GC (2021)
Angular Grid (max. ang.)         AngularGrid ... 3 (Lebedev-194)
Angular grid pruning method      GridPruning ... 4 (adaptive)
Weight generation scheme         WeightScheme... mBecke (2022)
Basis function cutoff            BFCut       ... 1.0000e-11
Integration weight cutoff        WCut        ... 1.0000e-14
Partially contracted basis set               ... on
Rotationally invariant grid construction     ... off
Angular grids for H and He will be reduced by one unit
Diffuse basis detected: some atoms will have their outermost
                        angular grid increased by 1.

Total number of grid points                  ...    60194
Total number of batches                      ...      478
Average number of points per batch           ...      125
Average number of grid points per atom       ...     3541
UseSFitting                                  ... on
Initializing property integral containers    ... done (  0.1 sec)

SHARK setup successfully completed in   8.1 seconds

Maximum memory used throughout the entire STARTUP-calculation: 90.6 MB


           ************************************************************
           *        Program running with 4 parallel MPI-processes     *
           *              working on a common directory               *
           ************************************************************
-------------------------------------------------------------------------------
                                 ORCA GUESS
                   Start orbitals & Density for SCF / CASSCF
-------------------------------------------------------------------------------

------------
SCF SETTINGS
------------
Hamiltonian:
 Density Functional     Method          .... DFT(GTOs)
  Functional kind                       .... Exchange
  Functional name                       .... Re-regularized SCAN exchange by Furness et al
  Functional family                     .... MGGA
  Functional refs                              
    [ 0] J. W. Furness, A. D. Kaplan, J. Ning, J. P. Perdew, and J. Sun.,  J. Phys. Chem. Lett. 11, 8208-8215 (2020), doi: 10.1021/acs.jpclett.0c02405
    [ 1] J. W. Furness, A. D. Kaplan, J. Ning, J. P. Perdew, and J. Sun.,  J. Phys. Chem. Lett. 11, 9248-9248 (2020), doi: 10.1021/acs.jpclett.0c03077
  Functional external parameters        .... 6
    Parameter  0 _c1        =  6.670000e-01 : c1 parameter        
    Parameter  1 _c2        =  8.000000e-01 : c2 parameter        
    Parameter  2 _d         =  1.240000e+00 : d parameter         
    Parameter  3 _k1        =  6.500000e-02 : k1 parameter        
    Parameter  4 _eta       =  1.000000e-03 : eta parameter       
    Parameter  5 _dp2       =  3.610000e-01 : dp2 parameter       
  Functional kind                       .... Correlation
  Functional name                       .... Re-regularized SCAN correlation by Furness et al
  Functional family                     .... MGGA
  Functional refs                              
    [ 0] J. W. Furness, A. D. Kaplan, J. Ning, J. P. Perdew, and J. Sun.,  J. Phys. Chem. Lett. 11, 8208-8215 (2020), doi: 10.1021/acs.jpclett.0c02405
    [ 1] J. W. Furness, A. D. Kaplan, J. Ning, J. P. Perdew, and J. Sun.,  J. Phys. Chem. Lett. 11, 9248-9248 (2020), doi: 10.1021/acs.jpclett.0c03077
  Functional external parameters        .... 1
    Parameter  0 _eta       =  1.000000e-03 : Regularization parameter
 Gradients option       PostSCFGGA      .... off
 Hybrid DFT is turned on
   Fraction HF Exchange ScalHFX         ....  0.100000
   Scaling of DF-GGA-X  ScalDFX         ....  0.900000
   Scaling of DF-GGA-C  ScalDFC         ....  1.000000
   Scaling of DF-LDA-C  ScalLDAC        ....  1.000000
   Perturbative correction              ....  0.000000
   NL short-range parameter             .... 11.900000
 RI-approximation to the Coulomb term is turned on
   Number of AuxJ basis functions       .... 569
   RIJ-COSX (HFX calculated with COS-X)).... on


General Settings:
 Integral files         IntName         .... cs_rporg_145_ox_solv_04
 Hartree-Fock type      HFTyp           .... RHF
 Total Charge           Charge          ....    0
 Multiplicity           Mult            ....    1
 Number of Electrons    NEL             ....   80
 Basis Dimension        Dim             ....  625
 Nuclear Repulsion      ENuc            ....    541.7528277765 Eh

Convergence Acceleration:
 AO-DIIS                CNVDIIS         .... on
   Start iteration      DIISMaxIt       ....     0
   Startup error        DIISStart       ....  0.200000
   # of expansion vecs  DIISMaxEq       ....     5
   Bias factor          DIISBfac        ....   1.050
   Max. coefficient     DIISMaxC        ....  10.000
 MO-DIIS                CNVKDIIS        .... off
 Trust-Rad. Augm. Hess. CNVTRAH         .... auto
   Auto Start mean grad. ratio tolernc. ....  1.125000
   Auto Start start iteration           ....    50
   Auto Start num. interpolation iter.  ....    10
   Max. Number of Micro iterations      ....    24
   Max. Number of Macro iterations      .... Maxiter - #DIIS iter
   Number of Davidson start vectors     ....     2
   Converg. threshold    (grad. norm)   ....   1.000e-05
   Grad. Scal. Fac. for Micro threshold ....   0.100
   Minimum threshold for Micro iter.    ....   1.000e-02
   NR start threshold (gradient norm)   ....   1.000e-04
   Initial trust radius                 ....   0.400
   Minimum AH scaling param. (alpha)    ....   1.000
   Maximum AH scaling param. (alpha)    .... 1000.000
   Quad. conv. algorithm                .... NR
   White noise on init. David. guess    .... on
   Maximum white noise                  ....   0.010
   Pseudo random numbers                .... off
   Inactive MOs                         .... canonical
   Orbital update algorithm             .... Taylor
   Preconditioner                       .... Diag
   Full preconditioner red. dimension   ....   250
 SOSCF                  CNVSOSCF        .... on
   Start iteration      SOSCFMaxIt      ....   150
   Startup grad/error   SOSCFStart      ....  0.001000
   Hessian update       SOSCFHessUp     .... L-BFGS
 Level Shifting         CNVShift        .... on
   Level shift para.    LevelShift      ....    0.2500
   Turn off err/grad.   ShiftErr        ....    0.0000
 Zerner damping         CNVZerner       .... off
 Static damping         CNVDamp         .... on
   Fraction old density DampFac         ....    0.8500
   Max. Damping (<1)    DampMax         ....    0.9800
   Min. Damping (>=0)   DampMin         ....    0.0000
   Turn off err/grad.   DampErr         ....    0.0300

SCF Procedure:
 Maximum # iterations   MaxIter         ....  1500
 SCF integral mode      SCFMode         .... Direct
   Integral package                     .... SHARK and LIBINT hybrid scheme
 Reset frequency        DirectResetFreq ....    20
 Integral Threshold     Thresh          ....  1.000e-12 Eh
 Primitive CutOff       TCut            ....  1.000e-13 Eh

Convergence Tolerance:
 Convergence Check Mode ConvCheckMode   .... Total+1el-Energy
 Convergence forced     ConvForced      .... 0
 Energy Change          TolE            ....  1.000e-08 Eh
 1-El. energy change                    ....  1.000e-05 Eh
 Orbital Gradient       TolG            ....  1.000e-05
 Orbital Rotation angle TolX            ....  1.000e-05
 DIIS Error             TolErr          ....  5.000e-07

------------------------------
INITIAL GUESS: MODEL POTENTIAL
------------------------------
Loading Hartree-Fock densities                     ... done
Calculating cut-offs                               ... done
Initializing the effective Hamiltonian             ... done
Setting up the integral package (SHARK)            ... done
Starting the Coulomb interaction                   ... done (   0.5 sec)
Making the grid                                    ... done (   0.3 sec)
Mapping shells                                     ... done
Starting the XC term evaluation                    ... done (   0.7 sec)
  promolecular density results
     # of electrons  =     79.999779810
     EX              =    -78.493398365
     EC              =     -2.761710620
     EX+EC           =    -81.255108985
Transforming the Hamiltonian                       ... done (   0.1 sec)
Diagonalizing the Hamiltonian                      ... done (   0.1 sec)
Back transforming the eigenvectors                 ... done (   0.0 sec)
Now organizing SCF variables                       ... done
                      ------------------
                      INITIAL GUESS DONE (   1.9 sec)
                      ------------------
             **** ENERGY FILE WAS UPDATED (cs_rporg_145_ox_solv_04.en.tmp) ****
Finished Guess after   2.7 sec
Maximum memory used throughout the entire GUESS-calculation: 54.6 MB


           ************************************************************
           *        Program running with 4 parallel MPI-processes     *
           *              working on a common directory               *
           ************************************************************

-------------------------------------------------------------------------------------------
                                      ORCA LEAN-SCF
                              memory conserving SCF solver
-------------------------------------------------------------------------------------------

--------------------
CPCM SOLVATION MODEL
--------------------
CPCM parameters:
  Epsilon                                         ...      35.6880
  Refrac                                          ...       1.3442
  Rsolv                                           ...       2.1900
  Surface type                                    ...    GEPOL SES
  Discretization scheme                           ... Constant num. charges
  Epsilon function type                           ...         CPCM
Solvent:                                          ... ACETONITRILE
SMD-CDS solvent descriptors:
  Soln                                            ...       1.3442
  Soln25                                          ...       1.3416
  Sola                                            ...       0.0700
  Solb                                            ...       0.3200
  Solg                                            ...      41.2500
  Solc                                            ...       0.0000
  Solh                                            ...       0.0000
Radii:
  Scheme                                          ... Element-dependent radii
  Radius for C  used is    3.4960 Bohr (=   1.8500 Ang.)
  Radius for O  used is    4.0969 Bohr (=   2.1680 Ang.)
  Radius for H  used is    2.2677 Bohr (=   1.2000 Ang.)
  Radius for Cl used is    4.4975 Bohr (=   2.3800 Ang.)
Calculating surface                               ...        done! (  0.0s)
Cavity surface points                             ...          566
Cavity Volume                                     ...    1278.4605
Cavity Surface-area                               ...     694.7943
Calculating surface distance matrix               ...        done! (  0.0s)
Performing Cholesky decomposition & store         ...        done! (  0.0s)
Overall time for CPCM initialization              ...                 0.1s

----------------------------------------D-I-I-S--------------------------------------------
Iteration    Energy (Eh)           Delta-E    RMSDP     MaxDP     DIISErr   Damp  Time(sec)
-------------------------------------------------------------------------------------------
               ***  Starting incremental Fock matrix formation  ***
    1    -844.1680902695943587     0.00e+00  1.07e-03  7.46e-02  2.81e-01  0.850  21.0
    2    -844.2283339965410960    -6.02e-02  1.02e-03  6.33e-02  1.98e-01  0.850  13.3
                               ***Turning on AO-DIIS***
    3    -844.2676379822669332    -3.93e-02  7.15e-04  4.34e-02  1.26e-01  0.850  13.2
    4    -844.2926212405011483    -2.50e-02  5.75e-04  3.32e-02  1.04e-01  0.850  13.3
    5    -844.3107550931838432    -1.81e-02  4.83e-04  2.67e-02  9.10e-02  0.850  13.1
    6    -844.3251624467909551    -1.44e-02  4.11e-04  2.18e-02  7.83e-02  0.850  12.7
    7    -844.3370422499451706    -1.19e-02  3.49e-04  1.78e-02  6.48e-02  0.850  12.8
    8    -844.3468395384495579    -9.80e-03  2.93e-04  1.49e-02  5.25e-02  0.850  12.7
    9    -844.3548503166437058    -8.01e-03  2.47e-04  1.26e-02  4.40e-02  0.850  12.8
   10    -844.3614507576792221    -6.60e-03  2.10e-04  1.05e-02  3.77e-02  0.850  12.6
   11    -844.3669444798492805    -5.49e-03  1.79e-04  8.88e-03  3.21e-02  0.850  12.4
   12    -844.3715374841583525    -4.59e-03  1.52e-04  7.48e-03  2.67e-02  0.850  12.5
   13    -844.3753789960194354    -3.84e-03  8.57e-04  4.20e-02  2.21e-02  0.000  12.4
   14    -844.3961155996910293    -2.07e-02  3.01e-05  1.61e-03  2.05e-03  0.000  12.9
                              *** Initializing SOSCF ***
---------------------------------------S-O-S-C-F--------------------------------------
Iteration    Energy (Eh)           Delta-E    RMSDP     MaxDP     MaxGrad    Time(sec)
--------------------------------------------------------------------------------------
   15    -844.3961251799528327    -9.58e-06  1.28e-05  7.84e-04  6.19e-04    11.9
               *** Restarting incremental Fock matrix formation ***
   16    -844.3961261587558056    -9.79e-07  3.34e-04  1.47e-02  5.32e-05    20.9
   17    -844.3961259755071751     1.83e-07  4.91e-05  2.15e-03  1.17e-04    17.2
   18    -844.3961262860857460    -3.11e-07  5.53e-05  2.41e-03  5.13e-06    16.0
   19    -844.3961262876066485    -1.52e-09  2.59e-06  1.17e-04  4.01e-06    15.8
                 **** Energy Check signals convergence ****

               *****************************************************
               *                     SUCCESS                       *
               *           SCF CONVERGED AFTER  19 CYCLES          *
               *****************************************************

Recomputing exchange energy using gridx3       ... done (   26.796 sec)
Old exchange energy                            :     -7.970445801 Eh
New exchange energy                            :     -7.970468467 Eh
Exchange energy change after final integration :     -0.000022666 Eh
Total energy after final integration           :   -844.396148954 Eh

SMD CDS free energy correction energy :                -2.66998     Kcal/mol
Total Energy after SMD CDS correction =              -844.400403839 Eh
             **** ENERGY FILE WAS UPDATED (cs_rporg_145_ox_solv_04.en.tmp) ****

----------------
TOTAL SCF ENERGY
----------------

Total Energy       :       -844.40040383862095 Eh          -22977.30313 eV

Components:
Nuclear Repulsion  :        541.75282777645430 Eh           14741.84390 eV
Electronic Energy  :      -1386.13674107387669 Eh          -37718.69831 eV
One Electron Energy:      -2230.14540265464166 Eh          -60685.34159 eV
Two Electron Energy:        844.00866158076497 Eh           22966.64328 eV
CPCM Dielectric    :         -0.01221299018416 Eh              -0.33233 eV
SMD CDS (Gcds)     :         -0.00425488512089 Eh              -0.11578 eV

Virial components:
Potential Energy   :      -1685.45439571543875 Eh          -45863.54577 eV
Kinetic Energy     :        841.05399187681769 Eh           22886.24263 eV
Virial Ratio       :          2.00397883131657

DFT components:
N(Alpha)           :       40.000021343594 electrons
N(Beta)            :       40.000021343594 electrons
N(Total)           :       80.000042687189 electrons
E(X)               :      -71.926045294367 Eh       
E(C)               :       -2.703990820427 Eh       
E(XC)              :      -74.630036114794 Eh       

CPCM Solvation Model Properties:
Surface-charge          :         -0.02729926434057
Corrected charge        :         -0.00000000000000
Outlying charge corr.   :          0.00004934098634 Eh               0.00134 eV
Free-energy (cav+disp)  :         -0.00425488512089 Eh              -0.11578 eV

---------------
SCF CONVERGENCE
---------------

  Last Energy change         ...    1.5209e-09  Tolerance :   1.0000e-08
  Last MAX-Density change    ...    1.1697e-04  Tolerance :   1.0000e-07
  Last RMS-Density change    ...    2.5900e-06  Tolerance :   5.0000e-09
  Last DIIS Error            ...    6.1874e-04  Tolerance :   5.0000e-07
  Last Orbital Gradient      ...    4.0098e-06  Tolerance :   1.0000e-05
  Last Orbital Rotation      ...    9.2973e-06  Tolerance :   1.0000e-05


----------------
ORBITAL ENERGIES
----------------

  NO   OCC          E(Eh)            E(eV) 
   0   2.0000    -101.596700     -2764.5868 
   1   2.0000     -19.107592      -519.9440 
   2   2.0000     -10.250254      -278.9236 
   3   2.0000     -10.236487      -278.5490 
   4   2.0000     -10.180543      -277.0267 
   5   2.0000     -10.178115      -276.9606 
   6   2.0000     -10.178010      -276.9577 
   7   2.0000     -10.177682      -276.9488 
   8   2.0000     -10.176507      -276.9168 
   9   2.0000     -10.151043      -276.2239 
  10   2.0000      -9.507901      -258.7231 
  11   2.0000      -7.226726      -196.6492 
  12   2.0000      -7.218788      -196.4332 
  13   2.0000      -7.218169      -196.4164 
  14   2.0000      -1.052992       -28.6534 
  15   2.0000      -0.904194       -24.6044 
  16   2.0000      -0.849127       -23.1059 
  17   2.0000      -0.767456       -20.8835 
  18   2.0000      -0.760250       -20.6875 
  19   2.0000      -0.721457       -19.6318 
  20   2.0000      -0.623237       -16.9591 
  21   2.0000      -0.617081       -16.7916 
  22   2.0000      -0.551923       -15.0186 
  23   2.0000      -0.503332       -13.6964 
  24   2.0000      -0.476169       -12.9572 
  25   2.0000      -0.459267       -12.4973 
  26   2.0000      -0.442757       -12.0480 
  27   2.0000      -0.435575       -11.8526 
  28   2.0000      -0.424151       -11.5417 
  29   2.0000      -0.416452       -11.3322 
  30   2.0000      -0.400972       -10.9110 
  31   2.0000      -0.385524       -10.4906 
  32   2.0000      -0.362792        -9.8721 
  33   2.0000      -0.359647        -9.7865 
  34   2.0000      -0.348029        -9.4703 
  35   2.0000      -0.334467        -9.1013 
  36   2.0000      -0.314419        -8.5558 
  37   2.0000      -0.268980        -7.3193 
  38   2.0000      -0.252743        -6.8775 
  39   2.0000      -0.247531        -6.7357 
  40   0.0000      -0.079795        -2.1713 
  41   0.0000      -0.039586        -1.0772 
  42   0.0000       0.005463         0.1487 
  43   0.0000       0.011749         0.3197 
  44   0.0000       0.013620         0.3706 
  45   0.0000       0.021976         0.5980 
  46   0.0000       0.025627         0.6973 
  47   0.0000       0.037233         1.0132 
  48   0.0000       0.041275         1.1231 
  49   0.0000       0.043813         1.1922 
  50   0.0000       0.052067         1.4168 
*Only the first 10 virtual orbitals were printed.

                    ********************************
                    * MULLIKEN POPULATION ANALYSIS *
                    ********************************

-----------------------
MULLIKEN ATOMIC CHARGES
-----------------------
   0 C :   -0.264964
   1 C :   -0.907042
   2 C :    0.572109
   3 C :   -0.721245
   4 C :   -0.867249
   5 C :    1.480946
   6 C :    0.731936
   7 O :   -0.951066
   8 C :   -0.589701
   9 H :    0.254041
  10 H :    0.254570
  11 H :    0.162946
  12 H :    0.218038
  13 H :    0.463829
  14 Cl:   -0.418637
  15 H :    0.421855
  16 H :    0.159634
Sum of atomic charges:   -0.0000000

--------------------------------
MULLIKEN REDUCED ORBITAL CHARGES
--------------------------------
  0 C s       :     3.793628  s :     3.793628
      pz      :     0.962686  p :     2.415639
      px      :     0.486933
      py      :     0.966020
      dz2     :    -0.021763  d :     0.072929
      dxz     :    -0.004028
      dyz     :     0.017871
      dx2y2   :    -0.117141
      dxy     :     0.197990
      f0      :     0.001292  f :    -0.017233
      f+1     :     0.000412
      f-1     :    -0.000193
      f+2     :     0.000238
      f-2     :    -0.000122
      f+3     :     0.004229
      f-3     :    -0.023090

  1 C s       :     3.998416  s :     3.998416
      pz      :     0.963946  p :     2.654071
      px      :     0.831260
      py      :     0.858865
      dz2     :     0.011344  d :     0.275584
      dxz     :     0.017155
      dyz     :     0.002131
      dx2y2   :     0.136144
      dxy     :     0.108811
      f0      :     0.000544  f :    -0.021029
      f+1     :    -0.000050
      f-1     :     0.000560
      f+2     :     0.000151
      f-2     :     0.000912
      f+3     :     0.003336
      f-3     :    -0.026482

  2 C s       :     2.987479  s :     2.987479
      pz      :     1.014165  p :     2.777380
      px      :     0.392854
      py      :     1.370360
      dz2     :    -0.028179  d :    -0.306232
      dxz     :    -0.027821
      dyz     :     0.017146
      dx2y2   :     0.009263
      dxy     :    -0.276641
      f0      :     0.003366  f :    -0.030736
      f+1     :    -0.001036
      f-1     :     0.001448
      f+2     :     0.003084
      f-2     :    -0.001875
      f+3     :    -0.003085
      f-3     :    -0.032638

  3 C s       :     3.818525  s :     3.818525
      pz      :     0.971403  p :     2.657868
      px      :     0.782768
      py      :     0.903697
      dz2     :     0.005150  d :     0.262033
      dxz     :     0.024873
      dyz     :     0.004599
      dx2y2   :     0.136047
      dxy     :     0.091365
      f0      :     0.000662  f :    -0.017181
      f+1     :     0.000465
      f-1     :     0.000938
      f+2     :     0.000243
      f-2     :     0.001003
      f+3     :     0.003565
      f-3     :    -0.024056

  4 C s       :     4.072893  s :     4.072893
      pz      :     0.920619  p :     2.663720
      px      :     0.713293
      py      :     1.029809
      dz2     :    -0.015695  d :     0.147040
      dxz     :     0.005114
      dyz     :     0.016171
      dx2y2   :    -0.038172
      dxy     :     0.179621
      f0      :     0.000793  f :    -0.016404
      f+1     :    -0.001364
      f-1     :    -0.000115
      f+2     :     0.000457
      f-2     :    -0.000019
      f+3     :     0.002356
      f-3     :    -0.018513

  5 C s       :     2.731780  s :     2.731780
      pz      :     0.986721  p :     1.959825
      px      :     0.274292
      py      :     0.698812
      dz2     :    -0.024012  d :    -0.056587
      dxz     :     0.001992
      dyz     :    -0.008894
      dx2y2   :    -0.057667
      dxy     :     0.031993
      f0      :     0.000118  f :    -0.115964
      f+1     :    -0.005800
      f-1     :    -0.000365
      f+2     :    -0.001082
      f-2     :    -0.004152
      f+3     :    -0.007364
      f-3     :    -0.097320

  6 C s       :     3.402296  s :     3.402296
      pz      :     0.613578  p :     1.863130
      px      :     0.661728
      py      :     0.587823
      dz2     :     0.004572  d :     0.028374
      dxz     :    -0.003423
      dyz     :     0.024709
      dx2y2   :     0.053110
      dxy     :    -0.050593
      f0      :     0.000026  f :    -0.025737
      f+1     :    -0.000218
      f-1     :     0.000361
      f+2     :     0.004936
      f-2     :     0.002071
      f+3     :    -0.002895
      f-3     :    -0.030017

  7 O s       :     4.157114  s :     4.157114
      pz      :     1.412777  p :     4.732985
      px      :     1.814049
      py      :     1.506158
      dz2     :     0.002093  d :     0.055176
      dxz     :     0.007263
      dyz     :     0.016280
      dx2y2   :     0.014217
      dxy     :     0.015323
      f0      :     0.000680  f :     0.005791
      f+1     :     0.000241
      f-1     :     0.000037
      f+2     :     0.000434
      f-2     :     0.001031
      f+3     :     0.000624
      f-3     :     0.002742

  8 C s       :     3.407462  s :     3.407462
      pz      :     1.119303  p :     3.109246
      px      :     1.030453
      py      :     0.959490
      dz2     :     0.007676  d :     0.066773
      dxz     :     0.014239
      dyz     :     0.021669
      dx2y2   :     0.008721
      dxy     :     0.014467
      f0      :    -0.000364  f :     0.006220
      f+1     :    -0.000448
      f-1     :    -0.001527
      f+2     :     0.000841
      f-2     :     0.001132
      f+3     :     0.004461
      f-3     :     0.002125

  9 H s       :     0.695646  s :     0.695646
      pz      :     0.009903  p :     0.042159
      px      :     0.011815
      py      :     0.020441
      dz2     :     0.002901  d :     0.008154
      dxz     :     0.001588
      dyz     :     0.000411
      dx2y2   :     0.002314
      dxy     :     0.000939

 10 H s       :     0.695192  s :     0.695192
      pz      :     0.009953  p :     0.042076
      px      :     0.011753
      py      :     0.020370
      dz2     :     0.002897  d :     0.008162
      dxz     :     0.001590
      dyz     :     0.000423
      dx2y2   :     0.002315
      dxy     :     0.000937

 11 H s       :     0.789316  s :     0.789316
      pz      :     0.016594  p :     0.040350
      px      :     0.014878
      py      :     0.008878
      dz2     :    -0.000108  d :     0.007389
      dxz     :     0.002928
      dyz     :     0.000771
      dx2y2   :     0.001573
      dxy     :     0.002225

 12 H s       :     0.779644  s :     0.779644
      pz      :     0.022331  p :    -0.004758
      px      :    -0.029711
      py      :     0.002622
      dz2     :    -0.000279  d :     0.007077
      dxz     :     0.001464
      dyz     :     0.003933
      dx2y2   :     0.002201
      dxy     :    -0.000242

 13 H s       :     0.553404  s :     0.553404
      pz      :     0.016223  p :    -0.022765
      px      :    -0.025817
      py      :    -0.013171
      dz2     :    -0.000487  d :     0.005532
      dxz     :     0.001053
      dyz     :     0.004900
      dx2y2   :    -0.000403
      dxy     :     0.000470

 14 Cls       :     6.079448  s :     6.079448
      pz      :     3.945683  p :    11.276455
      px      :     3.247790
      py      :     4.082983
      dz2     :     0.005007  d :     0.056079
      dxz     :     0.024993
      dyz     :     0.000927
      dx2y2   :     0.015890
      dxy     :     0.009262
      f0      :     0.001381  f :     0.006656
      f+1     :     0.000930
      f-1     :     0.000197
      f+2     :     0.001397
      f-2     :     0.000041
      f+3     :     0.001371
      f-3     :     0.001339

 15 H s       :     0.588981  s :     0.588981
      pz      :     0.017078  p :    -0.016842
      px      :    -0.022623
      py      :    -0.011297
      dz2     :    -0.000285  d :     0.006006
      dxz     :     0.001007
      dyz     :     0.004963
      dx2y2   :    -0.000607
      dxy     :     0.000928

 16 H s       :     0.819194  s :     0.819194
      pz      :     0.024127  p :     0.009492
      px      :    -0.017922
      py      :     0.003287
      dz2     :    -0.000215  d :     0.011680
      dxz     :     0.001050
      dyz     :     0.004046
      dx2y2   :     0.004925
      dxy     :     0.001873



                     *******************************
                     * LOEWDIN POPULATION ANALYSIS *
                     *******************************

----------------------
LOEWDIN ATOMIC CHARGES
----------------------
   0 C :    0.203107
   1 C :    0.122284
   2 C :   -0.797446
   3 C :    0.119711
   4 C :    0.189115
   5 C :   -0.133647
   6 C :   -0.548071
   7 O :    0.484417
   8 C :    0.572989
   9 H :   -0.156827
  10 H :   -0.156770
  11 H :   -0.176559
  12 H :   -0.182341
  13 H :   -0.185182
  14 Cl:    0.999232
  15 H :   -0.184052
  16 H :   -0.169957

-------------------------------
LOEWDIN REDUCED ORBITAL CHARGES
-------------------------------
  0 C s       :     2.481066  s :     2.481066
      pz      :     0.578355  p :     2.259496
      px      :     0.845123
      py      :     0.836018
      dz2     :     0.069939  d :     0.710252
      dxz     :     0.112663
      dyz     :     0.061435
      dx2y2   :     0.215312
      dxy     :     0.250903
      f0      :     0.020954  f :     0.346079
      f+1     :     0.028569
      f-1     :     0.022566
      f+2     :     0.048187
      f-2     :     0.027821
      f+3     :     0.061979
      f-3     :     0.136003

  1 C s       :     2.499280  s :     2.499280
      pz      :     0.612230  p :     2.311373
      px      :     0.860895
      py      :     0.838248
      dz2     :     0.072367  d :     0.717922
      dxz     :     0.103353
      dyz     :     0.064226
      dx2y2   :     0.212680
      dxy     :     0.265296
      f0      :     0.021949  f :     0.349142
      f+1     :     0.029832
      f-1     :     0.023762
      f+2     :     0.048117
      f-2     :     0.029192
      f+3     :     0.062662
      f-3     :     0.133627

  2 C s       :     2.531938  s :     2.531938
      pz      :     0.674828  p :     2.399828
      px      :     0.786631
      py      :     0.938369
      dz2     :     0.109068  d :     1.211398
      dxz     :     0.220472
      dyz     :     0.131462
      dx2y2   :     0.423548
      dxy     :     0.326848
      f0      :     0.044046  f :     0.654283
      f+1     :     0.044268
      f-1     :     0.035705
      f+2     :     0.097475
      f-2     :     0.058034
      f+3     :     0.104300
      f-3     :     0.270453

  3 C s       :     2.500383  s :     2.500383
      pz      :     0.611742  p :     2.313042
      px      :     0.864115
      py      :     0.837186
      dz2     :     0.072254  d :     0.718666
      dxz     :     0.101834
      dyz     :     0.064935
      dx2y2   :     0.211618
      dxy     :     0.268025
      f0      :     0.021848  f :     0.348198
      f+1     :     0.029613
      f-1     :     0.023773
      f+2     :     0.048443
      f-2     :     0.028408
      f+3     :     0.062352
      f-3     :     0.133762

  4 C s       :     2.484170  s :     2.484170
      pz      :     0.573161  p :     2.260641
      px      :     0.851095
      py      :     0.836384
      dz2     :     0.071006  d :     0.713507
      dxz     :     0.111598
      dyz     :     0.060332
      dx2y2   :     0.216489
      dxy     :     0.254082
      f0      :     0.021250  f :     0.352567
      f+1     :     0.029955
      f-1     :     0.022477
      f+2     :     0.047964
      f-2     :     0.028608
      f+3     :     0.064024
      f-3     :     0.138289

  5 C s       :     2.471993  s :     2.471993
      pz      :     0.622586  p :     2.290419
      px      :     0.817054
      py      :     0.850779
      dz2     :     0.090323  d :     0.886909
      dxz     :     0.100253
      dyz     :     0.122862
      dx2y2   :     0.313009
      dxy     :     0.260463
      f0      :     0.030020  f :     0.484326
      f+1     :     0.036386
      f-1     :     0.034261
      f+2     :     0.030831
      f-2     :     0.068816
      f+3     :     0.078697
      f-3     :     0.205316

  6 C s       :     2.495181  s :     2.495181
      pz      :     0.516150  p :     2.192021
      px      :     0.825140
      py      :     0.850730
      dz2     :     0.101560  d :     1.224517
      dxz     :     0.134661
      dyz     :     0.198848
      dx2y2   :     0.403290
      dxy     :     0.386159
      f0      :     0.041902  f :     0.636353
      f+1     :     0.035238
      f-1     :     0.042343
      f+2     :     0.066383
      f-2     :     0.069288
      f+3     :     0.125544
      f-3     :     0.255655

  7 O s       :     3.181551  s :     3.181551
      pz      :     1.144948  p :     4.024986
      px      :     1.452192
      py      :     1.427846
      dz2     :     0.027652  d :     0.230761
      dxz     :     0.011701
      dyz     :     0.025864
      dx2y2   :     0.087704
      dxy     :     0.077841
      f0      :     0.005071  f :     0.078286
      f+1     :     0.004051
      f-1     :     0.008690
      f+2     :     0.003742
      f-2     :     0.007664
      f+3     :     0.017069
      f-3     :     0.032000

  8 C s       :     2.461350  s :     2.461350
      pz      :     0.773954  p :     2.306143
      px      :     0.770170
      py      :     0.762019
      dz2     :     0.084146  d :     0.478031
      dxz     :     0.027586
      dyz     :     0.118515
      dx2y2   :     0.145080
      dxy     :     0.102704
      f0      :     0.012333  f :     0.181487
      f+1     :     0.015802
      f-1     :     0.030151
      f+2     :     0.017337
      f-2     :     0.018588
      f+3     :     0.030543
      f-3     :     0.056733

  9 H s       :     0.611626  s :     0.611626
      pz      :     0.127568  p :     0.318126
      px      :     0.092331
      py      :     0.098227
      dz2     :     0.077912  d :     0.227076
      dxz     :     0.041789
      dyz     :     0.046635
      dx2y2   :     0.030266
      dxy     :     0.030474

 10 H s       :     0.611561  s :     0.611561
      pz      :     0.127591  p :     0.318131
      px      :     0.092408
      py      :     0.098131
      dz2     :     0.077904  d :     0.227078
      dxz     :     0.041787
      dyz     :     0.046697
      dx2y2   :     0.030268
      dxy     :     0.030422

 11 H s       :     0.630759  s :     0.630759
      pz      :     0.086355  p :     0.314484
      px      :     0.139707
      py      :     0.088421
      dz2     :     0.016543  d :     0.231316
      dxz     :     0.071336
      dyz     :     0.014082
      dx2y2   :     0.049810
      dxy     :     0.079545

 12 H s       :     0.642132  s :     0.642132
      pz      :     0.073329  p :     0.311971
      px      :     0.115045
      py      :     0.123597
      dz2     :     0.026859  d :     0.228238
      dxz     :     0.020342
      dyz     :     0.042406
      dx2y2   :     0.080972
      dxy     :     0.057659

 13 H s       :     0.660111  s :     0.660111
      pz      :     0.078442  p :     0.305814
      px      :     0.098626
      py      :     0.128747
      dz2     :     0.023631  d :     0.219257
      dxz     :     0.018922
      dyz     :     0.045217
      dx2y2   :     0.074512
      dxy     :     0.056975

 14 Cls       :     5.332456  s :     5.332456
      pz      :     3.576596  p :    10.346482
      px      :     3.198612
      py      :     3.571275
      dz2     :     0.026564  d :     0.245645
      dxz     :     0.075819
      dyz     :     0.001980
      dx2y2   :     0.062610
      dxy     :     0.078672
      f0      :     0.008068  f :     0.076185
      f+1     :     0.009668
      f-1     :     0.002181
      f+2     :     0.014606
      f-2     :     0.001010
      f+3     :     0.014853
      f-3     :     0.025798

 15 H s       :     0.658905  s :     0.658905
      pz      :     0.078632  p :     0.305716
      px      :     0.097753
      py      :     0.129332
      dz2     :     0.023683  d :     0.219431
      dxz     :     0.018247
      dyz     :     0.046040
      dx2y2   :     0.074102
      dxy     :     0.057359

 16 H s       :     0.634101  s :     0.634101
      pz      :     0.075884  p :     0.311385
      px      :     0.111433
      py      :     0.124068
      dz2     :     0.024276  d :     0.224471
      dxz     :     0.019536
      dyz     :     0.045015
      dx2y2   :     0.079788
      dxy     :     0.055857



                      *****************************
                      * MAYER POPULATION ANALYSIS *
                      *****************************

  NA   - Mulliken gross atomic population
  ZA   - Total nuclear charge
  QA   - Mulliken gross atomic charge
  VA   - Mayer's total valence
  BVA  - Mayer's bonded valence
  FA   - Mayer's free valence

  ATOM       NA         ZA         QA         VA         BVA        FA
  0 C      6.2650     6.0000    -0.2650     2.1187     2.1187    -0.0000
  1 C      6.9070     6.0000    -0.9070     2.8556     2.8556    -0.0000
  2 C      5.4279     6.0000     0.5721     2.6412     2.6412     0.0000
  3 C      6.7212     6.0000    -0.7212     3.0512     3.0512    -0.0000
  4 C      6.8672     6.0000    -0.8672     2.4740     2.4740    -0.0000
  5 C      4.5191     6.0000     1.4809     0.9819     0.9819     0.0000
  6 C      5.2681     6.0000     0.7319     2.5988     2.5988    -0.0000
  7 O      8.9511     8.0000    -0.9511     1.1388     1.1388    -0.0000
  8 C      6.5897     6.0000    -0.5897     3.8888     3.8888    -0.0000
  9 H      0.7460     1.0000     0.2540     0.9406     0.9406    -0.0000
 10 H      0.7454     1.0000     0.2546     0.9402     0.9402    -0.0000
 11 H      0.8371     1.0000     0.1629     1.0320     1.0320    -0.0000
 12 H      0.7820     1.0000     0.2180     1.0131     1.0131     0.0000
 13 H      0.5362     1.0000     0.4638     0.6871     0.6871    -0.0000
 14 Cl    17.4186    17.0000    -0.4186     0.6297     0.6297     0.0000
 15 H      0.5781     1.0000     0.4219     0.7572     0.7572     0.0000
 16 H      0.8404     1.0000     0.1596     1.0107     1.0107    -0.0000

  Mayer bond orders larger than 0.100000
B(  0-C ,  1-C ) :   0.8375 B(  0-C ,  3-C ) :  -0.1405 B(  0-C ,  4-C ) :  -0.3217 
B(  0-C ,  5-C ) :   0.4590 B(  0-C , 16-H ) :   1.1856 B(  1-C ,  2-C ) :   1.2442 
B(  1-C ,  3-C ) :   0.1708 B(  1-C , 14-Cl) :   0.1131 B(  1-C , 15-H ) :   0.6473 
B(  2-C ,  3-C ) :   1.2165 B(  2-C ,  4-C ) :  -0.1357 B(  2-C , 14-Cl) :   0.4460 
B(  3-C ,  4-C ) :   1.2700 B(  3-C ,  5-C ) :  -0.1096 B(  3-C , 13-H ) :   0.6172 
B(  3-C , 14-Cl) :   0.1254 B(  4-C ,  5-C ) :   0.2921 B(  4-C ,  6-C ) :   0.2518 
B(  4-C , 12-H ) :   0.9456 B(  5-C ,  6-C ) :   0.3379 B(  5-C ,  7-O ) :   0.1479 
B(  5-C ,  8-C ) :   0.1156 B(  5-C , 16-H ) :  -0.1348 B(  6-C ,  7-O ) :   0.8850 
B(  6-C ,  8-C ) :   0.9373 B(  8-C ,  9-H ) :   0.9543 B(  8-C , 10-H ) :   0.9534 
B(  8-C , 11-H ) :   0.9658 

-------
TIMINGS
-------

Total SCF time: 0 days 0 hours 4 min 57 sec 

Total time                  ....     297.809 sec
Sum of individual times     ....     297.088 sec  ( 99.8%)

SCF preparation             ....       1.071 sec  (  0.4%)
Fock matrix formation       ....     285.644 sec  ( 95.9%)
  Startup                   ....       0.942 sec  (  0.3% of F)
  Split-RI-J                ....      16.847 sec  (  5.9% of F)
  Chain of spheres X        ....     161.192 sec  ( 56.4% of F)
  XC integration            ....      97.146 sec  ( 34.0% of F)
    XC Preparation          ....       0.000 sec  (  0.0% of XC)
    Basis function eval.    ....      11.121 sec  ( 11.4% of XC)
    Density eval.           ....      30.452 sec  ( 31.3% of XC)
    XC-Functional eval.     ....       1.418 sec  (  1.5% of XC)
    XC-Potential eval.      ....      51.883 sec  ( 53.4% of XC)
  CPCM terms                ....       7.364 sec  (  2.6% of F)
Diagonalization             ....       0.000 sec  (  0.0%)
Density matrix formation    ....       1.854 sec  (  0.6%)
Total Energy calculation    ....       0.956 sec  (  0.3%)
Population analysis         ....       0.282 sec  (  0.1%)
Orbital Transformation      ....       0.443 sec  (  0.1%)
Orbital Orthonormalization  ....       0.000 sec  (  0.0%)
DIIS solution               ....       5.819 sec  (  2.0%)
SOSCF solution              ....       1.019 sec  (  0.3%)
Finished LeanSCF after 298.0 sec

Maximum memory used throughout the entire LEANSCF-calculation: 94.9 MB


-------------------------------------------------------------------------------
                          DFT DISPERSION CORRECTION                            
                                                                               
                              DFTD3 V3.1  Rev 1                                
                          USING Becke-Johnson damping                          
-------------------------------------------------------------------------------
The R2SCANh functional is recognized
Active option DFTDOPT                   ...         4   

molecular C6(AA) [au] = 4182.274111 


            DFT-D V3
 parameters
 s6 scaling factor         :     1.0000 
 a1 scaling factor         :     0.4709 
 s8 scaling factor         :     1.1236 
 a2 scaling factor         :     5.9157 
 ad hoc parameters k1-k3   :    16.0000     1.3333    -4.0000 

 Edisp/kcal,au: -3.823294486480  -0.006092806940 
 E6   /kcal   :  -2.712577940 
 E8   /kcal   :  -1.110716546 
 % E8         :  29.051294639 

-------------------------   ----------------
Dispersion correction           -0.006092807
-------------------------   ----------------


-------------------------   --------------------
FINAL SINGLE POINT ENERGY      -844.406496645561
-------------------------   --------------------



           ************************************************************
           *        Program running with 4 parallel MPI-processes     *
           *              working on a common directory               *
           ************************************************************

------------------------------------------------------------------------------
                              ORCA PROPERTY CALCULATIONS
------------------------------------------------------------------------------

GBWName                                 ... cs_rporg_145_ox_solv_04.gbw
Number of atoms                         ...     17
Number of basis functions               ...    704
Max core memory                         ...   3000 MB

Electric properties:
Dipole moment                           ... YES
Quadrupole moment                       ...  NO
Static polarizability (Dipole/Dipole)   ...  NO
Static polarizability (Dipole/Quad.)    ...  NO
Static polarizability (Quad./Quad.)     ...  NO
Static polarizability (Velocity)        ...  NO

Atomic electric properties:
Dipole moment                           ...  NO
Quadrupole moment                       ...  NO
Static polarizability                   ...  NO

Choice of electric origin               ... Center of mass
Position of electric origin             ...     0.014110    -0.005056    -0.000193

General magnetic properties:
Magnetizability                         ...  NO

EPR properties:
g-Tensor (aka g-matrix)                 ...  NO
Zero-Field splitting spin-orbit         ...  NO
Zero-field splitting spin-spin          ...  NO
Hyperfine couplings                     ...  NO (   0 nuclei)
Quadrupole couplings                    ...  NO (   0 nuclei)
Contact density                         ...  NO (   0 nuclei)

NMR properties:
Chemical shifts                         ...  NO (   0 nuclei)
Spin-rotation constants                 ...  NO (   0 nuclei)
Spin-spin couplings                     ...  NO (   0 nuclei,    0 pairs)

Choice of magnetic origin               ... GIAO
Position of magnetic origin             ...     0.000000     0.000000     0.000000

Properties with geometric perturbations:
SCF Hessian                             ...  NO
IR spectrum                             ...  NO
VCD spectrum                            ...  NO
X-ray spectroscopy properties:
SCF XES/XAS/RIXS spectra                ...  NO


-------------
DIPOLE MOMENT
-------------

Method             : SCF
Type of density    : Electron Density
Multiplicity       :   1
Irrep              :   0
Energy             :  -844.4004038386209459 Eh
Relativity type    : 
Basis              : AO
                                X                 Y                 Z
Electronic contribution:     14.091798348      -2.954965764       0.001115075
Nuclear contribution   :    -13.920982286       4.293464133       0.000100521
                        -----------------------------------------
Total Dipole Moment    :      0.170816062       1.338498369       0.001215596
                        -----------------------------------------
Magnitude (a.u.)       :      1.349354471
Magnitude (Debye)      :      3.429786495



--------------------
Rotational spectrum 
--------------------
 
Rotational constants in cm-1:             0.122841             0.018421             0.016068 
Rotational constants in MHz :          3682.693671           552.250394           481.695849 

Dipole components along the rotational axes: 
x,y,z [a.u.] :    -0.167037     1.338975     0.001050 
x,y,z [Debye]:    -0.424575     3.403405     0.002668 

 

Dipole moment calculation done in   0.1 sec 

Maximum memory used throughout the entire PROP-calculation: 55.3 MB

--------------------------------
SUGGESTED CITATIONS FOR THIS RUN
--------------------------------

Below you find a list of papers that are relevant to this ORCA run
We neither can nor want to force you to cite these papers, but we appreciate if you do
You receive ORCA, which is the product of decades of hard work by many enthusiastic individuals, for free
The only thing we kindly ask in return is that you cite our papers,
We deeply appreciate it, if you show your appreciation for ORCA by not just citing the generic ORCA reference.

Please note that relegating all ORCA citations to the supporting information does *not* help us.
SI sections are not indexed - citations you put there will not count into any citation statistics
But we need these citations in order to attract the funding resources that allow us to do what we are doing

Therefore, if you are a happy ORCA user, please consider citing a few of the papers listed below in the main body of your paper

In addition to the list printed below, the program has created the file cs_rporg_145_ox_solv_04.bibtex that contains the list in bibtex format
You can import this file easily into all common literature databanks and citation aid programs


List of essential papers. We consider these as the minimum necessary citations

  1. Neese,F.
     Software update: the ORCA program system, version 5.0
     WIRES Comput. Molec. Sci., 2022 12(1)e1606
     doi.org/10.1002/wcms.1606

List of papers to cite with high priority. The work reported in these papers was absolutely
necessary for this run to complete.
Our perspective: the developers of density functionals and basis sets usually get cited in chemistry papers
Good! But without the algorithms to do something with them, the functionals or basis sets would not do anything.
Hence, in our opinion, the algorithm design and method developments papers are equally worthy of getting cited

  1. Neese,F.
     An improvement of the resolution of the identity approximation for the formation of the Coulomb matrix
     J. Comp. Chem., 2003 24(14)1740-1747
     doi.org/10.1002/jcc.10318
  2. Neese,F.; Wennmohs,F.; Hansen,A.; Becker,U.
     Efficient, approximate and parallel Hartree-Fock and hybrid DFT calculations. A 'chain-of-spheres' algorithm for the Hartree-Fock exchange
     Chem. Phys., 2009 356(1-3)98-109
     doi.org/10.1016/j.chemphys.2008.10.036
  3. Garcia-Rates,M.; Neese,F.
     Effect of the Solute Cavity on the Solvation Energy and its Derivatives within the Framework of the Gaussian Charge Scheme
     J. Comput. Chem., 2020 41 922-939
     doi.org/10.1002/jcc.26139
  4. Helmich-Paris,B.; de Souza,B.; Neese,F.; Izsák,R.
     An improved chain of spheres for exchange algorithm
     J. Chem. Phys., 2021 155 104109
     doi.org/doi: 10.1063/5.0058766.
  5. Neese,F.
     The SHARK Integral Generation and Digestion System
     J. Comp. Chem., 2022  1-16
     doi.org/10.1002/jcc.26942
  6. Lehtola,S.; Steigemann,C.; Oliveira,M.; Marques,M.
     Recent developments in Libxc - A comprehensive library of functionals for density functional theory
     Software X, 2018 7 
     doi.org/10.1016/j.softx.2017.11.002
  7. Grimme,S.; Antony,J.; Ehrlich,S.; Krieg,H.
     A consistent and accurate ab initio parametrization of density functional dispersion correction (DFT-D) for the 94 elements H-Pu
     J. Chem. Phys., 2010 132 154104-XXXX
     doi.org/10.1063/1.3382344
  8. Grimme,S.; Ehrlich,S.; Goerigk,L.
     Effect of the damping function in dispersion corrected density functional theory
     J. Comput. Chem., 2011 32(7)1456-1465
     doi.org/10.1002/jcc.21759
  9. Bursch,M.; Neugebauer,H.; Ehlert,S.; Grimme,S.
     Dispersion corrected r2SCAN based global hybrid functionals: r2SCANh, r2SCAN0, and r2SCAN50
     J. Phys. Chem., 2022 156(13)134105
     doi.org/10.1063/5.0086040

List of suggested additional citations. These are papers that are important in the 'surrounding' of 
of this run, or papers that preceded the highly important papers. If you like your results we are grateful for a citation.

  1. Izsak,R.; Neese,F.
     An overlap fitted chain of spheres exchange method
     J. Chem. Phys., 2011 135 144105
     doi.org/10.1063/1.3646921
  2. Izsak,R.; Hansen,A.; Neese,F.
     The resolution of identity and chain of spheres approximations for the LPNO-CCSD singles Fock term
     Molec. Phys., 2012 110 2413-2417
     doi.org/10.1080/00268976.2012.687466
  3. Neese,F.
     The ORCA program system
     WIRES Comput. Molec. Sci., 2012 2(1)73-78
     doi.org/10.1002/wcms.81
  4. Izsak,R.; Neese,F.; Klopper,W.
     Robust fitting techniques in the chain of spheres approximation to the Fock exchange: The role of the complementary space
     J. Chem. Phys., 2013 139 
     doi.org/10.1063/1.4819264
  5. Neese,F.
     Software update: the ORCA program system, version 4.0
     WIRES Comput. Molec. Sci., 2018 8(1)1-6
     doi.org/10.1002/wcms.1327
  6. Neese,F.; Wennmohs,F.; Becker,U.; Riplinger,C.
     The ORCA quantum chemistry program package
     J. Chem. Phys., 2020 152 Art. No. L224108
     doi.org/10.1063/5.0004608
  7. Wittmann,L.; Neugebauer,H.; Grimme,S.; Bursch,M.
     Dispersion-corrected r2SCAN based double-hybrid functionals
     J. Chem. Phys., 2023 159(22)224103
     doi.org/10.1063/5.0174988

List of optional additional citations

  1. Neese,F.
     Approximate second-order SCF convergence for spin unrestricted wavefunctions
     Chem. Phys. Lett., 2000 325(1-3)93-98
     doi.org/10.1016/s0009-2614(00)00662-x

Timings for individual modules:

Sum of individual times          ...      315.698 sec (=   5.262 min)
Startup calculation              ...       10.578 sec (=   0.176 min)   3.4 %
SCF iterations                   ...      303.222 sec (=   5.054 min)  96.0 %
Property calculations            ...        1.898 sec (=   0.032 min)   0.6 %
                             ****ORCA TERMINATED NORMALLY****
TOTAL RUN TIME: 0 days 0 hours 5 minutes 18 seconds 388 msec
