
                                 *****************
                                 * O   R   C   A *
                                 *****************

                                            #,                                       
                                            ###                                      
                                            ####                                     
                                            #####                                    
                                            ######                                   
                                           ########,                                 
                                     ,,################,,,,,                         
                               ,,#################################,,                 
                          ,,##########################################,,             
                       ,#########################################, ''#####,          
                    ,#############################################,,   '####,        
                  ,##################################################,,,,####,       
                ,###########''''           ''''###############################       
              ,#####''   ,,,,##########,,,,          '''####'''          '####       
            ,##' ,,,,###########################,,,                        '##       
           ' ,,###''''                  '''############,,,                           
         ,,##''                                '''############,,,,        ,,,,,,###''
      ,#''                                            '''#######################'''  
     '                                                          ''''####''''         
             ,#######,   #######,   ,#######,      ##                                
            ,#'     '#,  ##    ##  ,#'     '#,    #''#        ,####,   ,####,        
            ##       ##  ##   ,#'  ##            #'  '#       #'       #'  '#        
            ##       ##  #######   ##           ,######,      #####,   #    #        
            '#,     ,#'  ##    ##  '#,     ,#' ,#      #,     #,   #   #,  ,#        
             '#######'   ##     ##  '#######'  #'      '#     '####' # '####'        



                #########################################################
                #                        -***-                          #
                #          Department of theory and spectroscopy        #
                #                                                       #
                #                      Frank Neese                      #
                #                                                       #
                #     Directorship, Architecture, Infrastructure        #
                #                    SHARK, DRIVERS                     #
                #        Core code/Algorithms in most modules           #
                #                                                       #
                #        Max Planck Institute fuer Kohlenforschung      #
                #                Kaiser Wilhelm Platz 1                 #
                #                 D-45470 Muelheim/Ruhr                 #
                #                      Germany                          #
                #                                                       #
                #                  All rights reserved                  #
                #                        -***-                          #
                #########################################################


                         Program Version 6.0.0  -   RELEASE  -


 With contributions from (in alphabetic order):
   Daniel Aravena         : Magnetic Suceptibility
   Michael Atanasov       : Ab Initio Ligand Field Theory (pilot matlab implementation)
   Alexander A. Auer      : GIAO ZORA, VPT2 properties, NMR spectrum
   Ute Becker             : All parallelization in ORCA, NUMFREQ, NUMCALC
   Giovanni Bistoni       : ED, misc. LED, open-shell LED, HFLD
   Martin Brehm           : Molecular dynamics
   Dmytro Bykov           : pre 5.0 version of the SCF Hessian
   Marcos Casanova-Páez   : Triplet and SCS-CIS(D). UHF-(DLPNO)-IP/EA/STEOM-CCSD. UHF-CVS-IP/STEOM-CCSD
   Vijay G. Chilkuri      : MRCI spin determinant printing, contributions to CSF-ICE
   Pauline Colinet        : FMM embedding
   Dipayan Datta          : RHF DLPNO-CCSD density
   Achintya Kumar Dutta   : EOM-CC, STEOM-CC
   Nicolas Foglia         : Exact transition moments, OPA infrastructure, MCD improvements
   Dmitry Ganyushin       : Spin-Orbit,Spin-Spin,Magnetic field MRCI
   Miquel Garcia          : C-PCM and meta-GGA Hessian, CCSD/C-PCM, Gaussian charge scheme
   Tiago L. C. Gouveia    : GS-ROHF, GS-ROCIS
   Yang Guo               : DLPNO-NEVPT2, F12-NEVPT2, CIM, IAO-localization
   Andreas Hansen         : Spin unrestricted coupled pair/coupled cluster methods
   Ingolf Harden          : AUTO-CI MPn and infrastructure 
   Benjamin Helmich-Paris : MC-RPA, TRAH-(SCF,CASSCF), AVAS, COSX integrals, SCF dyn. polar.
   Lee Huntington         : MR-EOM, pCC
   Robert Izsak           : Overlap fitted RIJCOSX, COSX-SCS-MP3, EOM
   Riya Kayal             : Wick's Theorem for AUTO-CI, AUTO-CI UHF-CCSDT
   Emily Kempfer          : AUTO-CI, RHF CISDT and CCSDT
   Christian Kollmar      : KDIIS, OOCD, Brueckner-CCSD(T), CCSD density, CASPT2, CASPT2-K, improved NEVPT2
   Axel Koslowski         : Symmetry handling
   Simone Kossmann        : Meta GGA functionals, TD-DFT gradient, OOMP2, (MP2 Hessian; deprecated post 5.0)
   Lucas Lang             : DCDCAS
   Marvin Lechner         : AUTO-CI (C++ implementation), FIC-MRCC
   Spencer Leger          : CASSCF response
   Dagmar Lenk            : GEPOL surface, SMD, ORCA-2-JSON
   Dimitrios Liakos       : Extrapolation schemes; Compound Job, initial MDCI parallelization
   Dimitrios Manganas     : Further ROCIS development; embedding schemes. LFT, Crystal Embedding
   Dimitrios Pantazis     : SARC Basis sets
   Anastasios Papadopoulos: AUTO-CI, single reference methods and gradients
   Taras Petrenko         : pre 6.0 DFT Hessian and TD-DFT gradient, (ASA, deprecated), ECA, 1-Electron XAS/XES, NRVS
   Peter Pinski           : DLPNO-MP2, DLPNO-MP2 Gradient
   Christoph Reimann      : Effective Core Potentials
   Marius Retegan         : Local ZFS, SOC
   Christoph Riplinger    : Optimizer, TS searches, QM/MM, DLPNO-CCSD(T), (RO)-DLPNO pert. Triples
   Michael Roemelt        : Original ROCIS implementation
   Masaaki Saitow         : Open-shell DLPNO-CCSD energy and density
   Barbara Sandhoefer     : DKH picture change effects
   Kantharuban Sivalingam : CASSCF convergence/infrastructure, NEVPT2 and variants, FIC-MRCI
   Bernardo de Souza      : ESD, SOC TD-DFT
   Georgi Stoychev        : AutoAux, RI-MP2 NMR, DLPNO-MP2 response, X2C
   Van Anh Tran           : RI-MP2 g-tensors
   Willem Van den Heuvel  : Paramagnetic NMR
   Zikuan Wang            : NOTCH, Electric field optimization 
   Frank Wennmohs         : Technical directorship and infrastructure
   Hang Xu                : AUTO-CI-Response properties 


 We gratefully acknowledge several colleagues who have allowed us to
 interface, adapt or use parts of their codes:
   Stefan Grimme, W. Hujo, H. Kruse, P. Pracht,  : VdW corrections, initial TS optimization,
                  C. Bannwarth, S. Ehlert,         DFT functionals, gCP, sTDA/sTD-DF
                  L. Wittmann, M. Mueller
   Ed Valeev, F. Pavosevic, A. Kumar             : LibInt (2-el integral package), F12 methods
   Garnet Chan, S. Sharma, J. Yang, R. Olivares  : DMRG
   Ulf Ekstrom                                   : XCFun DFT Library
   Mihaly Kallay                                 : mrcc  (arbitrary order and MRCC methods)
   Frank Weinhold                                : gennbo (NPA and NBO analysis)
   Simon Mueller                                 : openCOSMO-RS
   Christopher J. Cramer and Donald G. Truhlar   : smd solvation model
   Lars Goerigk                                  : TD-DFT with DH, B97 family of functionals
   V. Asgeirsson, H. Jonsson                     : NEB implementation
   FAccTs GmbH                                   : IRC, NEB, NEB-TS, DLPNO-Multilevel, CI-OPT
                                                   MM, QMMM, 2- and 3-layer-ONIOM, Crystal-QMMM,
                                                   LR-CPCM, SF, NACMEs, symmetry and pop. for TD-DFT,
                                                   nearIR, NL-DFT gradient (VV10), updates on ESD,
                                                   ML-optimized integration grids, MBIS, APM,
                                                   GOAT, DOCKER, SOLVATOR, interface openCOSMO-RS
   S Lehtola, MJT Oliveira, MAL Marques          : LibXC Library
   Liviu Ungur et al                             : ANISO software


 Your calculation uses the libint2 library for the computation of 2-el integrals
 For citations please refer to: http://libint.valeyev.net

 Your ORCA version has been built with support for libXC version: 6.2.2
 For citations please refer to: https://libxc.gitlab.io

 This ORCA versions uses:
   CBLAS   interface :  Fast vector & matrix operations
   LAPACKE interface :  Fast linear algebra routines
   SCALAPACK package :  Parallel linear algebra routines
   Shared memory     :  Shared parallel matrices
   BLAS/LAPACK       :  OpenBLAS 0.3.27  USE64BITINT DYNAMIC_ARCH NO_AFFINITY Haswell SINGLE_THREADED
        Core in use  :  Haswell
   Copyright (c) 2011-2014, The OpenBLAS Project


NOTE: MaxCore=3000 MB was set to SCF,MP2,MDCI,CIPSI,MRCI and CIS
      => If you want to overwrite this, your respective input block should be placed after the MaxCore statement
Your calculation utilizes the atom-pairwise dispersion correction
with the Becke-Johnson damping scheme (D3BJ)


Your calculation utilizes the SMD solvation module
Please cite in your paper:
A.V. Marenich, C.J. Cramer, D.G. Truhlar J. Phys. Chem. B, 113, (2009), 6378 

Warning: RI is on but no J-basis has been assigned. Assigning Def2/J (nothing to worry about!)
================================================================================

----- Orbital basis set information -----
Your calculation utilizes the basis: aug-cc-pVTZ 
    H, B-Ne : Obtained from the ccRepo (grant-hill.group.shef.ac.uk/ccrepo) Feb. 2017
              R. A. Kendall, T. H. Dunning, Jr., R. J. Harrison, J. Chem. Phys. 96, 6796 (1992)
         He : Obtained from the ccRepo (grant-hill.group.shef.ac.uk/ccrepo) Feb. 2017
              D. E. Woon, T. H. Dunning, Jr., J. Chem. Phys. 100, 2975 (1994)
  Li-Be, Na : Obtained from the ccRepo (grant-hill.group.shef.ac.uk/ccrepo) Feb. 2017
              B. P. Prascher, D. E. Woon, K. A. Peterson, T. H. Dunning, Jr., A. K. Wilson, Theor. Chem. Acc. 128, 69 (2011)
         Mg : Obtained from the Peterson Research Group Website (tyr0.chem.wsu.edu/~kipeters) Feb. 2017
              B. P. Prascher, D. E. Woon, K. A. Peterson, T. H. Dunning, Jr., A. K. Wilson, Theor. Chem. Acc. 128, 69 (2011)
      Al-Ar : Obtained from the ccRepo (grant-hill.group.shef.ac.uk/ccrepo) Feb. 2017
              D. E. Woon, T. H. Dunning, Jr., J. Chem. Phys. 98, 1358 (1993)
      Sc-Zn : Obtained from the ccRepo (grant-hill.group.shef.ac.uk/ccrepo) Feb. 2017
              N. B. Balabanov, K. A. Peterson, J. Chem. Phys. 123, 064107 (2005)
              N. B. Balabanov, K. A. Peterson, J. Chem. Phys. 125, 074110 (2006)
      Ga-Kr : Obtained from the ccRepo (grant-hill.group.shef.ac.uk/ccrepo) Feb. 2017
              A. K. Wilson, D. E. Woon, K. A. Peterson, T. H. Dunning, Jr., J. Chem. Phys. 110, 7667 (1999)
     Ag, Au : Obtained from the Peterson Research Group Website (tyr0.chem.wsu.edu/~kipeters) Feb. 2017
              K. A. Peterson, C. Puzzarini, Theor. Chem. Acc. 114, 283 (2005)

----- AuxJ basis set information -----
Your calculation utilizes the auxiliary basis: def2/J
   F. Weigend, Phys. Chem. Chem. Phys. 8, 1057 (2006).

================================================================================
                                        WARNINGS
                       Please study these warnings very carefully!
================================================================================


================================================================================
                                       INPUT FILE
================================================================================
NAME = cs_rporg_018_red_solv_01.inp
|  1> !TPSSh aug-cc-pVTZ d3 TightSCF SlowConv RIJCOSX defgrid2
|  2>  
|  3> %pal
|  4> nprocs 4
|  5> end
|  6>  
|  7> %scf
|  8> MaxIter 1500
|  9> end
| 10>  
| 11> %maxcore 3000
| 12>  
| 13> !CPCM
| 14> %cpcm smd true
| 15> SMDsolvent "MeCN"
| 16> surfacetype gepol_ses
| 17> rsolv 2.19
| 18> end 
| 19>  
| 20> * xyz 0 1
| 21> C          -0.33578897576289      0.78706332413970     -0.00007064342653
| 22> C          -1.63104450940735      0.25443214150099      0.00002424994707
| 23> C          -1.80666505085776     -1.13184792287007      0.00010488474499
| 24> C          -0.67709514280741     -1.95709297790421      0.00008171672668
| 25> C           0.60485199074243     -1.42986794226310     -0.00000896897667
| 26> C           0.79403740595386     -0.03404919740528     -0.00007754792200
| 27> C           2.11776775675579      0.59942775277408     -0.00015788147995
| 28> C           3.31301096591764     -0.01037680773538      0.00016998990263
| 29> C           4.62672268480693      0.69670422006693      0.00006613977785
| 30> H           5.22986800286636      0.42062681248378     -0.88556810108390
| 31> H           5.22969209158747      0.42121685919020      0.88600364391119
| 32> H           4.49947065542959      1.79239087728672     -0.00031400154329
| 33> H           3.35830731979376     -1.10765129675188      0.00055685548665
| 34> H           2.10183131012046      1.69773297660842     -0.00050241232510
| 35> H           1.46480294351024     -2.10372145346859     -0.00005885954138
| 36> H          -0.81507815522221     -3.04272899333565      0.00012435061663
| 37> H          -2.80202830314914     -1.57931173714880      0.00017356816380
| 38> O          -2.63880088575063      1.15236499149081      0.00002597094029
| 39> C          -3.95583677666632      0.68525859520605      0.00017372040280
| 40> H          -4.60351833384684      1.57486457447649      0.00019490121742
| 41> H          -4.17725863855936      0.08018155004781      0.90083429325456
| 42> H          -4.17743481291300      0.08009944047560     -0.90038823724126
| 43> H          -0.23264934254160      1.87564721313537     -0.00013303155248
| 44> *
| 45> 
| 46>                          ****END OF INPUT****
================================================================================

                       ****************************
                       * Single Point Calculation *
                       ****************************

---------------------------------
CARTESIAN COORDINATES (ANGSTROEM)
---------------------------------
  C     -0.335789    0.787063   -0.000071
  C     -1.631045    0.254432    0.000024
  C     -1.806665   -1.131848    0.000105
  C     -0.677095   -1.957093    0.000082
  C      0.604852   -1.429868   -0.000009
  C      0.794037   -0.034049   -0.000078
  C      2.117768    0.599428   -0.000158
  C      3.313011   -0.010377    0.000170
  C      4.626723    0.696704    0.000066
  H      5.229868    0.420627   -0.885568
  H      5.229692    0.421217    0.886004
  H      4.499471    1.792391   -0.000314
  H      3.358307   -1.107651    0.000557
  H      2.101831    1.697733   -0.000502
  H      1.464803   -2.103721   -0.000059
  H     -0.815078   -3.042729    0.000124
  H     -2.802028   -1.579312    0.000174
  O     -2.638801    1.152365    0.000026
  C     -3.955837    0.685259    0.000174
  H     -4.603518    1.574865    0.000195
  H     -4.177259    0.080182    0.900834
  H     -4.177435    0.080099   -0.900388
  H     -0.232649    1.875647   -0.000133

----------------------------
CARTESIAN COORDINATES (A.U.)
----------------------------
  NO LB      ZA    FRAG     MASS         X           Y           Z
   0 C     6.0000    0    12.011   -0.634549    1.487334   -0.000133
   1 C     6.0000    0    12.011   -3.082227    0.480807    0.000046
   2 C     6.0000    0    12.011   -3.414102   -2.138883    0.000198
   3 C     6.0000    0    12.011   -1.279524   -3.698370    0.000154
   4 C     6.0000    0    12.011    1.143005   -2.702059   -0.000017
   5 C     6.0000    0    12.011    1.500513   -0.064344   -0.000147
   6 C     6.0000    0    12.011    4.002001    1.132754   -0.000298
   7 C     6.0000    0    12.011    6.260683   -0.019609    0.000321
   8 C     6.0000    0    12.011    8.743239    1.316580    0.000125
   9 H     1.0000    0     1.008    9.883018    0.794869   -1.673481
  10 H     1.0000    0     1.008    9.882686    0.795985    1.674304
  11 H     1.0000    0     1.008    8.502767    3.387128   -0.000593
  12 H     1.0000    0     1.008    6.346281   -2.093158    0.001052
  13 H     1.0000    0     1.008    3.971886    3.208250   -0.000949
  14 H     1.0000    0     1.008    2.768076   -3.975457   -0.000111
  15 H     1.0000    0     1.008   -1.540274   -5.749924    0.000235
  16 H     1.0000    0     1.008   -5.295066   -2.984467    0.000328
  17 O     8.0000    0    15.999   -4.986611    2.177654    0.000049
  18 C     6.0000    0    12.011   -7.475448    1.294951    0.000328
  19 H     1.0000    0     1.008   -8.699389    2.976063    0.000368
  20 H     1.0000    0     1.008   -7.893875    0.151521    1.702330
  21 H     1.0000    0     1.008   -7.894208    0.151366   -1.701487
  22 H     1.0000    0     1.008   -0.439644    3.544460   -0.000251

--------------------------------
INTERNAL COORDINATES (ANGSTROEM)
--------------------------------
 C      0   0   0     0.000000000000     0.00000000     0.00000000
 C      1   0   0     1.400493799758     0.00000000     0.00000000
 C      2   1   0     1.397360010146   119.57334193     0.00000000
 C      3   2   1     1.398912998927   118.93120447     0.00000000
 C      4   3   2     1.386129394987   121.49291159     0.00000000
 C      1   2   3     1.396686588290   121.63854745     0.00000000
 C      6   1   2     1.467499606302   118.41819906   180.00097246
 C      7   6   1     1.341815202837   127.39599747   179.98135514
 C      8   7   6     1.491912219606   124.67911004   180.00011385
 H      9   8   7     1.106503962154   111.21003885   239.17061770
 H      9   8   7     1.106503796987   111.21012170   120.82997430
 H      9   8   7     1.103051437739   111.66593701     0.00000000
 H      8   7   6     1.098209093746   119.39422584     0.00000000
 H      7   6   1     1.098420890977   114.74234408     0.00000000
 H      5   4   3     1.092517367468   119.56207478   180.00206550
 H      4   3   2     1.094369622904   118.90785822   180.00122841
 H      3   2   1     1.091316578184   121.42625794   180.00038188
 O      2   1   3     1.349761577892   115.94496589   180.00020912
 C     18   2   1     1.397416167518   118.77045779   180.00258916
 H     19  18   2     1.100404561202   106.52884643   179.99740442
 H     19  18   2     1.107400261419   111.78794203    61.14105768
 H     19  18   2     1.107400167861   111.78811351   298.85367366
 H      1   2   3     1.093459039569   117.76572529   179.99994793

---------------------------
INTERNAL COORDINATES (A.U.)
---------------------------
 C      0   0   0     0.000000000000     0.00000000     0.00000000
 C      1   0   0     2.646549733797     0.00000000     0.00000000
 C      2   1   0     2.640627729668   119.57334193     0.00000000
 C      3   2   1     2.643562453155   118.93120447     0.00000000
 C      4   3   2     2.619404942704   121.49291159     0.00000000
 C      1   2   3     2.639355146789   121.63854745     0.00000000
 C      6   1   2     2.773172357548   118.41819906   180.00097246
 C      7   6   1     2.535663255694   127.39599747   179.98135514
 C      8   7   6     2.819305510906   124.67911004   180.00011385
 H      9   8   7     2.090989454569   111.21003885   239.17061770
 H      9   8   7     2.090989142449   111.21012170   120.82997430
 H      9   8   7     2.084465128954   111.66593701     0.00000000
 H      8   7   6     2.075314424961   119.39422584     0.00000000
 H      7   6   1     2.075714663724   114.74234408     0.00000000
 H      5   4   3     2.064558621067   119.56207478   180.00206550
 H      4   3   2     2.068058876571   118.90785822   180.00122841
 H      3   2   1     2.062289458175   121.42625794   180.00038188
 O      2   1   3     2.550679728306   115.94496589   180.00020912
 C     18   2   1     2.640733851722   118.77045779   180.00258916
 H     19  18   2     2.079463257190   106.52884643   179.99740442
 H     19  18   2     2.092683214715   111.78794203    61.14105768
 H     19  18   2     2.092683037915   111.78811351   298.85367366
 H      1   2   3     2.066338123445   117.76572529   179.99994793

---------------------
BASIS SET INFORMATION
---------------------
There are 3 groups of distinct atoms

 Group   1 Type C   : 19s6p3d2f contracted to 5s4p3d2f pattern {88111/3111/111/11}
 Group   2 Type H   : 6s3p2d contracted to 4s3p2d pattern {3111/111/11}
 Group   3 Type O   : 19s6p3d2f contracted to 5s4p3d2f pattern {88111/3111/111/11}

Atom   0C    basis set group =>   1
Atom   1C    basis set group =>   1
Atom   2C    basis set group =>   1
Atom   3C    basis set group =>   1
Atom   4C    basis set group =>   1
Atom   5C    basis set group =>   1
Atom   6C    basis set group =>   1
Atom   7C    basis set group =>   1
Atom   8C    basis set group =>   1
Atom   9H    basis set group =>   2
Atom  10H    basis set group =>   2
Atom  11H    basis set group =>   2
Atom  12H    basis set group =>   2
Atom  13H    basis set group =>   2
Atom  14H    basis set group =>   2
Atom  15H    basis set group =>   2
Atom  16H    basis set group =>   2
Atom  17O    basis set group =>   3
Atom  18C    basis set group =>   1
Atom  19H    basis set group =>   2
Atom  20H    basis set group =>   2
Atom  21H    basis set group =>   2
Atom  22H    basis set group =>   2
---------------------------------
AUXILIARY/J BASIS SET INFORMATION
---------------------------------
There are 3 groups of distinct atoms

 Group   1 Type C   : 12s5p4d2f1g contracted to 6s4p3d1f1g pattern {711111/2111/211/2/1}
 Group   2 Type H   : 5s2p1d contracted to 3s1p1d pattern {311/2/1}
 Group   3 Type O   : 12s5p4d2f1g contracted to 6s4p3d1f1g pattern {711111/2111/211/2/1}

Atom   0C    basis set group =>   1
Atom   1C    basis set group =>   1
Atom   2C    basis set group =>   1
Atom   3C    basis set group =>   1
Atom   4C    basis set group =>   1
Atom   5C    basis set group =>   1
Atom   6C    basis set group =>   1
Atom   7C    basis set group =>   1
Atom   8C    basis set group =>   1
Atom   9H    basis set group =>   2
Atom  10H    basis set group =>   2
Atom  11H    basis set group =>   2
Atom  12H    basis set group =>   2
Atom  13H    basis set group =>   2
Atom  14H    basis set group =>   2
Atom  15H    basis set group =>   2
Atom  16H    basis set group =>   2
Atom  17O    basis set group =>   3
Atom  18C    basis set group =>   1
Atom  19H    basis set group =>   2
Atom  20H    basis set group =>   2
Atom  21H    basis set group =>   2
Atom  22H    basis set group =>   2


           ************************************************************
           *        Program running with 4 parallel MPI-processes     *
           *              working on a common directory               *
           ************************************************************
------------------------------------------------------------------------------
                             ORCA STARTUP CALCULATIONS
                           -- RI-GTO INTEGRALS CHOSEN --
------------------------------------------------------------------------------
------------------------------------------------------------------------------
                   ___                                                        
                  /   \      - P O W E R E D   B Y -                         
                 /     \                                                     
                 |  |  |   _    _      __       _____    __    __             
                 |  |  |  | |  | |    /  \     |  _  \  |  |  /  |          
                  \  \/   | |  | |   /    \    | | | |  |  | /  /          
                 / \  \   | |__| |  /  /\  \   | |_| |  |  |/  /          
                |  |  |   |  __  | /  /__\  \  |    /   |      \           
                |  |  |   | |  | | |   __   |  |    \   |  |\   \          
                \     /   | |  | | |  |  |  |  | |\  \  |  | \   \       
                 \___/    |_|  |_| |__|  |__|  |_| \__\ |__|  \__/        
                                                                              
                      - O R C A' S   B I G   F R I E N D -                    
                                      &                                       
                       - I N T E G R A L  F E E D E R -                       
                                                                              
 v1 FN, 2020, v2 2021, v3 2022-2024                                           
------------------------------------------------------------------------------


----------------------
SHARK INTEGRAL PACKAGE
----------------------

Number of atoms                             ...     23
Number of basis functions                   ...    848
Number of shells                            ...    328
Maximum angular momentum                    ...      3
Integral batch strategy                     ... SHARK/LIBINT Hybrid
RI-J (if used) integral strategy            ... SPLIT-RIJ (Revised 2003 algorithm where possible)
Printlevel                                  ...      1
Contraction scheme used                     ... PARTIAL GENERAL contraction
Prescreening option                         ... SCHWARTZ
   Thresh                                   ... 2.500e-11
   Tcut                                     ... 2.500e-12
   Tpresel                                  ... 2.500e-12 
Coulomb Range Separation                    ... NOT USED
Exchange Range Separation                   ... NOT USED
Multipole approximations                    ... NOT USED
Finite Nucleus Model                        ... NOT USED
CABS basis                                  ... NOT available
Auxiliary Coulomb fitting basis             ... AVAILABLE
   # of basis functions in Aux-J            ...    671
   # of shells in Aux-J                     ...    225
   Maximum angular momentum in Aux-J        ...      4
Auxiliary J/K fitting basis                 ... NOT available
Auxiliary Correlation fitting basis         ... NOT available
Auxiliary 'external' fitting basis          ... NOT available

Checking pre-screening integrals            ... done (  0.0 sec) Dimension = 328
Save PGC pre-screening integrals            ... done (  0.0 sec) Dimension = 328
Calculate PGC overlap integrals             ... done (  0.2 sec) Dimension = 262
Calculating pre-screening integrals (ORCA)  ... done (  0.3 sec) Dimension = 262
Check shell pair data                       ... done (  0.0 sec)
Shell pair information
Shell pair cut-off parameter TPreSel        ...   2.5e-12
Total number of shell pairs                 ...     53956
Shell pairs after pre-screening             ...     42204
Total number of primitive shell pairs       ...     70194
Primitive shell pairs kept                  ...     50343
          la=0 lb=0:   9575 shell pairs
          la=1 lb=0:  10914 shell pairs
          la=1 lb=1:   2872 shell pairs
          la=2 lb=0:   7543 shell pairs
          la=2 lb=1:   3934 shell pairs
          la=2 lb=2:   1402 shell pairs
          la=3 lb=0:   3050 shell pairs
          la=3 lb=1:   1575 shell pairs
          la=3 lb=2:   1103 shell pairs
          la=3 lb=3:    236 shell pairs

Calculating one electron integrals          ... done (  0.1 sec)
Calculating RI/J V-Matrix + Cholesky decomp.... done (  0.1 sec)
Calculating Nuclear repulsion               ... done (  0.0 sec) ENN=    557.555815540774 Eh

Diagonalization of the overlap matrix:
Smallest eigenvalue                        ... 4.472e-07
Time for diagonalization                   ...    0.139 sec
Threshold for overlap eigenvalues          ... 1.000e-07
Number of eigenvalues below threshold      ... 0

IMPORTANT:
Smallest eigenvalue of S below the DiffSThresh (1.000e-06) while
Thresh>1e-12 and/or TCut>1e-13! In order to avoid SCF convergence issues,
Thresh will be set to at least 1e-12 and TCut to at least 1e-13.
This can be turned off by adding %SCF DiffSThresh -1 END to the input.

Time for construction of square roots      ...    0.117 sec
Total time needed                          ...    0.282 sec

-------------------
DFT GRID GENERATION
-------------------

General Integration Accuracy     IntAcc      ... 4.388
Radial Grid Type                 RadialGrid  ... OptM3 with GC (2021)
Angular Grid (max. ang.)         AngularGrid ... 4 (Lebedev-302)
Angular grid pruning method      GridPruning ... 4 (adaptive)
Weight generation scheme         WeightScheme... mBecke (2022)
Basis function cutoff            BFCut       ... 1.0000e-11
Integration weight cutoff        WCut        ... 1.0000e-14
Partially contracted basis set               ... off
Rotationally invariant grid construction     ... off
Angular grids for H and He will be reduced by one unit
Diffuse basis detected: some atoms will have their outermost
                        angular grid increased by 1.

Total number of grid points                  ...   109705
Total number of batches                      ...     1726
Average number of points per batch           ...       63
Average number of grid points per atom       ...     4770

---------------------
SHARK GRID GENERATION
---------------------

General Integration Accuracy     IntAcc      ... 4.388
Radial Grid Type                 RadialGrid  ... OptM3 with GC (2021)
Angular Grid (max. ang.)         AngularGrid ... 4 (Lebedev-302)
Angular grid pruning method      GridPruning ... 4 (adaptive)
Weight generation scheme         WeightScheme... mBecke (2022)
Basis function cutoff            BFCut       ... 1.0000e-11
Integration weight cutoff        WCut        ... 1.0000e-14
Partially contracted basis set               ... off
Rotationally invariant grid construction     ... off
Angular grids for H and He will be reduced by one unit
Diffuse basis detected: some atoms will have their outermost
                        angular grid increased by 1.
Steep s-basis detected: some atoms will have their radial
                        grid points doubled.

Total number of grid points                  ...   178957
Total number of batches                      ...     2809
Average number of points per batch           ...       63
Average number of grid points per atom       ...     7781

--------------------
COSX GRID GENERATION
--------------------

GRIDX 1
-------
General Integration Accuracy     IntAcc      ... 3.816
Radial Grid Type                 RadialGrid  ... OptM3 with GC (2021)
Angular Grid (max. ang.)         AngularGrid ... 1 (Lebedev-50)
Angular grid pruning method      GridPruning ... 4 (adaptive)
Weight generation scheme         WeightScheme... mBecke (2022)
Basis function cutoff            BFCut       ... 1.0000e-11
Integration weight cutoff        WCut        ... 1.0000e-14
Partially contracted basis set               ... on
Rotationally invariant grid construction     ... off
Angular grids for H and He will be reduced by one unit
Diffuse basis detected: some atoms will have their outermost
                        angular grid increased by 1.

Total number of grid points                  ...    13756
Total number of batches                      ...      119
Average number of points per batch           ...      115
Average number of grid points per atom       ...      598
UseSFitting                                  ... on

GRIDX 2
-------
General Integration Accuracy     IntAcc      ... 4.020
Radial Grid Type                 RadialGrid  ... OptM3 with GC (2021)
Angular Grid (max. ang.)         AngularGrid ... 2 (Lebedev-110)
Angular grid pruning method      GridPruning ... 4 (adaptive)
Weight generation scheme         WeightScheme... mBecke (2022)
Basis function cutoff            BFCut       ... 1.0000e-11
Integration weight cutoff        WCut        ... 1.0000e-14
Partially contracted basis set               ... on
Rotationally invariant grid construction     ... off
Angular grids for H and He will be reduced by one unit
Diffuse basis detected: some atoms will have their outermost
                        angular grid increased by 1.

Total number of grid points                  ...    32928
Total number of batches                      ...      267
Average number of points per batch           ...      123
Average number of grid points per atom       ...     1432
UseSFitting                                  ... on

GRIDX 3
-------
General Integration Accuracy     IntAcc      ... 4.338
Radial Grid Type                 RadialGrid  ... OptM3 with GC (2021)
Angular Grid (max. ang.)         AngularGrid ... 3 (Lebedev-194)
Angular grid pruning method      GridPruning ... 4 (adaptive)
Weight generation scheme         WeightScheme... mBecke (2022)
Basis function cutoff            BFCut       ... 1.0000e-11
Integration weight cutoff        WCut        ... 1.0000e-14
Partially contracted basis set               ... on
Rotationally invariant grid construction     ... off
Angular grids for H and He will be reduced by one unit
Diffuse basis detected: some atoms will have their outermost
                        angular grid increased by 1.

Total number of grid points                  ...    73266
Total number of batches                      ...      587
Average number of points per batch           ...      124
Average number of grid points per atom       ...     3185
UseSFitting                                  ... on
Initializing property integral containers    ... done (  0.0 sec)

SHARK setup successfully completed in  11.6 seconds

Maximum memory used throughout the entire STARTUP-calculation: 100.9 MB


           ************************************************************
           *        Program running with 4 parallel MPI-processes     *
           *              working on a common directory               *
           ************************************************************
-------------------------------------------------------------------------------
                                 ORCA GUESS
                   Start orbitals & Density for SCF / CASSCF
-------------------------------------------------------------------------------

------------
SCF SETTINGS
------------
Hamiltonian:
 Density Functional     Method          .... DFT(GTOs)
 Exchange Functional    Exchange        .... TPSS
 Correlation Functional Correlation     .... TPSS
 LDA part of GGA corr.  LDAOpt          .... PW91-LDA
 Gradients option       PostSCFGGA      .... off
 Hybrid DFT is turned on
   Fraction HF Exchange ScalHFX         ....  0.100000
   Scaling of DF-GGA-X  ScalDFX         ....  0.900000
   Scaling of DF-GGA-C  ScalDFC         ....  1.000000
   Scaling of DF-LDA-C  ScalLDAC        ....  1.000000
   Perturbative correction              ....  0.000000
   NL short-range parameter             ....  5.200000
 RI-approximation to the Coulomb term is turned on
   Number of AuxJ basis functions       .... 671
   RIJ-COSX (HFX calculated with COS-X)).... on


General Settings:
 Integral files         IntName         .... cs_rporg_018_red_solv_01
 Hartree-Fock type      HFTyp           .... RHF
 Total Charge           Charge          ....    0
 Multiplicity           Mult            ....    1
 Number of Electrons    NEL             ....   80
 Basis Dimension        Dim             ....  782
 Nuclear Repulsion      ENuc            ....    557.5558155408 Eh

Convergence Acceleration:
 AO-DIIS                CNVDIIS         .... on
   Start iteration      DIISMaxIt       ....     0
   Startup error        DIISStart       ....  0.200000
   # of expansion vecs  DIISMaxEq       ....     5
   Bias factor          DIISBfac        ....   1.050
   Max. coefficient     DIISMaxC        ....  10.000
 MO-DIIS                CNVKDIIS        .... off
 Trust-Rad. Augm. Hess. CNVTRAH         .... auto
   Auto Start mean grad. ratio tolernc. ....  1.125000
   Auto Start start iteration           ....    50
   Auto Start num. interpolation iter.  ....    10
   Max. Number of Micro iterations      ....    24
   Max. Number of Macro iterations      .... Maxiter - #DIIS iter
   Number of Davidson start vectors     ....     2
   Converg. threshold    (grad. norm)   ....   1.000e-05
   Grad. Scal. Fac. for Micro threshold ....   0.100
   Minimum threshold for Micro iter.    ....   1.000e-02
   NR start threshold (gradient norm)   ....   1.000e-04
   Initial trust radius                 ....   0.400
   Minimum AH scaling param. (alpha)    ....   1.000
   Maximum AH scaling param. (alpha)    .... 1000.000
   Quad. conv. algorithm                .... NR
   White noise on init. David. guess    .... on
   Maximum white noise                  ....   0.010
   Pseudo random numbers                .... off
   Inactive MOs                         .... canonical
   Orbital update algorithm             .... Taylor
   Preconditioner                       .... Diag
   Full preconditioner red. dimension   ....   250
 SOSCF                  CNVSOSCF        .... on
   Start iteration      SOSCFMaxIt      ....   150
   Startup grad/error   SOSCFStart      ....  0.001000
   Hessian update       SOSCFHessUp     .... L-BFGS
 Level Shifting         CNVShift        .... on
   Level shift para.    LevelShift      ....    0.2500
   Turn off err/grad.   ShiftErr        ....    0.0000
 Zerner damping         CNVZerner       .... off
 Static damping         CNVDamp         .... on
   Fraction old density DampFac         ....    0.8500
   Max. Damping (<1)    DampMax         ....    0.9800
   Min. Damping (>=0)   DampMin         ....    0.0000
   Turn off err/grad.   DampErr         ....    0.0300

SCF Procedure:
 Maximum # iterations   MaxIter         ....  1500
 SCF integral mode      SCFMode         .... Direct
   Integral package                     .... SHARK and LIBINT hybrid scheme
 Reset frequency        DirectResetFreq ....    20
 Integral Threshold     Thresh          ....  1.000e-12 Eh
 Primitive CutOff       TCut            ....  1.000e-13 Eh

Convergence Tolerance:
 Convergence Check Mode ConvCheckMode   .... Total+1el-Energy
 Convergence forced     ConvForced      .... 0
 Energy Change          TolE            ....  1.000e-08 Eh
 1-El. energy change                    ....  1.000e-05 Eh
 Orbital Gradient       TolG            ....  1.000e-05
 Orbital Rotation angle TolX            ....  1.000e-05
 DIIS Error             TolErr          ....  5.000e-07

------------------------------
INITIAL GUESS: MODEL POTENTIAL
------------------------------
Loading Hartree-Fock densities                     ... done
Calculating cut-offs                               ... done
Initializing the effective Hamiltonian             ... done
Setting up the integral package (SHARK)            ... done
Starting the Coulomb interaction                   ... done (   1.1 sec)
Making the grid                                    ... done (   0.5 sec)
Mapping shells                                     ... done
Starting the XC term evaluation                    ... done (   1.1 sec)
  promolecular density results
     # of electrons  =     79.994179528
     EX              =    -62.816327610
     EC              =     -2.635971139
     EX+EC           =    -65.452298749
Transforming the Hamiltonian                       ... done (   0.1 sec)
Diagonalizing the Hamiltonian                      ... done (   0.2 sec)
Back transforming the eigenvectors                 ... done (   0.1 sec)
Now organizing SCF variables                       ... done
                      ------------------
                      INITIAL GUESS DONE (   3.3 sec)
                      ------------------
             **** ENERGY FILE WAS UPDATED (cs_rporg_018_red_solv_01.en.tmp) ****
Finished Guess after   4.2 sec
Maximum memory used throughout the entire GUESS-calculation: 75.6 MB


           ************************************************************
           *        Program running with 4 parallel MPI-processes     *
           *              working on a common directory               *
           ************************************************************

-------------------------------------------------------------------------------------------
                                      ORCA LEAN-SCF
                              memory conserving SCF solver
-------------------------------------------------------------------------------------------

--------------------
CPCM SOLVATION MODEL
--------------------
CPCM parameters:
  Epsilon                                         ...      35.6880
  Refrac                                          ...       1.3442
  Rsolv                                           ...       2.1900
  Surface type                                    ...    GEPOL SES
  Discretization scheme                           ... Constant num. charges
  Epsilon function type                           ...         CPCM
Solvent:                                          ... ACETONITRILE
SMD-CDS solvent descriptors:
  Soln                                            ...       1.3442
  Soln25                                          ...       1.3416
  Sola                                            ...       0.0700
  Solb                                            ...       0.3200
  Solg                                            ...      41.2500
  Solc                                            ...       0.0000
  Solh                                            ...       0.0000
Radii:
  Scheme                                          ... Element-dependent radii
  Radius for C  used is    3.4960 Bohr (=   1.8500 Ang.)
  Radius for H  used is    2.2677 Bohr (=   1.2000 Ang.)
  Radius for O  used is    4.0969 Bohr (=   2.1680 Ang.)
Calculating surface                               ...        done! (  0.0s)
Cavity surface points                             ...          783
Cavity Volume                                     ...    1234.0005
Cavity Surface-area                               ...     707.2395
Calculating surface distance matrix               ...        done! (  0.0s)
Performing Cholesky decomposition & store         ...        done! (  0.0s)
Overall time for CPCM initialization              ...                 0.1s

----------------------------------------D-I-I-S--------------------------------------------
Iteration    Energy (Eh)           Delta-E    RMSDP     MaxDP     DIISErr   Damp  Time(sec)
-------------------------------------------------------------------------------------------
               ***  Starting incremental Fock matrix formation  ***
    1    -463.4520690533507832     0.00e+00  1.35e-03  1.15e-01  1.86e-01  0.850  39.3
    2    -463.5118806114080598    -5.98e-02  1.25e-03  1.19e-01  1.41e-01  0.850  23.4
                               ***Turning on AO-DIIS***
    3    -463.5535853962867350    -4.17e-02  9.44e-04  9.21e-02  9.85e-02  0.850  22.5
    4    -463.5811239573339435    -2.75e-02  7.77e-04  7.49e-02  7.80e-02  0.850  22.2
    5    -463.6011831266255285    -2.01e-02  6.55e-04  6.31e-02  6.49e-02  0.850  22.1
    6    -463.6168822701246199    -1.57e-02  5.55e-04  5.35e-02  5.49e-02  0.850  21.9
    7    -463.6296465548292645    -1.28e-02  4.71e-04  4.52e-02  4.64e-02  0.850  21.8
    8    -463.6401452788232973    -1.05e-02  3.99e-04  3.78e-02  3.89e-02  0.850  21.4
    9    -463.6487817160880240    -8.64e-03  3.39e-04  3.20e-02  3.26e-02  0.850  21.7
   10    -463.6559062879717885    -7.12e-03  2.88e-04  2.73e-02  2.73e-02  0.850  21.0
   11    -463.6618098586831138    -5.90e-03  1.63e-03  1.55e-01  2.29e-02  0.000  21.3
   12    -463.6928484188300672    -3.10e-02  3.99e-05  5.19e-03  2.00e-03  0.000  22.5
                              *** Initializing SOSCF ***
---------------------------------------S-O-S-C-F--------------------------------------
Iteration    Energy (Eh)           Delta-E    RMSDP     MaxDP     MaxGrad    Time(sec)
--------------------------------------------------------------------------------------
   13    -463.6928676575527106    -1.92e-05  1.09e-05  1.23e-03  7.10e-04    20.2
               *** Restarting incremental Fock matrix formation ***
   14    -463.6928718018182281    -4.14e-06  3.11e-04  3.21e-02  5.47e-05    39.7
   15    -463.6928712512844868     5.51e-07  2.23e-05  2.10e-03  1.01e-04    32.6
   16    -463.6928721740505352    -9.23e-07  2.25e-05  2.33e-03  7.84e-06    29.7
   17    -463.6928721736808257     3.70e-10  1.20e-06  8.64e-05  1.26e-05    28.2
                 **** Energy Check signals convergence ****

               *****************************************************
               *                     SUCCESS                       *
               *           SCF CONVERGED AFTER  17 CYCLES          *
               *****************************************************

Recomputing exchange energy using gridx3       ... done (   55.128 sec)
Old exchange energy                            :     -6.435572579 Eh
New exchange energy                            :     -6.435598099 Eh
Exchange energy change after final integration :     -0.000025521 Eh
Total energy after final integration           :   -463.692897694 Eh

SMD CDS free energy correction energy :                -1.75857     Kcal/mol
Total Energy after SMD CDS correction =              -463.695700161 Eh
             **** ENERGY FILE WAS UPDATED (cs_rporg_018_red_solv_01.en.tmp) ****

----------------
TOTAL SCF ENERGY
----------------

Total Energy       :       -463.69570016071071 Eh          -12617.80148 eV

Components:
Nuclear Repulsion  :        557.55581554077389 Eh           15171.86506 eV
Electronic Energy  :      -1021.23735674196882 Eh          -27789.28126 eV
One Electron Energy:      -1732.09295570913923 Eh          -47132.64550 eV
Two Electron Energy:        710.85559896717041 Eh           19343.36425 eV
CPCM Dielectric    :         -0.01133097248594 Eh              -0.30833 eV
SMD CDS (Gcds)     :         -0.00280246644430 Eh              -0.07626 eV

Virial components:
Potential Energy   :       -924.72345777031887 Eh          -25163.00455 eV
Kinetic Energy     :        461.02775760960810 Eh           12545.20307 eV
Virial Ratio       :          2.00578694559507

DFT components:
N(Alpha)           :       39.999933894130 electrons
N(Beta)            :       39.999933894130 electrons
N(Total)           :       79.999867788260 electrons
E(X)               :      -58.356745923594 Eh       
E(C)               :       -2.644578268560 Eh       
E(XC)              :      -61.001324192154 Eh       

CPCM Solvation Model Properties:
Surface-charge          :         -0.04925830479870
Corrected charge        :         -0.00000000000000
Outlying charge corr.   :          0.00015888995698 Eh               0.00432 eV
Free-energy (cav+disp)  :         -0.00280246644430 Eh              -0.07626 eV

---------------
SCF CONVERGENCE
---------------

  Last Energy change         ...   -3.6971e-10  Tolerance :   1.0000e-08
  Last MAX-Density change    ...    8.6420e-05  Tolerance :   1.0000e-07
  Last RMS-Density change    ...    1.1981e-06  Tolerance :   5.0000e-09
  Last DIIS Error            ...    7.0988e-04  Tolerance :   5.0000e-07
  Last Orbital Gradient      ...    1.2610e-05  Tolerance :   1.0000e-05
  Last Orbital Rotation      ...    2.7096e-05  Tolerance :   1.0000e-05


----------------
ORBITAL ENERGIES
----------------

  NO   OCC          E(Eh)            E(eV) 
   0   2.0000     -19.085573      -519.3449 
   1   2.0000     -10.174362      -276.8585 
   2   2.0000     -10.157376      -276.3963 
   3   2.0000     -10.127851      -275.5928 
   4   2.0000     -10.117884      -275.3216 
   5   2.0000     -10.116404      -275.2813 
   6   2.0000     -10.112314      -275.1701 
   7   2.0000     -10.111869      -275.1579 
   8   2.0000     -10.111249      -275.1411 
   9   2.0000     -10.108509      -275.0665 
  10   2.0000     -10.107065      -275.0272 
  11   2.0000      -1.052441       -28.6384 
  12   2.0000      -0.837443       -22.7880 
  13   2.0000      -0.778156       -21.1747 
  14   2.0000      -0.736761       -20.0483 
  15   2.0000      -0.729061       -19.8388 
  16   2.0000      -0.671114       -18.2619 
  17   2.0000      -0.658481       -17.9182 
  18   2.0000      -0.585617       -15.9354 
  19   2.0000      -0.578984       -15.7550 
  20   2.0000      -0.530443       -14.4341 
  21   2.0000      -0.502862       -13.6836 
  22   2.0000      -0.467333       -12.7168 
  23   2.0000      -0.461830       -12.5670 
  24   2.0000      -0.447974       -12.1900 
  25   2.0000      -0.439488       -11.9591 
  26   2.0000      -0.412446       -11.2232 
  27   2.0000      -0.399744       -10.8776 
  28   2.0000      -0.390940       -10.6380 
  29   2.0000      -0.379011       -10.3134 
  30   2.0000      -0.367527       -10.0009 
  31   2.0000      -0.365677        -9.9506 
  32   2.0000      -0.349390        -9.5074 
  33   2.0000      -0.333796        -9.0831 
  34   2.0000      -0.324862        -8.8400 
  35   2.0000      -0.315652        -8.5893 
  36   2.0000      -0.305313        -8.3080 
  37   2.0000      -0.277982        -7.5643 
  38   2.0000      -0.220925        -6.0117 
  39   2.0000      -0.207427        -5.6444 
  40   0.0000      -0.047042        -1.2801 
  41   0.0000      -0.019102        -0.5198 
  42   0.0000      -0.003043        -0.0828 
  43   0.0000       0.004819         0.1311 
  44   0.0000       0.009744         0.2651 
  45   0.0000       0.019338         0.5262 
  46   0.0000       0.022203         0.6042 
  47   0.0000       0.023108         0.6288 
  48   0.0000       0.030837         0.8391 
  49   0.0000       0.034129         0.9287 
  50   0.0000       0.039268         1.0685 
*Only the first 10 virtual orbitals were printed.

                    ********************************
                    * MULLIKEN POPULATION ANALYSIS *
                    ********************************

-----------------------
MULLIKEN ATOMIC CHARGES
-----------------------
   0 C :   -0.715171
   1 C :    0.770079
   2 C :   -0.003548
   3 C :   -0.699451
   4 C :   -0.454214
   5 C :    1.356732
   6 C :    0.012487
   7 C :   -0.408129
   8 C :   -0.361336
   9 H :    0.123446
  10 H :    0.123335
  11 H :    0.130655
  12 H :    0.044444
  13 H :   -0.049624
  14 H :    0.080685
  15 H :    0.466493
  16 H :    0.096377
  17 O :   -0.677932
  18 C :   -0.251322
  19 H :    0.017155
  20 H :    0.196946
  21 H :    0.196714
  22 H :    0.005182
Sum of atomic charges:   -0.0000000

--------------------------------
MULLIKEN REDUCED ORBITAL CHARGES
--------------------------------
  0 C s       :     4.122661  s :     4.122661
      pz      :     0.984022  p :     2.473314
      px      :     0.682639
      py      :     0.806654
      dz2     :    -0.000467  d :     0.149091
      dxz     :     0.031679
      dyz     :     0.010431
      dx2y2   :     0.090494
      dxy     :     0.016954
      f0      :    -0.000382  f :    -0.029895
      f+1     :    -0.001970
      f-1     :     0.000634
      f+2     :    -0.000529
      f-2     :     0.000922
      f+3     :    -0.023574
      f-3     :    -0.004996

  1 C s       :     3.185394  s :     3.185394
      pz      :     0.963064  p :     2.126500
      px      :     0.747248
      py      :     0.416188
      dz2     :    -0.014863  d :    -0.080954
      dxz     :     0.057106
      dyz     :     0.004025
      dx2y2   :    -0.048509
      dxy     :    -0.078712
      f0      :     0.003540  f :    -0.001019
      f+1     :     0.001413
      f-1     :    -0.000582
      f+2     :     0.001639
      f-2     :     0.015476
      f+3     :    -0.023639
      f-3     :     0.001133

  2 C s       :     3.609789  s :     3.609789
      pz      :     1.013109  p :     2.346140
      px      :     0.735304
      py      :     0.597728
      dz2     :    -0.004274  d :     0.064859
      dxz     :    -0.002257
      dyz     :     0.000611
      dx2y2   :     0.012982
      dxy     :     0.057796
      f0      :    -0.000118  f :    -0.017240
      f+1     :     0.000478
      f-1     :     0.000394
      f+2     :    -0.001718
      f-2     :     0.002877
      f+3     :    -0.017075
      f-3     :    -0.002077

  3 C s       :     3.780592  s :     3.780592
      pz      :     0.963128  p :     2.797069
      px      :     1.079174
      py      :     0.754767
      dz2     :    -0.003546  d :     0.143174
      dxz     :     0.033601
      dyz     :     0.016525
      dx2y2   :     0.076885
      dxy     :     0.019708
      f0      :     0.001144  f :    -0.021383
      f+1     :     0.000045
      f-1     :     0.000372
      f+2     :     0.000002
      f-2     :    -0.000005
      f+3     :    -0.021886
      f-3     :    -0.001056

  4 C s       :     3.750629  s :     3.750629
      pz      :     1.009634  p :     2.561981
      px      :     0.525687
      py      :     1.026661
      dz2     :    -0.013819  d :     0.159901
      dxz     :     0.016719
      dyz     :     0.003426
      dx2y2   :     0.076966
      dxy     :     0.076608
      f0      :     0.000425  f :    -0.018296
      f+1     :     0.000607
      f-1     :     0.000368
      f+2     :    -0.000511
      f-2     :     0.000423
      f+3     :    -0.017854
      f-3     :    -0.001754

  5 C s       :     2.809615  s :     2.809615
      pz      :     0.975868  p :     1.981553
      px      :     0.239112
      py      :     0.766573
      dz2     :    -0.024890  d :    -0.044420
      dxz     :    -0.039819
      dyz     :    -0.011260
      dx2y2   :     0.035123
      dxy     :    -0.003575
      f0      :     0.001634  f :    -0.103480
      f+1     :    -0.003688
      f-1     :    -0.001813
      f+2     :    -0.000184
      f-2     :     0.001601
      f+3     :    -0.082756
      f-3     :    -0.018274

  6 C s       :     3.617557  s :     3.617557
      pz      :     1.022429  p :     2.451816
      px      :     0.629752
      py      :     0.799635
      dz2     :     0.005955  d :    -0.048551
      dxz     :    -0.014189
      dyz     :     0.013465
      dx2y2   :     0.067511
      dxy     :    -0.121294
      f0      :     0.000521  f :    -0.033309
      f+1     :    -0.001502
      f-1     :    -0.000158
      f+2     :    -0.000935
      f-2     :     0.000966
      f+3     :    -0.028826
      f-3     :    -0.003374

  7 C s       :     3.609910  s :     3.609910
      pz      :     0.930609  p :     2.641683
      px      :     0.774262
      py      :     0.936812
      dz2     :     0.004102  d :     0.170465
      dxz     :     0.031563
      dyz     :     0.012521
      dx2y2   :     0.114185
      dxy     :     0.008094
      f0      :    -0.000543  f :    -0.013929
      f+1     :     0.000249
      f-1     :     0.000330
      f+2     :    -0.000919
      f-2     :     0.001253
      f+3     :    -0.006303
      f-3     :    -0.007996

  8 C s       :     3.209358  s :     3.209358
      pz      :     1.024092  p :     3.067906
      px      :     0.997491
      py      :     1.046323
      dz2     :     0.008618  d :     0.074726
      dxz     :     0.035208
      dyz     :    -0.000077
      dx2y2   :     0.028902
      dxy     :     0.002075
      f0      :     0.003016  f :     0.009347
      f+1     :     0.000170
      f-1     :    -0.000109
      f+2     :    -0.001637
      f-2     :     0.003218
      f+3     :     0.003166
      f-3     :     0.001522

  9 H s       :     0.816161  s :     0.816161
      pz      :     0.017539  p :     0.052676
      px      :     0.023506
      py      :     0.011631
      dz2     :     0.002476  d :     0.007717
      dxz     :     0.000578
      dyz     :     0.001050
      dx2y2   :     0.002613
      dxy     :     0.001000

 10 H s       :     0.816242  s :     0.816242
      pz      :     0.017565  p :     0.052706
      px      :     0.023536
      py      :     0.011605
      dz2     :     0.002466  d :     0.007718
      dxz     :     0.000583
      dyz     :     0.001048
      dx2y2   :     0.002614
      dxy     :     0.001007

 11 H s       :     0.807018  s :     0.807018
      pz      :     0.008604  p :     0.053854
      px      :     0.014781
      py      :     0.030469
      dz2     :     0.000106  d :     0.008473
      dxz     :     0.001459
      dyz     :     0.003227
      dx2y2   :    -0.000713
      dxy     :     0.004393

 12 H s       :     0.892027  s :     0.892027
      pz      :     0.028518  p :     0.056158
      px      :     0.021968
      py      :     0.005672
      dz2     :     0.000030  d :     0.007371
      dxz     :     0.000508
      dyz     :     0.004469
      dx2y2   :     0.000114
      dxy     :     0.002250

 13 H s       :     1.013464  s :     1.013464
      pz      :     0.027383  p :     0.028522
      px      :    -0.014218
      py      :     0.015357
      dz2     :     0.000582  d :     0.007639
      dxz     :     0.000594
      dyz     :     0.004228
      dx2y2   :     0.001022
      dxy     :     0.001213

 14 H s       :     0.937068  s :     0.937068
      pz      :     0.024964  p :    -0.023697
      px      :    -0.031719
      py      :    -0.016942
      dz2     :     0.000148  d :     0.005944
      dxz     :     0.004082
      dyz     :     0.001755
      dx2y2   :    -0.000659
      dxy     :     0.000618

 15 H s       :     0.509202  s :     0.509202
      pz      :     0.023106  p :     0.015974
      px      :     0.011258
      py      :    -0.018389
      dz2     :    -0.000111  d :     0.008330
      dxz     :    -0.000179
      dyz     :     0.005051
      dx2y2   :     0.000921
      dxy     :     0.002648

 16 H s       :     0.898419  s :     0.898419
      pz      :     0.017562  p :    -0.003951
      px      :     0.000903
      py      :    -0.022415
      dz2     :     0.000147  d :     0.009155
      dxz     :     0.005302
      dyz     :    -0.000219
      dx2y2   :     0.001548
      dxy     :     0.002377

 17 O s       :     4.206229  s :     4.206229
      pz      :     1.748605  p :     4.381923
      px      :     1.114487
      py      :     1.518831
      dz2     :     0.001777  d :     0.083681
      dxz     :     0.022040
      dyz     :     0.011492
      dx2y2   :     0.024461
      dxy     :     0.023910
      f0      :     0.000767  f :     0.006099
      f+1     :     0.000163
      f-1     :     0.000132
      f+2     :     0.000300
      f-2     :     0.001335
      f+3     :     0.002006
      f-3     :     0.001396

 18 C s       :     3.297303  s :     3.297303
      pz      :     1.046959  p :     2.757724
      px      :     0.740091
      py      :     0.970674
      dz2     :     0.007694  d :     0.164658
      dxz     :     0.045877
      dyz     :     0.054610
      dx2y2   :     0.022532
      dxy     :     0.033945
      f0      :     0.004429  f :     0.031637
      f+1     :     0.001737
      f-1     :     0.002422
      f+2     :     0.008977
      f-2     :    -0.000336
      f+3     :     0.013972
      f-3     :     0.000437

 19 H s       :     0.949257  s :     0.949257
      pz      :     0.008906  p :     0.032176
      px      :     0.009880
      py      :     0.013390
      dz2     :    -0.001295  d :     0.001412
      dxz     :     0.000061
      dyz     :     0.003869
      dx2y2   :    -0.001751
      dxy     :     0.000530

 20 H s       :     0.769239  s :     0.769239
      pz      :     0.015124  p :     0.027743
      px      :     0.007248
      py      :     0.005370
      dz2     :     0.002721  d :     0.006073
      dxz     :     0.001445
      dyz     :     0.000508
      dx2y2   :     0.000904
      dxy     :     0.000496

 21 H s       :     0.769241  s :     0.769241
      pz      :     0.015340  p :     0.027982
      px      :     0.007270
      py      :     0.005372
      dz2     :     0.002715  d :     0.006063
      dxz     :     0.001440
      dyz     :     0.000505
      dx2y2   :     0.000902
      dxy     :     0.000502

 22 H s       :     0.980524  s :     0.980524
      pz      :     0.019817  p :     0.008775
      px      :    -0.017434
      py      :     0.006392
      dz2     :    -0.000215  d :     0.005519
      dxz     :     0.000362
      dyz     :     0.004765
      dx2y2   :     0.000441
      dxy     :     0.000165



                     *******************************
                     * LOEWDIN POPULATION ANALYSIS *
                     *******************************

----------------------
LOEWDIN ATOMIC CHARGES
----------------------
   0 C :    0.206663
   1 C :   -0.402079
   2 C :    0.198934
   3 C :    0.184782
   4 C :    0.194654
   5 C :   -0.160680
   6 C :    0.199951
   7 C :    0.200036
   8 C :    0.549283
   9 H :   -0.164328
  10 H :   -0.164350
  11 H :   -0.173955
  12 H :   -0.184176
  13 H :   -0.184403
  14 H :   -0.188151
  15 H :   -0.169111
  16 H :   -0.191955
  17 O :    0.596060
  18 C :    0.314990
  19 H :   -0.169459
  20 H :   -0.161092
  21 H :   -0.161070
  22 H :   -0.170541

-------------------------------
LOEWDIN REDUCED ORBITAL CHARGES
-------------------------------
  0 C s       :     2.477179  s :     2.477179
      pz      :     0.625082  p :     2.281326
      px      :     0.836548
      py      :     0.819697
      dz2     :     0.070280  d :     0.681695
      dxz     :     0.128018
      dyz     :     0.040118
      dx2y2   :     0.256301
      dxy     :     0.186977
      f0      :     0.022109  f :     0.353137
      f+1     :     0.033906
      f-1     :     0.020378
      f+2     :     0.023537
      f-2     :     0.056764
      f+3     :     0.117432
      f-3     :     0.079012

  1 C s       :     2.460063  s :     2.460063
      pz      :     0.617956  p :     2.219449
      px      :     0.775629
      py      :     0.825864
      dz2     :     0.099918  d :     1.080896
      dxz     :     0.162938
      dyz     :     0.166274
      dx2y2   :     0.303095
      dxy     :     0.348671
      f0      :     0.037549  f :     0.641671
      f+1     :     0.041659
      f-1     :     0.042323
      f+2     :     0.062240
      f-2     :     0.099626
      f+3     :     0.239298
      f-3     :     0.118976

  2 C s       :     2.478872  s :     2.478872
      pz      :     0.637208  p :     2.299975
      px      :     0.828081
      py      :     0.834686
      dz2     :     0.069583  d :     0.684820
      dxz     :     0.059360
      dyz     :     0.106783
      dx2y2   :     0.222713
      dxy     :     0.226381
      f0      :     0.020933  f :     0.337399
      f+1     :     0.022032
      f-1     :     0.029922
      f+2     :     0.039361
      f-2     :     0.037667
      f+3     :     0.117910
      f-3     :     0.069574

  3 C s       :     2.488390  s :     2.488390
      pz      :     0.599720  p :     2.276016
      px      :     0.851234
      py      :     0.825062
      dz2     :     0.067550  d :     0.711572
      dxz     :     0.142376
      dyz     :     0.039888
      dx2y2   :     0.282217
      dxy     :     0.179541
      f0      :     0.019224  f :     0.339241
      f+1     :     0.030906
      f-1     :     0.019964
      f+2     :     0.015522
      f-2     :     0.059634
      f+3     :     0.126008
      f-3     :     0.067983

  4 C s       :     2.476773  s :     2.476773
      pz      :     0.624688  p :     2.289058
      px      :     0.831934
      py      :     0.832436
      dz2     :     0.069806  d :     0.701709
      dxz     :     0.073716
      dyz     :     0.093179
      dx2y2   :     0.191061
      dxy     :     0.273946
      f0      :     0.020432  f :     0.337807
      f+1     :     0.024727
      f-1     :     0.026461
      f+2     :     0.055221
      f-2     :     0.017743
      f+3     :     0.124562
      f-3     :     0.068660

  5 C s       :     2.464952  s :     2.464952
      pz      :     0.603673  p :     2.267218
      px      :     0.819749
      py      :     0.843795
      dz2     :     0.088162  d :     0.935138
      dxz     :     0.146336
      dyz     :     0.129559
      dx2y2   :     0.276757
      dxy     :     0.294324
      f0      :     0.028829  f :     0.493372
      f+1     :     0.033558
      f-1     :     0.033928
      f+2     :     0.062550
      f-2     :     0.050900
      f+3     :     0.196331
      f-3     :     0.087277

  6 C s       :     2.487832  s :     2.487832
      pz      :     0.629648  p :     2.289742
      px      :     0.855346
      py      :     0.804748
      dz2     :     0.070991  d :     0.705321
      dxz     :     0.141675
      dyz     :     0.022569
      dx2y2   :     0.261522
      dxy     :     0.208565
      f0      :     0.019380  f :     0.317154
      f+1     :     0.033190
      f-1     :     0.017423
      f+2     :     0.019678
      f-2     :     0.036458
      f+3     :     0.127449
      f-3     :     0.063576

  7 C s       :     2.493679  s :     2.493679
      pz      :     0.597932  p :     2.259393
      px      :     0.845755
      py      :     0.815706
      dz2     :     0.064856  d :     0.729198
      dxz     :     0.170098
      dyz     :     0.017506
      dx2y2   :     0.269680
      dxy     :     0.207059
      f0      :     0.024182  f :     0.317694
      f+1     :     0.025326
      f-1     :     0.017803
      f+2     :     0.026840
      f-2     :     0.039369
      f+3     :     0.133552
      f-3     :     0.050621

  8 C s       :     2.462048  s :     2.462048
      pz      :     0.770662  p :     2.288035
      px      :     0.754203
      py      :     0.763169
      dz2     :     0.080818  d :     0.517029
      dxz     :     0.163412
      dyz     :     0.021953
      dx2y2   :     0.148824
      dxy     :     0.102023
      f0      :     0.015288  f :     0.183606
      f+1     :     0.027967
      f-1     :     0.015432
      f+2     :     0.015805
      f-2     :     0.022179
      f+3     :     0.057104
      f-3     :     0.029831

  9 H s       :     0.634975  s :     0.634975
      pz      :     0.127954  p :     0.309731
      px      :     0.095555
      py      :     0.086222
      dz2     :     0.075493  d :     0.219622
      dxz     :     0.044552
      dyz     :     0.040801
      dx2y2   :     0.032905
      dxy     :     0.025871

 10 H s       :     0.634977  s :     0.634977
      pz      :     0.127982  p :     0.309749
      px      :     0.095547
      py      :     0.086220
      dz2     :     0.075485  d :     0.219625
      dxz     :     0.044573
      dyz     :     0.040845
      dx2y2   :     0.032872
      dxy     :     0.025850

 11 H s       :     0.631609  s :     0.631609
      pz      :     0.085422  p :     0.315594
      px      :     0.086050
      py      :     0.144122
      dz2     :     0.016256  d :     0.226752
      dxz     :     0.011802
      dyz     :     0.075154
      dx2y2   :     0.044689
      dxy     :     0.078851

 12 H s       :     0.648572  s :     0.648572
      pz      :     0.074880  p :     0.310812
      px      :     0.088241
      py      :     0.147691
      dz2     :     0.025757  d :     0.224792
      dxz     :     0.006149
      dyz     :     0.057533
      dx2y2   :     0.048082
      dxy     :     0.087271

 13 H s       :     0.639571  s :     0.639571
      pz      :     0.079902  p :     0.313592
      px      :     0.090179
      py      :     0.143510
      dz2     :     0.026119  d :     0.231240
      dxz     :     0.005936
      dyz     :     0.061307
      dx2y2   :     0.054226
      dxy     :     0.083651

 14 H s       :     0.646147  s :     0.646147
      pz      :     0.083074  p :     0.314573
      px      :     0.131641
      py      :     0.099859
      dz2     :     0.026106  d :     0.227431
      dxz     :     0.043090
      dyz     :     0.023303
      dx2y2   :     0.081948
      dxy     :     0.052985

 15 H s       :     0.662307  s :     0.662307
      pz      :     0.080005  p :     0.295669
      px      :     0.077130
      py      :     0.138534
      dz2     :     0.022511  d :     0.211136
      dxz     :     0.005495
      dyz     :     0.057327
      dx2y2   :     0.046679
      dxy     :     0.079123

 16 H s       :     0.641520  s :     0.641520
      pz      :     0.088264  p :     0.322355
      px      :     0.142202
      py      :     0.091889
      dz2     :     0.023962  d :     0.228081
      dxz     :     0.053580
      dyz     :     0.014435
      dx2y2   :     0.064511
      dxy     :     0.071593

 17 O s       :     2.973800  s :     2.973800
      pz      :     1.363545  p :     3.831666
      px      :     1.146465
      py      :     1.321656
      dz2     :     0.041246  d :     0.469491
      dxz     :     0.102107
      dyz     :     0.040461
      dx2y2   :     0.144079
      dxy     :     0.141599
      f0      :     0.013284  f :     0.128984
      f+1     :     0.010668
      f-1     :     0.005010
      f+2     :     0.006912
      f-2     :     0.023140
      f+3     :     0.038844
      f-3     :     0.031126

 18 C s       :     2.460416  s :     2.460416
      pz      :     0.800873  p :     2.216768
      px      :     0.627152
      py      :     0.788744
      dz2     :     0.099699  d :     0.688919
      dxz     :     0.131640
      dyz     :     0.119993
      dx2y2   :     0.116131
      dxy     :     0.221457
      f0      :     0.035858  f :     0.318906
      f+1     :     0.036723
      f-1     :     0.025438
      f+2     :     0.051370
      f-2     :     0.022168
      f+3     :     0.080228
      f-3     :     0.067122

 19 H s       :     0.653496  s :     0.653496
      pz      :     0.088062  p :     0.295159
      px      :     0.081180
      py      :     0.125917
      dz2     :     0.016327  d :     0.220805
      dxz     :     0.021835
      dyz     :     0.069972
      dx2y2   :     0.073600
      dxy     :     0.039070

 20 H s       :     0.639215  s :     0.639215
      pz      :     0.130701  p :     0.302990
      px      :     0.062814
      py      :     0.109475
      dz2     :     0.076134  d :     0.218886
      dxz     :     0.032752
      dyz     :     0.051014
      dx2y2   :     0.026895
      dxy     :     0.032092

 21 H s       :     0.639210  s :     0.639210
      pz      :     0.130690  p :     0.302979
      px      :     0.062815
      py      :     0.109474
      dz2     :     0.076132  d :     0.218881
      dxz     :     0.032741
      dyz     :     0.051009
      dx2y2   :     0.026904
      dxy     :     0.032095

 22 H s       :     0.646328  s :     0.646328
      pz      :     0.080048  p :     0.302499
      px      :     0.083927
      py      :     0.138523
      dz2     :     0.024441  d :     0.221715
      dxz     :     0.004460
      dyz     :     0.060857
      dx2y2   :     0.053192
      dxy     :     0.078766



                      *****************************
                      * MAYER POPULATION ANALYSIS *
                      *****************************

  NA   - Mulliken gross atomic population
  ZA   - Total nuclear charge
  QA   - Mulliken gross atomic charge
  VA   - Mayer's total valence
  BVA  - Mayer's bonded valence
  FA   - Mayer's free valence

  ATOM       NA         ZA         QA         VA         BVA        FA
  0 C      6.7152     6.0000    -0.7152     2.6223     2.6223    -0.0000
  1 C      5.2299     6.0000     0.7701     1.8165     1.8165     0.0000
  2 C      6.0035     6.0000    -0.0035     2.9388     2.9388    -0.0000
  3 C      6.6995     6.0000    -0.6995     2.6943     2.6943    -0.0000
  4 C      6.4542     6.0000    -0.4542     3.1460     3.1460    -0.0000
  5 C      4.6433     6.0000     1.3567     0.7985     0.7985     0.0000
  6 C      5.9875     6.0000     0.0125     2.4282     2.4282    -0.0000
  7 C      6.4081     6.0000    -0.4081     3.4451     3.4451    -0.0000
  8 C      6.3613     6.0000    -0.3613     3.9360     3.9360     0.0000
  9 H      0.8766     1.0000     0.1234     1.0326     1.0326    -0.0000
 10 H      0.8767     1.0000     0.1233     1.0328     1.0328     0.0000
 11 H      0.8693     1.0000     0.1307     1.0477     1.0477     0.0000
 12 H      0.9556     1.0000     0.0444     1.0755     1.0755    -0.0000
 13 H      1.0496     1.0000    -0.0496     1.1510     1.1510    -0.0000
 14 H      0.9193     1.0000     0.0807     0.8747     0.8747    -0.0000
 15 H      0.5335     1.0000     0.4665     0.6372     0.6372    -0.0000
 16 H      0.9036     1.0000     0.0964     0.9591     0.9591     0.0000
 17 O      8.6779     8.0000    -0.6779     1.2453     1.2453     0.0000
 18 C      6.2513     6.0000    -0.2513     3.9757     3.9757     0.0000
 19 H      0.9828     1.0000     0.0172     1.0443     1.0443     0.0000
 20 H      0.8031     1.0000     0.1969     0.9559     0.9559     0.0000
 21 H      0.8033     1.0000     0.1967     0.9570     0.9570     0.0000
 22 H      0.9948     1.0000     0.0052     1.0394     1.0394    -0.0000

  Mayer bond orders larger than 0.100000
B(  0-C ,  1-C ) :   0.6677 B(  0-C ,  4-C ) :  -0.1142 B(  0-C ,  5-C ) :   0.3694 
B(  0-C ,  6-C ) :  -0.2280 B(  0-C ,  7-C ) :   0.1338 B(  0-C , 17-O ) :   0.4753 
B(  0-C , 22-H ) :   1.1648 B(  1-C ,  2-C ) :   1.1287 B(  1-C , 17-O ) :  -0.1467 
B(  1-C , 18-C ) :   0.1488 B(  2-C ,  3-C ) :   1.1252 B(  2-C , 16-H ) :   1.0247 
B(  2-C , 17-O ) :  -0.2648 B(  2-C , 18-C ) :  -0.1302 B(  3-C ,  4-C ) :   1.2992 
B(  3-C ,  5-C ) :  -0.1581 B(  3-C , 15-H ) :   0.4358 B(  4-C ,  5-C ) :   0.6764 
B(  4-C ,  7-C ) :   0.1407 B(  4-C , 14-H ) :   1.0273 B(  5-C ,  6-C ) :   0.2267 
B(  5-C ,  7-C ) :  -0.2128 B(  5-C , 12-H ) :  -0.1318 B(  5-C , 17-O ) :   0.1507 
B(  6-C ,  7-C ) :   1.0497 B(  6-C , 13-H ) :   1.1905 B(  7-C ,  8-C ) :   1.0326 
B(  7-C , 11-H ) :   0.1129 B(  7-C , 12-H ) :   1.2908 B(  8-C ,  9-H ) :   0.9757 
B(  8-C , 10-H ) :   0.9763 B(  8-C , 11-H ) :   0.9306 B( 17-O , 18-C ) :   1.0083 
B( 18-C , 19-H ) :   1.0570 B( 18-C , 20-H ) :   0.9387 B( 18-C , 21-H ) :   0.9396 


-------
TIMINGS
-------

Total SCF time: 0 days 0 hours 8 min 8 sec 

Total time                  ....     488.650 sec
Sum of individual times     ....     488.328 sec  ( 99.9%)

SCF preparation             ....       1.072 sec  (  0.2%)
Fock matrix formation       ....     473.945 sec  ( 97.0%)
  Startup                   ....       0.731 sec  (  0.2% of F)
  Split-RI-J                ....      25.566 sec  (  5.4% of F)
  Chain of spheres X        ....     290.906 sec  ( 61.4% of F)
  XC integration            ....     142.782 sec  ( 30.1% of F)
    XC Preparation          ....       0.000 sec  (  0.0% of XC)
    Basis function eval.    ....      12.849 sec  (  9.0% of XC)
    Density eval.           ....      52.176 sec  ( 36.5% of XC)
    XC-Functional eval.     ....       1.315 sec  (  0.9% of XC)
    XC-Potential eval.      ....      74.655 sec  ( 52.3% of XC)
  CPCM terms                ....      11.979 sec  (  2.5% of F)
Diagonalization             ....       0.000 sec  (  0.0%)
Density matrix formation    ....       1.828 sec  (  0.4%)
Total Energy calculation    ....       0.808 sec  (  0.2%)
Population analysis         ....       0.327 sec  (  0.1%)
Orbital Transformation      ....       0.960 sec  (  0.2%)
Orbital Orthonormalization  ....       0.000 sec  (  0.0%)
DIIS solution               ....       7.911 sec  (  1.6%)
SOSCF solution              ....       1.476 sec  (  0.3%)
Finished LeanSCF after 488.9 sec

Maximum memory used throughout the entire LEANSCF-calculation: 130.1 MB


-------------------------------------------------------------------------------
                          DFT DISPERSION CORRECTION                            
                                                                               
                              DFTD3 V3.1  Rev 1                                
                          USING Becke-Johnson damping                          
-------------------------------------------------------------------------------
The TPSSH functional is recognized
Active option DFTDOPT                   ...         4   

molecular C6(AA) [au] = 5315.955844 


            DFT-D V3
 parameters
 s6 scaling factor         :     1.0000 
 a1 scaling factor         :     0.4529 
 s8 scaling factor         :     2.2382 
 a2 scaling factor         :     4.6550 
 ad hoc parameters k1-k3   :    16.0000     1.3333    -4.0000 

 Edisp/kcal,au: -16.648994916051  -0.026531859403 
 E6   /kcal   :  -8.014103389 
 E8   /kcal   :  -8.634891527 
 % E8         :  51.864341182 

-------------------------   ----------------
Dispersion correction           -0.026531859
-------------------------   ----------------


-------------------------   --------------------
FINAL SINGLE POINT ENERGY      -463.722232020114
-------------------------   --------------------



           ************************************************************
           *        Program running with 4 parallel MPI-processes     *
           *              working on a common directory               *
           ************************************************************

------------------------------------------------------------------------------
                              ORCA PROPERTY CALCULATIONS
------------------------------------------------------------------------------

GBWName                                 ... cs_rporg_018_red_solv_01.gbw
Number of atoms                         ...     23
Number of basis functions               ...    848
Max core memory                         ...   3000 MB

Electric properties:
Dipole moment                           ... YES
Quadrupole moment                       ...  NO
Static polarizability (Dipole/Dipole)   ...  NO
Static polarizability (Dipole/Quad.)    ...  NO
Static polarizability (Quad./Quad.)     ...  NO
Static polarizability (Velocity)        ...  NO

Atomic electric properties:
Dipole moment                           ...  NO
Quadrupole moment                       ...  NO
Static polarizability                   ...  NO

Choice of electric origin               ... Center of mass
Position of electric origin             ...    -0.005974     0.000584     0.000064

General magnetic properties:
Magnetizability                         ...  NO

EPR properties:
g-Tensor (aka g-matrix)                 ...  NO
Zero-Field splitting spin-orbit         ...  NO
Zero-field splitting spin-spin          ...  NO
Hyperfine couplings                     ...  NO (   0 nuclei)
Quadrupole couplings                    ...  NO (   0 nuclei)
Contact density                         ...  NO (   0 nuclei)

NMR properties:
Chemical shifts                         ...  NO (   0 nuclei)
Spin-rotation constants                 ...  NO (   0 nuclei)
Spin-spin couplings                     ...  NO (   0 nuclei,    0 pairs)

Choice of magnetic origin               ... GIAO
Position of magnetic origin             ...     0.000000     0.000000     0.000000

Properties with geometric perturbations:
SCF Hessian                             ...  NO
IR spectrum                             ...  NO
VCD spectrum                            ...  NO
X-ray spectroscopy properties:
SCF XES/XAS/RIXS spectra                ...  NO


-------------
DIPOLE MOMENT
-------------

Method             : SCF
Type of density    : Electron Density
Multiplicity       :   1
Irrep              :   0
Energy             :  -463.6957001607107145 Eh
Relativity type    : 
Basis              : AO
                                X                 Y                 Z
Electronic contribution:     -5.083393408      -0.423745675      -0.000537514
Nuclear contribution   :      4.758796555       0.116147158       0.000484674
                        -----------------------------------------
Total Dipole Moment    :     -0.324596853      -0.307598517      -0.000052840
                        -----------------------------------------
Magnitude (a.u.)       :      0.447191197
Magnitude (Debye)      :      1.136669691



--------------------
Rotational spectrum 
--------------------
 
Rotational constants in cm-1:             0.102459             0.016958             0.014631 
Rotational constants in MHz :          3071.640827           508.382931           438.625504 

Dipole components along the rotational axes: 
x,y,z [a.u.] :    -0.325261     0.306896    -0.000064 
x,y,z [Debye]:    -0.826748     0.780067    -0.000162 

 

Dipole moment calculation done in   0.1 sec 

Maximum memory used throughout the entire PROP-calculation: 77.4 MB

--------------------------------
SUGGESTED CITATIONS FOR THIS RUN
--------------------------------

Below you find a list of papers that are relevant to this ORCA run
We neither can nor want to force you to cite these papers, but we appreciate if you do
You receive ORCA, which is the product of decades of hard work by many enthusiastic individuals, for free
The only thing we kindly ask in return is that you cite our papers,
We deeply appreciate it, if you show your appreciation for ORCA by not just citing the generic ORCA reference.

Please note that relegating all ORCA citations to the supporting information does *not* help us.
SI sections are not indexed - citations you put there will not count into any citation statistics
But we need these citations in order to attract the funding resources that allow us to do what we are doing

Therefore, if you are a happy ORCA user, please consider citing a few of the papers listed below in the main body of your paper

In addition to the list printed below, the program has created the file cs_rporg_018_red_solv_01.bibtex that contains the list in bibtex format
You can import this file easily into all common literature databanks and citation aid programs


List of essential papers. We consider these as the minimum necessary citations

  1. Neese,F.
     Software update: the ORCA program system, version 5.0
     WIRES Comput. Molec. Sci., 2022 12(1)e1606
     doi.org/10.1002/wcms.1606

List of papers to cite with high priority. The work reported in these papers was absolutely
necessary for this run to complete.
Our perspective: the developers of density functionals and basis sets usually get cited in chemistry papers
Good! But without the algorithms to do something with them, the functionals or basis sets would not do anything.
Hence, in our opinion, the algorithm design and method developments papers are equally worthy of getting cited

  1. Neese,F.
     An improvement of the resolution of the identity approximation for the formation of the Coulomb matrix
     J. Comp. Chem., 2003 24(14)1740-1747
     doi.org/10.1002/jcc.10318
  2. Neese,F.; Wennmohs,F.; Hansen,A.; Becker,U.
     Efficient, approximate and parallel Hartree-Fock and hybrid DFT calculations. A 'chain-of-spheres' algorithm for the Hartree-Fock exchange
     Chem. Phys., 2009 356(1-3)98-109
     doi.org/10.1016/j.chemphys.2008.10.036
  3. Garcia-Rates,M.; Neese,F.
     Effect of the Solute Cavity on the Solvation Energy and its Derivatives within the Framework of the Gaussian Charge Scheme
     J. Comput. Chem., 2020 41 922-939
     doi.org/10.1002/jcc.26139
  4. Helmich-Paris,B.; de Souza,B.; Neese,F.; Izsák,R.
     An improved chain of spheres for exchange algorithm
     J. Chem. Phys., 2021 155 104109
     doi.org/doi: 10.1063/5.0058766.
  5. Neese,F.
     The SHARK Integral Generation and Digestion System
     J. Comp. Chem., 2022  1-16
     doi.org/10.1002/jcc.26942
  6. Grimme,S.; Antony,J.; Ehrlich,S.; Krieg,H.
     A consistent and accurate ab initio parametrization of density functional dispersion correction (DFT-D) for the 94 elements H-Pu
     J. Chem. Phys., 2010 132 154104-XXXX
     doi.org/10.1063/1.3382344
  7. Grimme,S.; Ehrlich,S.; Goerigk,L.
     Effect of the damping function in dispersion corrected density functional theory
     J. Comput. Chem., 2011 32(7)1456-1465
     doi.org/10.1002/jcc.21759

List of suggested additional citations. These are papers that are important in the 'surrounding' of 
of this run, or papers that preceded the highly important papers. If you like your results we are grateful for a citation.

  1. Izsak,R.; Neese,F.
     An overlap fitted chain of spheres exchange method
     J. Chem. Phys., 2011 135 144105
     doi.org/10.1063/1.3646921
  2. Izsak,R.; Hansen,A.; Neese,F.
     The resolution of identity and chain of spheres approximations for the LPNO-CCSD singles Fock term
     Molec. Phys., 2012 110 2413-2417
     doi.org/10.1080/00268976.2012.687466
  3. Neese,F.
     The ORCA program system
     WIRES Comput. Molec. Sci., 2012 2(1)73-78
     doi.org/10.1002/wcms.81
  4. Izsak,R.; Neese,F.; Klopper,W.
     Robust fitting techniques in the chain of spheres approximation to the Fock exchange: The role of the complementary space
     J. Chem. Phys., 2013 139 
     doi.org/10.1063/1.4819264
  5. Neese,F.
     Software update: the ORCA program system, version 4.0
     WIRES Comput. Molec. Sci., 2018 8(1)1-6
     doi.org/10.1002/wcms.1327
  6. Neese,F.; Wennmohs,F.; Becker,U.; Riplinger,C.
     The ORCA quantum chemistry program package
     J. Chem. Phys., 2020 152 Art. No. L224108
     doi.org/10.1063/5.0004608

List of optional additional citations

  1. Neese,F.
     Approximate second-order SCF convergence for spin unrestricted wavefunctions
     Chem. Phys. Lett., 2000 325(1-3)93-98
     doi.org/10.1016/s0009-2614(00)00662-x

Timings for individual modules:

Sum of individual times          ...      511.041 sec (=   8.517 min)
Startup calculation              ...       13.522 sec (=   0.225 min)   2.6 %
SCF iterations                   ...      495.568 sec (=   8.259 min)  97.0 %
Property calculations            ...        1.951 sec (=   0.033 min)   0.4 %
                             ****ORCA TERMINATED NORMALLY****
TOTAL RUN TIME: 0 days 0 hours 8 minutes 33 seconds 596 msec
