
                                 *****************
                                 * O   R   C   A *
                                 *****************

                                            #,                                       
                                            ###                                      
                                            ####                                     
                                            #####                                    
                                            ######                                   
                                           ########,                                 
                                     ,,################,,,,,                         
                               ,,#################################,,                 
                          ,,##########################################,,             
                       ,#########################################, ''#####,          
                    ,#############################################,,   '####,        
                  ,##################################################,,,,####,       
                ,###########''''           ''''###############################       
              ,#####''   ,,,,##########,,,,          '''####'''          '####       
            ,##' ,,,,###########################,,,                        '##       
           ' ,,###''''                  '''############,,,                           
         ,,##''                                '''############,,,,        ,,,,,,###''
      ,#''                                            '''#######################'''  
     '                                                          ''''####''''         
             ,#######,   #######,   ,#######,      ##                                
            ,#'     '#,  ##    ##  ,#'     '#,    #''#        ,####,   ,####,        
            ##       ##  ##   ,#'  ##            #'  '#       #'       #'  '#        
            ##       ##  #######   ##           ,######,      #####,   #    #        
            '#,     ,#'  ##    ##  '#,     ,#' ,#      #,     #,   #   #,  ,#        
             '#######'   ##     ##  '#######'  #'      '#     '####' # '####'        



                #########################################################
                #                        -***-                          #
                #          Department of theory and spectroscopy        #
                #                                                       #
                #                      Frank Neese                      #
                #                                                       #
                #     Directorship, Architecture, Infrastructure        #
                #                    SHARK, DRIVERS                     #
                #        Core code/Algorithms in most modules           #
                #                                                       #
                #        Max Planck Institute fuer Kohlenforschung      #
                #                Kaiser Wilhelm Platz 1                 #
                #                 D-45470 Muelheim/Ruhr                 #
                #                      Germany                          #
                #                                                       #
                #                  All rights reserved                  #
                #                        -***-                          #
                #########################################################


                         Program Version 6.0.0  -   RELEASE  -


 With contributions from (in alphabetic order):
   Daniel Aravena         : Magnetic Suceptibility
   Michael Atanasov       : Ab Initio Ligand Field Theory (pilot matlab implementation)
   Alexander A. Auer      : GIAO ZORA, VPT2 properties, NMR spectrum
   Ute Becker             : All parallelization in ORCA, NUMFREQ, NUMCALC
   Giovanni Bistoni       : ED, misc. LED, open-shell LED, HFLD
   Martin Brehm           : Molecular dynamics
   Dmytro Bykov           : pre 5.0 version of the SCF Hessian
   Marcos Casanova-Páez   : Triplet and SCS-CIS(D). UHF-(DLPNO)-IP/EA/STEOM-CCSD. UHF-CVS-IP/STEOM-CCSD
   Vijay G. Chilkuri      : MRCI spin determinant printing, contributions to CSF-ICE
   Pauline Colinet        : FMM embedding
   Dipayan Datta          : RHF DLPNO-CCSD density
   Achintya Kumar Dutta   : EOM-CC, STEOM-CC
   Nicolas Foglia         : Exact transition moments, OPA infrastructure, MCD improvements
   Dmitry Ganyushin       : Spin-Orbit,Spin-Spin,Magnetic field MRCI
   Miquel Garcia          : C-PCM and meta-GGA Hessian, CCSD/C-PCM, Gaussian charge scheme
   Tiago L. C. Gouveia    : GS-ROHF, GS-ROCIS
   Yang Guo               : DLPNO-NEVPT2, F12-NEVPT2, CIM, IAO-localization
   Andreas Hansen         : Spin unrestricted coupled pair/coupled cluster methods
   Ingolf Harden          : AUTO-CI MPn and infrastructure 
   Benjamin Helmich-Paris : MC-RPA, TRAH-(SCF,CASSCF), AVAS, COSX integrals, SCF dyn. polar.
   Lee Huntington         : MR-EOM, pCC
   Robert Izsak           : Overlap fitted RIJCOSX, COSX-SCS-MP3, EOM
   Riya Kayal             : Wick's Theorem for AUTO-CI, AUTO-CI UHF-CCSDT
   Emily Kempfer          : AUTO-CI, RHF CISDT and CCSDT
   Christian Kollmar      : KDIIS, OOCD, Brueckner-CCSD(T), CCSD density, CASPT2, CASPT2-K, improved NEVPT2
   Axel Koslowski         : Symmetry handling
   Simone Kossmann        : Meta GGA functionals, TD-DFT gradient, OOMP2, (MP2 Hessian; deprecated post 5.0)
   Lucas Lang             : DCDCAS
   Marvin Lechner         : AUTO-CI (C++ implementation), FIC-MRCC
   Spencer Leger          : CASSCF response
   Dagmar Lenk            : GEPOL surface, SMD, ORCA-2-JSON
   Dimitrios Liakos       : Extrapolation schemes; Compound Job, initial MDCI parallelization
   Dimitrios Manganas     : Further ROCIS development; embedding schemes. LFT, Crystal Embedding
   Dimitrios Pantazis     : SARC Basis sets
   Anastasios Papadopoulos: AUTO-CI, single reference methods and gradients
   Taras Petrenko         : pre 6.0 DFT Hessian and TD-DFT gradient, (ASA, deprecated), ECA, 1-Electron XAS/XES, NRVS
   Peter Pinski           : DLPNO-MP2, DLPNO-MP2 Gradient
   Christoph Reimann      : Effective Core Potentials
   Marius Retegan         : Local ZFS, SOC
   Christoph Riplinger    : Optimizer, TS searches, QM/MM, DLPNO-CCSD(T), (RO)-DLPNO pert. Triples
   Michael Roemelt        : Original ROCIS implementation
   Masaaki Saitow         : Open-shell DLPNO-CCSD energy and density
   Barbara Sandhoefer     : DKH picture change effects
   Kantharuban Sivalingam : CASSCF convergence/infrastructure, NEVPT2 and variants, FIC-MRCI
   Bernardo de Souza      : ESD, SOC TD-DFT
   Georgi Stoychev        : AutoAux, RI-MP2 NMR, DLPNO-MP2 response, X2C
   Van Anh Tran           : RI-MP2 g-tensors
   Willem Van den Heuvel  : Paramagnetic NMR
   Zikuan Wang            : NOTCH, Electric field optimization 
   Frank Wennmohs         : Technical directorship and infrastructure
   Hang Xu                : AUTO-CI-Response properties 


 We gratefully acknowledge several colleagues who have allowed us to
 interface, adapt or use parts of their codes:
   Stefan Grimme, W. Hujo, H. Kruse, P. Pracht,  : VdW corrections, initial TS optimization,
                  C. Bannwarth, S. Ehlert,         DFT functionals, gCP, sTDA/sTD-DF
                  L. Wittmann, M. Mueller
   Ed Valeev, F. Pavosevic, A. Kumar             : LibInt (2-el integral package), F12 methods
   Garnet Chan, S. Sharma, J. Yang, R. Olivares  : DMRG
   Ulf Ekstrom                                   : XCFun DFT Library
   Mihaly Kallay                                 : mrcc  (arbitrary order and MRCC methods)
   Frank Weinhold                                : gennbo (NPA and NBO analysis)
   Simon Mueller                                 : openCOSMO-RS
   Christopher J. Cramer and Donald G. Truhlar   : smd solvation model
   Lars Goerigk                                  : TD-DFT with DH, B97 family of functionals
   V. Asgeirsson, H. Jonsson                     : NEB implementation
   FAccTs GmbH                                   : IRC, NEB, NEB-TS, DLPNO-Multilevel, CI-OPT
                                                   MM, QMMM, 2- and 3-layer-ONIOM, Crystal-QMMM,
                                                   LR-CPCM, SF, NACMEs, symmetry and pop. for TD-DFT,
                                                   nearIR, NL-DFT gradient (VV10), updates on ESD,
                                                   ML-optimized integration grids, MBIS, APM,
                                                   GOAT, DOCKER, SOLVATOR, interface openCOSMO-RS
   S Lehtola, MJT Oliveira, MAL Marques          : LibXC Library
   Liviu Ungur et al                             : ANISO software


 Your calculation uses the libint2 library for the computation of 2-el integrals
 For citations please refer to: http://libint.valeyev.net

 Your ORCA version has been built with support for libXC version: 6.2.2
 For citations please refer to: https://libxc.gitlab.io

 This ORCA versions uses:
   CBLAS   interface :  Fast vector & matrix operations
   LAPACKE interface :  Fast linear algebra routines
   SCALAPACK package :  Parallel linear algebra routines
   Shared memory     :  Shared parallel matrices
   BLAS/LAPACK       :  OpenBLAS 0.3.27  USE64BITINT DYNAMIC_ARCH NO_AFFINITY Sandybridge SINGLE_THREADED
        Core in use  :  Sandybridge
   Copyright (c) 2011-2014, The OpenBLAS Project


NOTE: MaxCore=3500 MB was set to SCF,MP2,MDCI,CIPSI,MRCI and CIS
      => If you want to overwrite this, your respective input block should be placed after the MaxCore statement
Your calculation utilizes the atom-pairwise dispersion correction
with the Becke-Johnson damping scheme (D3BJ)


Your calculation utilizes the SMD solvation module
Please cite in your paper:
A.V. Marenich, C.J. Cramer, D.G. Truhlar J. Phys. Chem. B, 113, (2009), 6378 

Warning: RI is on but no J-basis has been assigned. Assigning Def2/J (nothing to worry about!)
================================================================================

----- Orbital basis set information -----
Your calculation utilizes the basis: aug-cc-pVTZ 
    H, B-Ne : Obtained from the ccRepo (grant-hill.group.shef.ac.uk/ccrepo) Feb. 2017
              R. A. Kendall, T. H. Dunning, Jr., R. J. Harrison, J. Chem. Phys. 96, 6796 (1992)
         He : Obtained from the ccRepo (grant-hill.group.shef.ac.uk/ccrepo) Feb. 2017
              D. E. Woon, T. H. Dunning, Jr., J. Chem. Phys. 100, 2975 (1994)
  Li-Be, Na : Obtained from the ccRepo (grant-hill.group.shef.ac.uk/ccrepo) Feb. 2017
              B. P. Prascher, D. E. Woon, K. A. Peterson, T. H. Dunning, Jr., A. K. Wilson, Theor. Chem. Acc. 128, 69 (2011)
         Mg : Obtained from the Peterson Research Group Website (tyr0.chem.wsu.edu/~kipeters) Feb. 2017
              B. P. Prascher, D. E. Woon, K. A. Peterson, T. H. Dunning, Jr., A. K. Wilson, Theor. Chem. Acc. 128, 69 (2011)
      Al-Ar : Obtained from the ccRepo (grant-hill.group.shef.ac.uk/ccrepo) Feb. 2017
              D. E. Woon, T. H. Dunning, Jr., J. Chem. Phys. 98, 1358 (1993)
      Sc-Zn : Obtained from the ccRepo (grant-hill.group.shef.ac.uk/ccrepo) Feb. 2017
              N. B. Balabanov, K. A. Peterson, J. Chem. Phys. 123, 064107 (2005)
              N. B. Balabanov, K. A. Peterson, J. Chem. Phys. 125, 074110 (2006)
      Ga-Kr : Obtained from the ccRepo (grant-hill.group.shef.ac.uk/ccrepo) Feb. 2017
              A. K. Wilson, D. E. Woon, K. A. Peterson, T. H. Dunning, Jr., J. Chem. Phys. 110, 7667 (1999)
     Ag, Au : Obtained from the Peterson Research Group Website (tyr0.chem.wsu.edu/~kipeters) Feb. 2017
              K. A. Peterson, C. Puzzarini, Theor. Chem. Acc. 114, 283 (2005)

----- AuxJ basis set information -----
Your calculation utilizes the auxiliary basis: def2/J
   F. Weigend, Phys. Chem. Chem. Phys. 8, 1057 (2006).

================================================================================
                                        WARNINGS
                       Please study these warnings very carefully!
================================================================================

Using LibXC functional ID 497 : Re-regularized SCAN exchange by Furness et al
[ 1]  J. W. Furness, A. D. Kaplan, J. Ning, J. P. Perdew, and J. Sun.,  J. Phys. Chem. Lett. 11, 8208-8215 (2020)
[ 2]  J. W. Furness, A. D. Kaplan, J. Ning, J. P. Perdew, and J. Sun.,  J. Phys. Chem. Lett. 11, 9248-9248 (2020)
Using LibXC functional ID 498 : Re-regularized SCAN correlation by Furness et al
[ 1]  J. W. Furness, A. D. Kaplan, J. Ning, J. P. Perdew, and J. Sun.,  J. Phys. Chem. Lett. 11, 8208-8215 (2020)
[ 2]  J. W. Furness, A. D. Kaplan, J. Ning, J. P. Perdew, and J. Sun.,  J. Phys. Chem. Lett. 11, 9248-9248 (2020)
Using LibXC functional ID 497 : Re-regularized SCAN exchange by Furness et al
[ 1]  J. W. Furness, A. D. Kaplan, J. Ning, J. P. Perdew, and J. Sun.,  J. Phys. Chem. Lett. 11, 8208-8215 (2020)
[ 2]  J. W. Furness, A. D. Kaplan, J. Ning, J. P. Perdew, and J. Sun.,  J. Phys. Chem. Lett. 11, 9248-9248 (2020)
Using LibXC functional ID 498 : Re-regularized SCAN correlation by Furness et al
[ 1]  J. W. Furness, A. D. Kaplan, J. Ning, J. P. Perdew, and J. Sun.,  J. Phys. Chem. Lett. 11, 8208-8215 (2020)
[ 2]  J. W. Furness, A. D. Kaplan, J. Ning, J. P. Perdew, and J. Sun.,  J. Phys. Chem. Lett. 11, 9248-9248 (2020)


WARNING: Found flag for RIJCOSX approximation but no HF exchange needed!
  ===> : RIJCOSX  will be disabled and Split-RI-J is turned on

WARNING: Geometry Optimization
  ===> : Switching off AutoStart
         For restart on a previous wavefunction, please use MOREAD

================================================================================
                                       INPUT FILE
================================================================================
NAME = cs_rporg_169_ox_opt_06.inp
|  1> !r2SCAN opt aug-cc-pVTZ d3 TightSCF SlowConv RIJCOSX defgrid2
|  2> 
|  3> %pal
|  4> nprocs 8
|  5> end
|  6> 
|  7> %scf
|  8> MaxIter 1500
|  9> end
| 10> 
| 11> %maxcore 3500
| 12> 
| 13> !CPCM
| 14> %cpcm smd true
| 15> SMDsolvent "MeCN"
| 16> surfacetype gepol_ses
| 17> rsolv 2.19
| 18> end 
| 19> 
| 20> * xyz 0 1
| 21>   C          -1.14933226451234     -1.23882509190584     -0.00046672280380
| 22>   C          -2.50857813675911     -0.94988227106401     -0.00054346756040
| 23>   C          -2.93817015440872      0.37868475331297     -0.00006408928605
| 24>   C          -2.00629101009504      1.41668452923491      0.00049673263770
| 25>   C          -0.64374499246001      1.13250357756874      0.00056381244254
| 26>   C          -0.20908515748665     -0.19753416758703      0.00007645085547
| 27>   C           1.21837162790625     -0.59720306751016      0.00007667382631
| 28>   O           1.62341721296480     -1.71314820484524     -0.00012734829677
| 29>   Cl          2.38206247173385      0.76415186429790      0.00056602291059
| 30>   H           0.09169908378046      1.93929798920226      0.00098639048783
| 31>   H          -2.34320651232058      2.45698180479248      0.00087795608335
| 32>   H          -4.00834754942676      0.60618222514384     -0.00012604204670
| 33>   H          -3.23886079813446     -1.76401666244183     -0.00098417146236
| 34>   H          -0.79061102078168     -2.27094327819897     -0.00083749778771
| 35> *
| 36> 
| 37>                          ****END OF INPUT****
================================================================================

                       *****************************
                       * Geometry Optimization Run *
                       *****************************

Geometry optimization settings:
Update method            Update   .... BFGS
Choice of coordinates    CoordSys .... (2022) Redundant Internals
Initial Hessian          InHess   .... Almloef's Model
Max. no of cycles        MaxIter  .... 50

Convergence Tolerances:
Energy Change            TolE     ....  5.0000e-06 Eh
Max. Gradient            TolMAXG  ....  3.0000e-04 Eh/bohr
RMS Gradient             TolRMSG  ....  1.0000e-04 Eh/bohr
Max. Displacement        TolMAXD  ....  4.0000e-03 bohr
RMS Displacement         TolRMSD  ....  2.0000e-03 bohr
Strict Convergence                .... False

------------------------------------------------------------------------------
                        ORCA OPTIMIZATION COORDINATE SETUP
------------------------------------------------------------------------------

The optimization will be done in redundant internal coordinates (2022)
Making redundant internal coordinates   ...  (2022 redundants) done
Evaluating the initial hessian          ...  (Almloef) done
Evaluating the coordinates              ...  done
Calculating the B-matrix                .... done
Calculating the G-matrix                .... done
Diagonalizing the G-matrix              .... done
The first mode is                       ....   27
The number of degrees of freedom        ....   36

    -----------------------------------------------------------------
                    Redundant Internal Coordinates


    -----------------------------------------------------------------
         Definition                    Initial Value    Approx d2E/dq
    -----------------------------------------------------------------
      1. B(C   1,C   0)                  1.3896         0.625675   
      2. B(C   2,C   1)                  1.3963         0.610513   
      3. B(C   3,C   2)                  1.3949         0.613572   
      4. B(C   4,C   3)                  1.3919         0.620529   
      5. B(C   5,C   4)                  1.3993         0.603899   
      6. B(C   5,C   0)                  1.4030         0.595704   
      7. B(C   6,C   5)                  1.4824         0.445037   
      8. B(O   7,C   6)                  1.1872         1.178860   
      9. B(Cl  8,C   6)                  1.7909         0.321411   
     10. B(H   9,C   4)                  1.0917         0.357866   
     11. B(H  10,C   3)                  1.0935         0.355507   
     12. B(H  11,C   2)                  1.0941         0.354729   
     13. B(H  12,C   1)                  1.0937         0.355269   
     14. B(H  13,C   0)                  1.0927         0.356572   
     15. A(C   1,C   0,H  13)          121.1664         0.352865   
     16. A(C   1,C   0,C   5)          120.0798         0.431664   
     17. A(C   5,C   0,H  13)          118.7538         0.349950   
     18. A(C   0,C   1,C   2)          119.9197         0.433574   
     19. A(C   2,C   1,H  12)          120.1891         0.351187   
     20. A(C   0,C   1,H  12)          119.8912         0.352647   
     21. A(C   3,C   2,H  11)          119.9151         0.351393   
     22. A(C   1,C   2,H  11)          119.9198         0.351096   
     23. A(C   1,C   2,C   3)          120.1650         0.432054   
     24. A(C   2,C   3,H  10)          120.1383         0.351523   
     25. A(C   2,C   3,C   4)          120.1353         0.433319   
     26. A(C   4,C   3,H  10)          119.7264         0.352194   
     27. A(C   5,C   4,H   9)          119.5513         0.350973   
     28. A(C   3,C   4,H   9)          120.5701         0.352588   
     29. A(C   3,C   4,C   5)          119.8786         0.432083   
     30. A(C   0,C   5,C   6)          116.4393         0.406235   
     31. A(C   0,C   5,C   4)          119.8216         0.428927   
     32. A(C   4,C   5,C   6)          123.7391         0.407218   
     33. A(O   7,C   6,Cl  8)          119.5271         0.449789   
     34. A(C   5,C   6,Cl  8)          114.8824         0.380801   
     35. A(C   5,C   6,O   7)          125.5905         0.456186   
     36. D(H  12,C   1,C   0,C   5)    179.9990         0.027119   
     37. D(C   2,C   1,C   0,C   5)     -0.0007         0.027119   
     38. D(C   2,C   1,C   0,H  13)   -179.9999         0.027119   
     39. D(H  12,C   1,C   0,H  13)     -0.0002         0.027119   
     40. D(C   3,C   2,C   1,C   0)     -0.0002         0.025745   
     41. D(C   3,C   2,C   1,H  12)   -179.9999         0.025745   
     42. D(H  11,C   2,C   1,H  12)      0.0002         0.025745   
     43. D(H  11,C   2,C   1,C   0)    179.9999         0.025745   
     44. D(H  10,C   3,C   2,H  11)      0.0002         0.026018   
     45. D(H  10,C   3,C   2,C   1)   -179.9996         0.026018   
     46. D(C   4,C   3,C   2,H  11)   -179.9993         0.026018   
     47. D(C   4,C   3,C   2,C   1)      0.0008         0.026018   
     48. D(H   9,C   4,C   3,C   2)    179.9991         0.026648   
     49. D(C   5,C   4,C   3,H  10)   -180.0000         0.026648   
     50. D(C   5,C   4,C   3,C   2)     -0.0004         0.026648   
     51. D(H   9,C   4,C   3,H  10)     -0.0005         0.026648   
     52. D(C   6,C   5,C   4,H   9)     -0.0008         0.025159   
     53. D(C   0,C   5,C   4,H   9)    179.9999         0.025159   
     54. D(C   0,C   5,C   4,C   3)     -0.0005         0.025159   
     55. D(C   6,C   5,C   0,H  13)      0.0010         0.024445   
     56. D(C   6,C   5,C   0,C   1)   -179.9982         0.024445   
     57. D(C   6,C   5,C   4,C   3)    179.9987         0.025159   
     58. D(C   4,C   5,C   0,H  13)   -179.9997         0.024445   
     59. D(C   4,C   5,C   0,C   1)      0.0011         0.024445   
     60. D(Cl  8,C   6,C   5,C   4)     -0.0068         0.013507   
     61. D(Cl  8,C   6,C   5,C   0)    179.9925         0.013507   
     62. D(O   7,C   6,C   5,C   4)    179.9881         0.013507   
     63. D(O   7,C   6,C   5,C   0)     -0.0127         0.013507   
    -----------------------------------------------------------------

Number of atoms                         .... 14
Number of degrees of freedom            .... 63


         *************************************************************
         *                GEOMETRY OPTIMIZATION CYCLE   1            *
         *************************************************************
---------------------------------
CARTESIAN COORDINATES (ANGSTROEM)
---------------------------------
  C     -1.149332   -1.238825   -0.000467
  C     -2.508578   -0.949882   -0.000543
  C     -2.938170    0.378685   -0.000064
  C     -2.006291    1.416685    0.000497
  C     -0.643745    1.132504    0.000564
  C     -0.209085   -0.197534    0.000076
  C      1.218372   -0.597203    0.000077
  O      1.623417   -1.713148   -0.000127
  Cl     2.382062    0.764152    0.000566
  H      0.091699    1.939298    0.000986
  H     -2.343207    2.456982    0.000878
  H     -4.008348    0.606182   -0.000126
  H     -3.238861   -1.764017   -0.000984
  H     -0.790611   -2.270943   -0.000837

----------------------------
CARTESIAN COORDINATES (A.U.)
----------------------------
  NO LB      ZA    FRAG     MASS         X           Y           Z
   0 C     6.0000    0    12.011   -2.171923   -2.341040   -0.000882
   1 C     6.0000    0    12.011   -4.740526   -1.795017   -0.001027
   2 C     6.0000    0    12.011   -5.552337    0.715610   -0.000121
   3 C     6.0000    0    12.011   -3.791341    2.677146    0.000939
   4 C     6.0000    0    12.011   -1.216502    2.140122    0.001065
   5 C     6.0000    0    12.011   -0.395114   -0.373285    0.000144
   6 C     6.0000    0    12.011    2.302389   -1.128550    0.000145
   7 O     8.0000    0    15.999    3.067814   -3.237381   -0.000241
   8 Cl   17.0000    0    35.453    4.501446    1.444038    0.001070
   9 H     1.0000    0     1.008    0.173286    3.664742    0.001864
  10 H     1.0000    0     1.008   -4.428019    4.643023    0.001659
  11 H     1.0000    0     1.008   -7.574679    1.145518   -0.000238
  12 H     1.0000    0     1.008   -6.120560   -3.333508   -0.001860
  13 H     1.0000    0     1.008   -1.494038   -4.291461   -0.001583

--------------------------------
INTERNAL COORDINATES (ANGSTROEM)
--------------------------------
 C      0   0   0     0.000000000000     0.00000000     0.00000000
 C      1   0   0     1.389617681532     0.00000000     0.00000000
 C      2   1   0     1.396295051088   119.91966177     0.00000000
 C      3   2   1     1.394934618160   120.16503333     0.00000000
 C      4   3   2     1.391865822543   120.13528918     0.00000000
 C      5   4   3     1.399260452239   119.87859684     0.00000000
 C      6   5   4     1.482352219862   123.73906509   179.99868913
 O      7   6   5     1.187179648218   125.59050784   179.98811091
 Cl     7   6   5     1.790939381953   114.88239478     0.00000000
 H      5   4   3     1.091693817191   120.57007570   179.99909517
 H      4   3   2     1.093494683345   120.13833686   180.00035979
 H      3   2   1     1.094090837333   119.91984731   179.99990751
 H      2   1   3     1.093676262406   119.89120813   179.99970528
 H      1   2   3     1.092679742036   121.16637283   180.00011859

---------------------------
INTERNAL COORDINATES (A.U.)
---------------------------
 C      0   0   0     0.000000000000     0.00000000     0.00000000
 C      1   0   0     2.625996848950     0.00000000     0.00000000
 C      2   1   0     2.638615248706   119.91966177     0.00000000
 C      3   2   1     2.636044403049   120.16503333     0.00000000
 C      4   3   2     2.630245219771   120.13528918     0.00000000
 C      5   4   3     2.644219044758   119.87859684     0.00000000
 C      6   5   4     2.801239729550   123.73906509   179.99868913
 O      7   6   5     2.243444406896   125.59050784   179.98811091
 Cl     7   6   5     3.384384954345   114.88239478     0.00000000
 H      5   4   3     2.063002336586   120.57007570   179.99909517
 H      4   3   2     2.066405480421   120.13833686   180.00035979
 H      3   2   1     2.067532048191   119.91984731   179.99990751
 H      2   1   3     2.066748615117   119.89120813   179.99970528
 H      1   2   3     2.064865464531   121.16637283   180.00011859

---------------------
BASIS SET INFORMATION
---------------------
There are 4 groups of distinct atoms

 Group   1 Type C   : 19s6p3d2f contracted to 5s4p3d2f pattern {88111/3111/111/11}
 Group   2 Type O   : 19s6p3d2f contracted to 5s4p3d2f pattern {88111/3111/111/11}
 Group   3 Type Cl  : 42s17p3d2f contracted to 6s5p3d2f pattern {131313111/77111/111/11}
 Group   4 Type H   : 6s3p2d contracted to 4s3p2d pattern {3111/111/11}

Atom   0C    basis set group =>   1
Atom   1C    basis set group =>   1
Atom   2C    basis set group =>   1
Atom   3C    basis set group =>   1
Atom   4C    basis set group =>   1
Atom   5C    basis set group =>   1
Atom   6C    basis set group =>   1
Atom   7O    basis set group =>   2
Atom   8Cl   basis set group =>   3
Atom   9H    basis set group =>   4
Atom  10H    basis set group =>   4
Atom  11H    basis set group =>   4
Atom  12H    basis set group =>   4
Atom  13H    basis set group =>   4
---------------------------------
AUXILIARY/J BASIS SET INFORMATION
---------------------------------
There are 4 groups of distinct atoms

 Group   1 Type C   : 12s5p4d2f1g contracted to 6s4p3d1f1g pattern {711111/2111/211/2/1}
 Group   2 Type O   : 12s5p4d2f1g contracted to 6s4p3d1f1g pattern {711111/2111/211/2/1}
 Group   3 Type Cl  : 14s5p5d2f1g contracted to 8s4p3d1f1g pattern {71111111/2111/311/2/1}
 Group   4 Type H   : 5s2p1d contracted to 3s1p1d pattern {311/2/1}

Atom   0C    basis set group =>   1
Atom   1C    basis set group =>   1
Atom   2C    basis set group =>   1
Atom   3C    basis set group =>   1
Atom   4C    basis set group =>   1
Atom   5C    basis set group =>   1
Atom   6C    basis set group =>   1
Atom   7O    basis set group =>   2
Atom   8Cl   basis set group =>   3
Atom   9H    basis set group =>   4
Atom  10H    basis set group =>   4
Atom  11H    basis set group =>   4
Atom  12H    basis set group =>   4
Atom  13H    basis set group =>   4


           ************************************************************
           *        Program running with 8 parallel MPI-processes     *
           *              working on a common directory               *
           ************************************************************
------------------------------------------------------------------------------
                             ORCA STARTUP CALCULATIONS
                           -- RI-GTO INTEGRALS CHOSEN --
------------------------------------------------------------------------------
------------------------------------------------------------------------------
                   ___                                                        
                  /   \      - P O W E R E D   B Y -                         
                 /     \                                                     
                 |  |  |   _    _      __       _____    __    __             
                 |  |  |  | |  | |    /  \     |  _  \  |  |  /  |          
                  \  \/   | |  | |   /    \    | | | |  |  | /  /          
                 / \  \   | |__| |  /  /\  \   | |_| |  |  |/  /          
                |  |  |   |  __  | /  /__\  \  |    /   |      \           
                |  |  |   | |  | | |   __   |  |    \   |  |\   \          
                \     /   | |  | | |  |  |  |  | |\  \  |  | \   \       
                 \___/    |_|  |_| |__|  |__|  |_| \__\ |__|  \__/        
                                                                              
                      - O R C A' S   B I G   F R I E N D -                    
                                      &                                       
                       - I N T E G R A L  F E E D E R -                       
                                                                              
 v1 FN, 2020, v2 2021, v3 2022-2024                                           
------------------------------------------------------------------------------


----------------------
SHARK INTEGRAL PACKAGE
----------------------

Number of atoms                             ...     14
Number of basis functions                   ...    606
Number of shells                            ...    236
Maximum angular momentum                    ...      3
Integral batch strategy                     ... SHARK/LIBINT Hybrid
RI-J (if used) integral strategy            ... SPLIT-RIJ (Revised 2003 algorithm where possible)
Printlevel                                  ...      1
Contraction scheme used                     ... PARTIAL GENERAL contraction
Prescreening option                         ... SCHWARTZ
   Thresh                                   ... 2.500e-11
   Tcut                                     ... 2.500e-12
   Tpresel                                  ... 2.500e-12 
Coulomb Range Separation                    ... NOT USED
Exchange Range Separation                   ... NOT USED
Multipole approximations                    ... NOT USED
Finite Nucleus Model                        ... NOT USED
CABS basis                                  ... NOT available
Auxiliary Coulomb fitting basis             ... AVAILABLE
   # of basis functions in Aux-J            ...    498
   # of shells in Aux-J                     ...    162
   Maximum angular momentum in Aux-J        ...      4
Auxiliary J/K fitting basis                 ... NOT available
Auxiliary Correlation fitting basis         ... NOT available
Auxiliary 'external' fitting basis          ... NOT available

Checking pre-screening integrals            ... done (  0.1 sec) Dimension = 236
Save PGC pre-screening integrals            ... done (  0.1 sec) Dimension = 236
Calculate PGC overlap integrals             ... done (  0.2 sec) Dimension = 173
Calculating pre-screening integrals (ORCA)  ... done (  0.4 sec) Dimension = 173
Check shell pair data                       ... done (  0.1 sec)
Shell pair information
Shell pair cut-off parameter TPreSel        ...   2.5e-12
Total number of shell pairs                 ...     27966
Shell pairs after pre-screening             ...     22817
Total number of primitive shell pairs       ...     34492
Primitive shell pairs kept                  ...     26654
          la=0 lb=0:   5098 shell pairs
          la=1 lb=0:   5866 shell pairs
          la=1 lb=1:   1508 shell pairs
          la=2 lb=0:   3949 shell pairs
          la=2 lb=1:   1954 shell pairs
          la=2 lb=2:    672 shell pairs
          la=3 lb=0:   1985 shell pairs
          la=3 lb=1:    971 shell pairs
          la=3 lb=2:    646 shell pairs
          la=3 lb=3:    168 shell pairs

Calculating one electron integrals          ... done (  0.1 sec)
Calculating RI/J V-Matrix + Cholesky decomp.... done (  0.1 sec)
Calculating Nuclear repulsion               ... done (  0.0 sec) ENN=    461.733839116607 Eh

Diagonalization of the overlap matrix:
Smallest eigenvalue                        ... 6.390e-07
Time for diagonalization                   ...    0.090 sec
Threshold for overlap eigenvalues          ... 1.000e-07
Number of eigenvalues below threshold      ... 0

IMPORTANT:
Smallest eigenvalue of S below the DiffSThresh (1.000e-06) while
Thresh>1e-12 and/or TCut>1e-13! In order to avoid SCF convergence issues,
Thresh will be set to at least 1e-12 and TCut to at least 1e-13.
This can be turned off by adding %SCF DiffSThresh -1 END to the input.

Time for construction of square roots      ...    0.088 sec
Total time needed                          ...    0.416 sec

-------------------
DFT GRID GENERATION
-------------------

General Integration Accuracy     IntAcc      ... 4.388
Radial Grid Type                 RadialGrid  ... OptM3 with GC (2021)
Angular Grid (max. ang.)         AngularGrid ... 4 (Lebedev-302)
Angular grid pruning method      GridPruning ... 4 (adaptive)
Weight generation scheme         WeightScheme... mBecke (2022)
Basis function cutoff            BFCut       ... 1.0000e-11
Integration weight cutoff        WCut        ... 1.0000e-14
Partially contracted basis set               ... off
Rotationally invariant grid construction     ... off
Angular grids for H and He will be reduced by one unit
Diffuse basis detected: some atoms will have their outermost
                        angular grid increased by 1.

Total number of grid points                  ...    75043
Total number of batches                      ...     1181
Average number of points per batch           ...       63
Average number of grid points per atom       ...     5360

---------------------
SHARK GRID GENERATION
---------------------

General Integration Accuracy     IntAcc      ... 4.388
Radial Grid Type                 RadialGrid  ... OptM3 with GC (2021)
Angular Grid (max. ang.)         AngularGrid ... 4 (Lebedev-302)
Angular grid pruning method      GridPruning ... 4 (adaptive)
Weight generation scheme         WeightScheme... mBecke (2022)
Basis function cutoff            BFCut       ... 1.0000e-11
Integration weight cutoff        WCut        ... 1.0000e-14
Partially contracted basis set               ... off
Rotationally invariant grid construction     ... off
Angular grids for H and He will be reduced by one unit
Diffuse basis detected: some atoms will have their outermost
                        angular grid increased by 1.
Core-polarized basis detected: some atoms will have their core
                               angular grid increased.
Steep s-basis detected: some atoms will have their radial
                        grid points doubled.

Total number of grid points                  ...   138099
Total number of batches                      ...     2166
Average number of points per batch           ...       63
Average number of grid points per atom       ...     9864
Initializing property integral containers    ... done (  0.2 sec)

SHARK setup successfully completed in   6.0 seconds

Maximum memory used throughout the entire STARTUP-calculation: 75.8 MB


           ************************************************************
           *        Program running with 8 parallel MPI-processes     *
           *              working on a common directory               *
           ************************************************************
-------------------------------------------------------------------------------
                                 ORCA GUESS
                   Start orbitals & Density for SCF / CASSCF
-------------------------------------------------------------------------------

------------
SCF SETTINGS
------------
Hamiltonian:
 Density Functional     Method          .... DFT(GTOs)
  Functional kind                       .... Exchange
  Functional name                       .... Re-regularized SCAN exchange by Furness et al
  Functional family                     .... MGGA
  Functional refs                              
    [ 0] J. W. Furness, A. D. Kaplan, J. Ning, J. P. Perdew, and J. Sun.,  J. Phys. Chem. Lett. 11, 8208-8215 (2020), doi: 10.1021/acs.jpclett.0c02405
    [ 1] J. W. Furness, A. D. Kaplan, J. Ning, J. P. Perdew, and J. Sun.,  J. Phys. Chem. Lett. 11, 9248-9248 (2020), doi: 10.1021/acs.jpclett.0c03077
  Functional external parameters        .... 6
    Parameter  0 _c1        =  6.670000e-01 : c1 parameter        
    Parameter  1 _c2        =  8.000000e-01 : c2 parameter        
    Parameter  2 _d         =  1.240000e+00 : d parameter         
    Parameter  3 _k1        =  6.500000e-02 : k1 parameter        
    Parameter  4 _eta       =  1.000000e-03 : eta parameter       
    Parameter  5 _dp2       =  3.610000e-01 : dp2 parameter       
  Functional kind                       .... Correlation
  Functional name                       .... Re-regularized SCAN correlation by Furness et al
  Functional family                     .... MGGA
  Functional refs                              
    [ 0] J. W. Furness, A. D. Kaplan, J. Ning, J. P. Perdew, and J. Sun.,  J. Phys. Chem. Lett. 11, 8208-8215 (2020), doi: 10.1021/acs.jpclett.0c02405
    [ 1] J. W. Furness, A. D. Kaplan, J. Ning, J. P. Perdew, and J. Sun.,  J. Phys. Chem. Lett. 11, 9248-9248 (2020), doi: 10.1021/acs.jpclett.0c03077
  Functional external parameters        .... 1
    Parameter  0 _eta       =  1.000000e-03 : Regularization parameter
 Gradients option       PostSCFGGA      .... off
   NL short-range parameter             .... 12.300000
 RI-approximation to the Coulomb term is turned on
   Number of AuxJ basis functions       .... 498


General Settings:
 Integral files         IntName         .... cs_rporg_169_ox_opt_06
 Hartree-Fock type      HFTyp           .... RHF
 Total Charge           Charge          ....    0
 Multiplicity           Mult            ....    1
 Number of Electrons    NEL             ....   72
 Basis Dimension        Dim             ....  533
 Nuclear Repulsion      ENuc            ....    461.7338391166 Eh

Convergence Acceleration:
 AO-DIIS                CNVDIIS         .... on
   Start iteration      DIISMaxIt       ....     0
   Startup error        DIISStart       ....  0.200000
   # of expansion vecs  DIISMaxEq       ....     5
   Bias factor          DIISBfac        ....   1.050
   Max. coefficient     DIISMaxC        ....  10.000
 MO-DIIS                CNVKDIIS        .... off
 Trust-Rad. Augm. Hess. CNVTRAH         .... auto
   Auto Start mean grad. ratio tolernc. ....  1.125000
   Auto Start start iteration           ....    50
   Auto Start num. interpolation iter.  ....    10
   Max. Number of Micro iterations      ....    24
   Max. Number of Macro iterations      .... Maxiter - #DIIS iter
   Number of Davidson start vectors     ....     2
   Converg. threshold    (grad. norm)   ....   1.000e-05
   Grad. Scal. Fac. for Micro threshold ....   0.100
   Minimum threshold for Micro iter.    ....   1.000e-02
   NR start threshold (gradient norm)   ....   1.000e-04
   Initial trust radius                 ....   0.400
   Minimum AH scaling param. (alpha)    ....   1.000
   Maximum AH scaling param. (alpha)    .... 1000.000
   Quad. conv. algorithm                .... NR
   White noise on init. David. guess    .... on
   Maximum white noise                  ....   0.010
   Pseudo random numbers                .... off
   Inactive MOs                         .... canonical
   Orbital update algorithm             .... Taylor
   Preconditioner                       .... Diag
   Full preconditioner red. dimension   ....   250
 SOSCF                  CNVSOSCF        .... on
   Start iteration      SOSCFMaxIt      ....   150
   Startup grad/error   SOSCFStart      ....  0.001000
   Hessian update       SOSCFHessUp     .... L-BFGS
 Level Shifting         CNVShift        .... on
   Level shift para.    LevelShift      ....    0.2500
   Turn off err/grad.   ShiftErr        ....    0.0000
 Zerner damping         CNVZerner       .... off
 Static damping         CNVDamp         .... on
   Fraction old density DampFac         ....    0.8500
   Max. Damping (<1)    DampMax         ....    0.9800
   Min. Damping (>=0)   DampMin         ....    0.0000
   Turn off err/grad.   DampErr         ....    0.0300

SCF Procedure:
 Maximum # iterations   MaxIter         ....  1500
 SCF integral mode      SCFMode         .... Direct
   Integral package                     .... SHARK and LIBINT hybrid scheme
 Reset frequency        DirectResetFreq ....    20
 Integral Threshold     Thresh          ....  1.000e-12 Eh
 Primitive CutOff       TCut            ....  1.000e-13 Eh

Convergence Tolerance:
 Convergence Check Mode ConvCheckMode   .... Total+1el-Energy
 Convergence forced     ConvForced      .... 0
 Energy Change          TolE            ....  1.000e-08 Eh
 1-El. energy change                    ....  1.000e-05 Eh
 Orbital Gradient       TolG            ....  1.000e-05
 Orbital Rotation angle TolX            ....  1.000e-05
 DIIS Error             TolErr          ....  5.000e-07

------------------------------
INITIAL GUESS: MODEL POTENTIAL
------------------------------
Loading Hartree-Fock densities                     ... done
Calculating cut-offs                               ... done
Initializing the effective Hamiltonian             ... done
Setting up the integral package (SHARK)            ... done
Starting the Coulomb interaction                   ... done (   0.4 sec)
Making the grid                                    ... done (   0.3 sec)
Mapping shells                                     ... done
Starting the XC term evaluation                    ... done (   0.4 sec)
  promolecular density results
     # of electrons  =     71.997396021
     EX              =    -72.780688986
     EC              =     -2.497678207
     EX+EC           =    -75.278367193
Transforming the Hamiltonian                       ... done (   0.1 sec)
Diagonalizing the Hamiltonian                      ... done (   0.1 sec)
Back transforming the eigenvectors                 ... done (   0.1 sec)
Now organizing SCF variables                       ... done
                      ------------------
                      INITIAL GUESS DONE (   1.8 sec)
                      ------------------
             **** ENERGY FILE WAS UPDATED (cs_rporg_169_ox_opt_06.en.tmp) ****
Finished Guess after   2.9 sec
Maximum memory used throughout the entire GUESS-calculation: 38.3 MB


           ************************************************************
           *        Program running with 8 parallel MPI-processes     *
           *              working on a common directory               *
           ************************************************************

-------------------------------------------------------------------------------------------
                                      ORCA LEAN-SCF
                              memory conserving SCF solver
-------------------------------------------------------------------------------------------

--------------------
CPCM SOLVATION MODEL
--------------------
CPCM parameters:
  Epsilon                                         ...      35.6880
  Refrac                                          ...       1.3442
  Rsolv                                           ...       2.1900
  Surface type                                    ...    GEPOL SES
  Discretization scheme                           ... Constant num. charges
  Epsilon function type                           ...         CPCM
Solvent:                                          ... ACETONITRILE
SMD-CDS solvent descriptors:
  Soln                                            ...       1.3442
  Soln25                                          ...       1.3416
  Sola                                            ...       0.0700
  Solb                                            ...       0.3200
  Solg                                            ...      41.2500
  Solc                                            ...       0.0000
  Solh                                            ...       0.0000
Radii:
  Scheme                                          ... Element-dependent radii
  Radius for C  used is    3.4960 Bohr (=   1.8500 Ang.)
  Radius for O  used is    4.0969 Bohr (=   2.1680 Ang.)
  Radius for Cl used is    4.4975 Bohr (=   2.3800 Ang.)
  Radius for H  used is    2.2677 Bohr (=   1.2000 Ang.)
Calculating surface                               ...        done! (  0.0s)
Cavity surface points                             ...          442
Cavity Volume                                     ...    1144.0888
Cavity Surface-area                               ...     619.8753
Calculating surface distance matrix               ...        done! (  0.0s)
Performing Cholesky decomposition & store         ...        done! (  0.0s)
Overall time for CPCM initialization              ...                 0.0s

----------------------------------------D-I-I-S--------------------------------------------
Iteration    Energy (Eh)           Delta-E    RMSDP     MaxDP     DIISErr   Damp  Time(sec)
-------------------------------------------------------------------------------------------
               ***  Starting incremental Fock matrix formation  ***
    1    -804.9279347356952030     0.00e+00  1.04e-03  5.89e-02  2.73e-01  0.850   7.1
    2    -804.9848903992486839    -5.70e-02  9.47e-04  5.07e-02  1.80e-01  0.850   9.1
                               ***Turning on AO-DIIS***
    3    -805.0178248662599572    -3.29e-02  6.57e-04  2.55e-02  1.01e-01  0.850   6.4
    4    -805.0377770427472797    -2.00e-02  5.44e-04  2.29e-02  8.40e-02  0.850   8.2
    5    -805.0520211053270714    -1.42e-02  4.55e-04  1.90e-02  7.58e-02  0.850   6.3
    6    -805.0634685302044318    -1.14e-02  3.85e-04  1.74e-02  6.67e-02  0.850   7.7
    7    -805.0730997150504891    -9.63e-03  3.28e-04  1.62e-02  5.53e-02  0.850   6.6
    8    -805.0811777167569971    -8.08e-03  2.74e-04  1.44e-02  4.30e-02  0.850   7.9
    9    -805.0877573530111704    -6.58e-03  2.32e-04  1.26e-02  3.55e-02  0.850   5.8
   10    -805.0931626963507597    -5.41e-03  1.97e-04  1.08e-02  3.11e-02  0.850   8.9
   11    -805.0976801144746560    -4.52e-03  1.68e-04  9.27e-03  2.69e-02  0.850   6.4
   12    -805.1014842931457451    -3.80e-03  9.52e-04  5.31e-02  2.24e-02  0.000   6.4
   13    -805.1219870931319065    -2.05e-02  7.94e-05  4.35e-03  5.86e-03  0.000   6.5
   14    -805.1219994501794872    -1.24e-05  2.83e-05  1.26e-03  4.75e-03  0.000   6.1
   15    -805.1220294823702943    -3.00e-05  9.75e-06  4.80e-04  1.27e-03  0.000   7.1
                              *** Initializing SOSCF ***
---------------------------------------S-O-S-C-F--------------------------------------
Iteration    Energy (Eh)           Delta-E    RMSDP     MaxDP     MaxGrad    Time(sec)
--------------------------------------------------------------------------------------
   16    -805.1220317076166566    -2.23e-06  2.65e-06  1.67e-04  3.05e-04     7.3
               *** Restarting incremental Fock matrix formation ***
   17    -805.1220319230918676    -2.15e-07  3.61e-06  2.27e-04  2.72e-05     6.4
   18    -805.1220319080254058     1.51e-08  1.43e-06  8.45e-05  4.81e-05     4.9
   19    -805.1220319402656287    -3.22e-08  1.62e-06  1.16e-04  3.32e-06     6.3
   20    -805.1220319440484445    -3.78e-09  3.48e-07  1.30e-05  7.25e-06     4.9
                 **** Energy Check signals convergence ****

               *****************************************************
               *                     SUCCESS                       *
               *           SCF CONVERGED AFTER  20 CYCLES          *
               *****************************************************


SMD CDS free energy correction energy :                -2.38531     Kcal/mol
Total Energy after SMD CDS correction =              -805.125833171 Eh
             **** ENERGY FILE WAS UPDATED (cs_rporg_169_ox_opt_06.en.tmp) ****

----------------
TOTAL SCF ENERGY
----------------

Total Energy       :       -805.12583317118947 Eh          -21908.58773 eV

Components:
Nuclear Repulsion  :        461.73383911660733 Eh           12564.41652 eV
Electronic Energy  :      -1266.84660986318750 Eh          -34472.64881 eV
One Electron Energy:      -2018.38298439888831 Eh          -54922.99324 eV
Two Electron Energy:        751.53637453570093 Eh           20450.34443 eV
CPCM Dielectric    :         -0.00926119746843 Eh              -0.25201 eV
SMD CDS (Gcds)     :         -0.00380122714102 Eh              -0.10344 eV

Virial components:
Potential Energy   :      -1607.19344238065014 Eh          -43733.95696 eV
Kinetic Energy     :        802.06760920946078 Eh           21825.36923 eV
Virial Ratio       :          2.00381292540256

DFT components:
N(Alpha)           :       36.000003178059 electrons
N(Beta)            :       36.000003178059 electrons
N(Total)           :       72.000006356118 electrons
E(X)               :      -74.000911515922 Eh       
E(C)               :       -2.454788066875 Eh       
E(XC)              :      -76.455699582797 Eh       

CPCM Solvation Model Properties:
Surface-charge          :         -0.02622792232984
Corrected charge        :          0.00000000000000
Outlying charge corr.   :          0.00004832084108 Eh               0.00131 eV
Free-energy (cav+disp)  :         -0.00380122714102 Eh              -0.10344 eV

---------------
SCF CONVERGENCE
---------------

  Last Energy change         ...    3.7828e-09  Tolerance :   1.0000e-08
  Last MAX-Density change    ...    1.3016e-05  Tolerance :   1.0000e-07
  Last RMS-Density change    ...    3.4815e-07  Tolerance :   5.0000e-09
  Last DIIS Error            ...    3.0510e-04  Tolerance :   5.0000e-07
  Last Orbital Gradient      ...    7.2529e-06  Tolerance :   1.0000e-05
  Last Orbital Rotation      ...    1.4191e-05  Tolerance :   1.0000e-05


----------------
ORBITAL ENERGIES
----------------

  NO   OCC          E(Eh)            E(eV) 
   0   2.0000    -101.227807     -2754.5487 
   1   2.0000     -18.983171      -516.5583 
   2   2.0000     -10.186097      -277.1778 
   3   2.0000     -10.074460      -274.1400 
   4   2.0000     -10.060109      -273.7495 
   5   2.0000     -10.059380      -273.7296 
   6   2.0000     -10.057241      -273.6714 
   7   2.0000     -10.052819      -273.5511 
   8   2.0000     -10.052729      -273.5487 
   9   2.0000      -9.381314      -255.2785 
  10   2.0000      -7.125683      -193.8997 
  11   2.0000      -7.118606      -193.7071 
  12   2.0000      -7.117232      -193.6697 
  13   2.0000      -1.059352       -28.8264 
  14   2.0000      -0.844810       -22.9884 
  15   2.0000      -0.815333       -22.1863 
  16   2.0000      -0.741529       -20.1780 
  17   2.0000      -0.728057       -19.8114 
  18   2.0000      -0.619919       -16.8688 
  19   2.0000      -0.586713       -15.9653 
  20   2.0000      -0.537066       -14.6143 
  21   2.0000      -0.496117       -13.5000 
  22   2.0000      -0.457494       -12.4490 
  23   2.0000      -0.443926       -12.0798 
  24   2.0000      -0.425186       -11.5699 
  25   2.0000      -0.416626       -11.3370 
  26   2.0000      -0.415547       -11.3076 
  27   2.0000      -0.399458       -10.8698 
  28   2.0000      -0.356868        -9.7109 
  29   2.0000      -0.337223        -9.1763 
  30   2.0000      -0.321631        -8.7520 
  31   2.0000      -0.307146        -8.3579 
  32   2.0000      -0.301345        -8.2000 
  33   2.0000      -0.270656        -7.3649 
  34   2.0000      -0.258804        -7.0424 
  35   2.0000      -0.253060        -6.8861 
  36   0.0000      -0.104893        -2.8543 
  37   0.0000      -0.049295        -1.3414 
  38   0.0000      -0.008824        -0.2401 
  39   0.0000      -0.005303        -0.1443 
  40   0.0000       0.009189         0.2500 
  41   0.0000       0.024704         0.6722 
  42   0.0000       0.025451         0.6926 
  43   0.0000       0.044480         1.2104 
  44   0.0000       0.044488         1.2106 
  45   0.0000       0.045537         1.2391 
  46   0.0000       0.050537         1.3752 
*Only the first 10 virtual orbitals were printed.

                    ********************************
                    * MULLIKEN POPULATION ANALYSIS *
                    ********************************

-----------------------
MULLIKEN ATOMIC CHARGES
-----------------------
   0 C :   -0.848599
   1 C :   -0.428198
   2 C :   -0.257888
   3 C :   -0.636286
   4 C :   -0.754409
   5 C :    1.408684
   6 C :    0.647089
   7 O :   -0.715356
   8 Cl:   -0.267553
   9 H :    0.348963
  10 H :    0.459359
  11 H :    0.466009
  12 H :    0.416690
  13 H :    0.161494
Sum of atomic charges:   -0.0000000

--------------------------------
MULLIKEN REDUCED ORBITAL CHARGES
--------------------------------
  0 C s       :     4.175624  s :     4.175624
      pz      :     0.918525  p :     2.590055
      px      :     0.717732
      py      :     0.953798
      dz2     :    -0.018019  d :     0.101287
      dxz     :     0.010182
      dyz     :     0.002907
      dx2y2   :     0.031127
      dxy     :     0.075091
      f0      :     0.000473  f :    -0.018367
      f+1     :    -0.001508
      f-1     :    -0.000614
      f+2     :    -0.000142
      f-2     :     0.000216
      f+3     :    -0.005177
      f-3     :    -0.011615

  1 C s       :     3.566813  s :     3.566813
      pz      :     0.946725  p :     2.797480
      px      :     0.948802
      py      :     0.901953
      dz2     :    -0.003568  d :     0.072895
      dxz     :     0.018993
      dyz     :     0.015627
      dx2y2   :    -0.017245
      dxy     :     0.059088
      f0      :     0.000411  f :    -0.008990
      f+1     :     0.000705
      f-1     :     0.000056
      f+2     :     0.000467
      f-2     :     0.000664
      f+3     :    -0.001141
      f-3     :    -0.010152

  2 C s       :     3.627881  s :     3.627881
      pz      :     0.898586  p :     2.713832
      px      :     0.951185
      py      :     0.864060
      dz2     :    -0.013293  d :    -0.079448
      dxz     :     0.003570
      dyz     :     0.025686
      dx2y2   :    -0.069531
      dxy     :    -0.025879
      f0      :     0.000172  f :    -0.004378
      f+1     :     0.000208
      f-1     :     0.000268
      f+2     :     0.000850
      f-2     :     0.000395
      f+3     :    -0.003042
      f-3     :    -0.003229

  3 C s       :     3.710801  s :     3.710801
      pz      :     0.946333  p :     2.859018
      px      :     1.043177
      py      :     0.869509
      dz2     :    -0.000308  d :     0.075943
      dxz     :     0.009834
      dyz     :     0.017513
      dx2y2   :    -0.008783
      dxy     :     0.057687
      f0      :     0.000421  f :    -0.009476
      f+1     :    -0.000017
      f-1     :    -0.000018
      f+2     :     0.000976
      f-2     :     0.000215
      f+3     :    -0.005485
      f-3     :    -0.005569

  4 C s       :     4.032204  s :     4.032204
      pz      :     0.930184  p :     2.716356
      px      :     0.831600
      py      :     0.954572
      dz2     :    -0.022065  d :     0.024696
      dxz     :     0.003982
      dyz     :    -0.005339
      dx2y2   :    -0.080105
      dxy     :     0.128223
      f0      :     0.000934  f :    -0.018846
      f+1     :     0.001376
      f-1     :    -0.000103
      f+2     :    -0.000100
      f-2     :     0.000492
      f+3     :    -0.010811
      f-3     :    -0.010634

  5 C s       :     2.720009  s :     2.720009
      pz      :     0.997994  p :     1.865360
      px      :     0.251791
      py      :     0.615575
      dz2     :    -0.021552  d :     0.110697
      dxz     :     0.013853
      dyz     :     0.000424
      dx2y2   :    -0.021976
      dxy     :     0.139948
      f0      :     0.000479  f :    -0.104749
      f+1     :    -0.006039
      f-1     :    -0.001265
      f+2     :     0.000341
      f-2     :    -0.003823
      f+3     :    -0.022480
      f-3     :    -0.071961

  6 C s       :     3.358005  s :     3.358005
      pz      :     0.723124  p :     1.925967
      px      :     0.655154
      py      :     0.547689
      dz2     :     0.001025  d :     0.056659
      dxz     :     0.025319
      dyz     :     0.021028
      dx2y2   :     0.014593
      dxy     :    -0.005306
      f0      :     0.002560  f :     0.012280
      f+1     :     0.000728
      f-1     :     0.001075
      f+2     :     0.003918
      f-2     :     0.007731
      f+3     :    -0.002160
      f-3     :    -0.001572

  7 O s       :     4.034525  s :     4.034525
      pz      :     1.417437  p :     4.611819
      px      :     1.804025
      py      :     1.390357
      dz2     :     0.003805  d :     0.063613
      dxz     :     0.004408
      dyz     :     0.020030
      dx2y2   :     0.019766
      dxy     :     0.015604
      f0      :     0.000636  f :     0.005398
      f+1     :     0.000146
      f-1     :     0.000153
      f+2     :     0.000881
      f-2     :     0.000707
      f+3     :     0.000620
      f-3     :     0.002255

  8 Cls       :     6.012471  s :     6.012471
      pz      :     3.888800  p :    11.206571
      px      :     3.695395
      py      :     3.622376
      dz2     :     0.007139  d :     0.043842
      dxz     :     0.006988
      dyz     :     0.006574
      dx2y2   :     0.004622
      dxy     :     0.018519
      f0      :     0.000782  f :     0.004668
      f+1     :     0.000531
      f-1     :     0.000041
      f+2     :     0.000360
      f-2     :     0.000861
      f+3     :     0.000482
      f-3     :     0.001612

  9 H s       :     0.651136  s :     0.651136
      pz      :     0.012533  p :    -0.009043
      px      :    -0.013774
      py      :    -0.007802
      dz2     :     0.000072  d :     0.008943
      dxz     :     0.002047
      dyz     :     0.003181
      dx2y2   :     0.002217
      dxy     :     0.001426

 10 H s       :     0.519199  s :     0.519199
      pz      :     0.019916  p :     0.012193
      px      :    -0.000237
      py      :    -0.007486
      dz2     :    -0.000099  d :     0.009248
      dxz     :     0.000449
      dyz     :     0.005291
      dx2y2   :     0.000696
      dxy     :     0.002912

 11 H s       :     0.539910  s :     0.539910
      pz      :     0.014754  p :    -0.014864
      px      :    -0.022319
      py      :    -0.007299
      dz2     :    -0.000338  d :     0.008945
      dxz     :     0.005118
      dyz     :    -0.000042
      dx2y2   :     0.001928
      dxy     :     0.002280

 12 H s       :     0.567218  s :     0.567218
      pz      :     0.019319  p :     0.007291
      px      :    -0.010025
      py      :    -0.002004
      dz2     :    -0.000293  d :     0.008800
      dxz     :     0.002418
      dyz     :     0.003293
      dx2y2   :     0.002104
      dxy     :     0.001278

 13 H s       :     0.851429  s :     0.851429
      pz      :     0.015338  p :    -0.019400
      px      :    -0.020596
      py      :    -0.014142
      dz2     :    -0.000280  d :     0.006478
      dxz     :     0.000294
      dyz     :     0.004926
      dx2y2   :     0.001986
      dxy     :    -0.000448



                     *******************************
                     * LOEWDIN POPULATION ANALYSIS *
                     *******************************

----------------------
LOEWDIN ATOMIC CHARGES
----------------------
   0 C :    0.188531
   1 C :    0.214541
   2 C :    0.210080
   3 C :    0.211315
   4 C :    0.157886
   5 C :   -0.251385
   6 C :   -1.141490
   7 O :    0.414302
   8 Cl:    0.896671
   9 H :   -0.235319
  10 H :   -0.163654
  11 H :   -0.159915
  12 H :   -0.163154
  13 H :   -0.178410

-------------------------------
LOEWDIN REDUCED ORBITAL CHARGES
-------------------------------
  0 C s       :     2.486965  s :     2.486965
      pz      :     0.576911  p :     2.264150
      px      :     0.856409
      py      :     0.830830
      dz2     :     0.071007  d :     0.711786
      dxz     :     0.122363
      dyz     :     0.047697
      dx2y2   :     0.249654
      dxy     :     0.221065
      f0      :     0.021371  f :     0.348568
      f+1     :     0.031391
      f-1     :     0.020901
      f+2     :     0.027988
      f-2     :     0.046927
      f+3     :     0.088488
      f-3     :     0.111502

  1 C s       :     2.494397  s :     2.494397
      pz      :     0.597978  p :     2.283537
      px      :     0.842744
      py      :     0.842814
      dz2     :     0.067350  d :     0.676501
      dxz     :     0.073666
      dyz     :     0.071682
      dx2y2   :     0.174793
      dxy     :     0.289010
      f0      :     0.019555  f :     0.331025
      f+1     :     0.025934
      f-1     :     0.024748
      f+2     :     0.054166
      f-2     :     0.011862
      f+3     :     0.084652
      f-3     :     0.110108

  2 C s       :     2.497092  s :     2.497092
      pz      :     0.576215  p :     2.269761
      px      :     0.837007
      py      :     0.856539
      dz2     :     0.067881  d :     0.689461
      dxz     :     0.040251
      dyz     :     0.115698
      dx2y2   :     0.272690
      dxy     :     0.192942
      f0      :     0.019533  f :     0.333606
      f+1     :     0.020312
      f-1     :     0.030267
      f+2     :     0.018717
      f-2     :     0.050952
      f+3     :     0.084324
      f-3     :     0.109503

  3 C s       :     2.494296  s :     2.494296
      pz      :     0.598647  p :     2.284384
      px      :     0.849195
      py      :     0.836543
      dz2     :     0.067590  d :     0.678041
      dxz     :     0.099644
      dyz     :     0.046136
      dx2y2   :     0.249953
      dxy     :     0.214718
      f0      :     0.019587  f :     0.331964
      f+1     :     0.029915
      f-1     :     0.020940
      f+2     :     0.027380
      f-2     :     0.038868
      f+3     :     0.084762
      f-3     :     0.110513

  4 C s       :     2.490824  s :     2.490824
      pz      :     0.579440  p :     2.279812
      px      :     0.862619
      py      :     0.837753
      dz2     :     0.073321  d :     0.725003
      dxz     :     0.093916
      dyz     :     0.079428
      dx2y2   :     0.199052
      dxy     :     0.279286
      f0      :     0.021258  f :     0.346475
      f+1     :     0.027299
      f-1     :     0.024593
      f+2     :     0.058628
      f-2     :     0.015805
      f+3     :     0.089817
      f-3     :     0.109075

  5 C s       :     2.484072  s :     2.484072
      pz      :     0.644715  p :     2.326763
      px      :     0.816608
      py      :     0.865440
      dz2     :     0.095073  d :     0.940100
      dxz     :     0.105989
      dyz     :     0.131615
      dx2y2   :     0.326327
      dxy     :     0.281096
      f0      :     0.031435  f :     0.500449
      f+1     :     0.037232
      f-1     :     0.035256
      f+2     :     0.033356
      f-2     :     0.070290
      f+3     :     0.129753
      f-3     :     0.163127

  6 C s       :     2.573703  s :     2.573703
      pz      :     0.602685  p :     2.361597
      px      :     0.863485
      py      :     0.895427
      dz2     :     0.126948  d :     1.465255
      dxz     :     0.168901
      dyz     :     0.238574
      dx2y2   :     0.411549
      dxy     :     0.519283
      f0      :     0.048194  f :     0.740935
      f+1     :     0.036426
      f-1     :     0.054135
      f+2     :     0.060191
      f-2     :     0.101995
      f+3     :     0.191860
      f-3     :     0.248135

  7 O s       :     3.216518  s :     3.216518
      pz      :     1.177782  p :     4.038888
      px      :     1.423730
      py      :     1.437375
      dz2     :     0.030142  d :     0.247761
      dxz     :     0.009408
      dyz     :     0.042856
      dx2y2   :     0.076432
      dxy     :     0.088923
      f0      :     0.006629  f :     0.082531
      f+1     :     0.003140
      f-1     :     0.010279
      f+2     :     0.008459
      f-2     :     0.005874
      f+3     :     0.023355
      f-3     :     0.024795

  8 Cls       :     5.382140  s :     5.382140
      pz      :     3.585502  p :    10.432521
      px      :     3.436548
      py      :     3.410471
      dz2     :     0.033883  d :     0.222183
      dxz     :     0.017832
      dyz     :     0.026817
      dx2y2   :     0.066996
      dxy     :     0.076655
      f0      :     0.005149  f :     0.066485
      f+1     :     0.005936
      f-1     :     0.007578
      f+2     :     0.002398
      f-2     :     0.008593
      f+3     :     0.017098
      f-3     :     0.019733

  9 H s       :     0.652866  s :     0.652866
      pz      :     0.077520  p :     0.338284
      px      :     0.145701
      py      :     0.115063
      dz2     :     0.029649  d :     0.244169
      dxz     :     0.030814
      dyz     :     0.033830
      dx2y2   :     0.093973
      dxy     :     0.055903

 10 H s       :     0.658798  s :     0.658798
      pz      :     0.078316  p :     0.294505
      px      :     0.081388
      py      :     0.134801
      dz2     :     0.022469  d :     0.210351
      dxz     :     0.008332
      dyz     :     0.053685
      dx2y2   :     0.057426
      dxy     :     0.068439

 11 H s       :     0.659212  s :     0.659212
      pz      :     0.074298  p :     0.292275
      px      :     0.138911
      py      :     0.079065
      dz2     :     0.022470  d :     0.208428
      dxz     :     0.054163
      dyz     :     0.005372
      dx2y2   :     0.051101
      dxy     :     0.075321

 12 H s       :     0.658899  s :     0.658899
      pz      :     0.078040  p :     0.294165
      px      :     0.104315
      py      :     0.111810
      dz2     :     0.022413  d :     0.210090
      dxz     :     0.028447
      dyz     :     0.033458
      dx2y2   :     0.080458
      dxy     :     0.045314

 13 H s       :     0.646078  s :     0.646078
      pz      :     0.073846  p :     0.308225
      px      :     0.100256
      py      :     0.134123
      dz2     :     0.026092  d :     0.224108
      dxz     :     0.010650
      dyz     :     0.051725
      dx2y2   :     0.066403
      dxy     :     0.069238



                      *****************************
                      * MAYER POPULATION ANALYSIS *
                      *****************************

  NA   - Mulliken gross atomic population
  ZA   - Total nuclear charge
  QA   - Mulliken gross atomic charge
  VA   - Mayer's total valence
  BVA  - Mayer's bonded valence
  FA   - Mayer's free valence

  ATOM       NA         ZA         QA         VA         BVA        FA
  0 C      6.8486     6.0000    -0.8486     2.4186     2.4186    -0.0000
  1 C      6.4282     6.0000    -0.4282     2.6553     2.6553    -0.0000
  2 C      6.2579     6.0000    -0.2579     2.9017     2.9017    -0.0000
  3 C      6.6363     6.0000    -0.6363     2.7696     2.7696     0.0000
  4 C      6.7544     6.0000    -0.7544     2.4275     2.4275    -0.0000
  5 C      4.5913     6.0000     1.4087     1.3010     1.3010     0.0000
  6 C      5.3529     6.0000     0.6471     2.7911     2.7911     0.0000
  7 O      8.7154     8.0000    -0.7154     1.4642     1.4642    -0.0000
  8 Cl    17.2676    17.0000    -0.2676     0.9264     0.9264    -0.0000
  9 H      0.6510     1.0000     0.3490     0.7523     0.7523    -0.0000
 10 H      0.5406     1.0000     0.4594     0.7176     0.7176     0.0000
 11 H      0.5340     1.0000     0.4660     0.6439     0.6439    -0.0000
 12 H      0.5833     1.0000     0.4167     0.7299     0.7299     0.0000
 13 H      0.8385     1.0000     0.1615     0.9924     0.9924    -0.0000

  Mayer bond orders larger than 0.100000
B(  0-C ,  1-C ) :   1.1290 B(  0-C ,  5-C ) :   0.3387 B(  0-C ,  6-C ) :   0.1543 
B(  0-C , 13-H ) :   0.8777 B(  1-C ,  2-C ) :   1.1058 B(  1-C , 12-H ) :   0.7085 
B(  2-C ,  3-C ) :   1.1635 B(  2-C ,  5-C ) :  -0.1635 B(  2-C , 11-H ) :   0.6318 
B(  3-C ,  4-C ) :   1.1249 B(  3-C ,  5-C ) :  -0.1311 B(  3-C , 10-H ) :   0.6326 
B(  4-C ,  5-C ) :   0.2557 B(  4-C ,  6-C ) :   0.1283 B(  4-C ,  9-H ) :   0.9347 
B(  5-C ,  6-C ) :   0.5989 B(  5-C ,  7-O ) :   0.2468 B(  5-C ,  8-Cl) :   0.1941 
B(  6-C ,  7-O ) :   1.0254 B(  6-C ,  8-Cl) :   0.7485 B(  7-O , 13-H ) :   0.1478 
B(  8-Cl,  9-H ) :  -0.1539 

-------
TIMINGS
-------

Total SCF time: 0 days 0 hours 2 min 19 sec 

Total time                  ....     139.472 sec
Sum of individual times     ....     137.060 sec  ( 98.3%)

SCF preparation             ....       1.254 sec  (  0.9%)
Fock matrix formation       ....      97.911 sec  ( 70.2%)
  Startup                   ....       5.292 sec  (  5.4% of F)
  Split-RI-J                ....      20.493 sec  ( 20.9% of F)
  XC integration            ....      55.790 sec  ( 57.0% of F)
    XC Preparation          ....       0.000 sec  (  0.0% of XC)
    Basis function eval.    ....       5.094 sec  (  9.1% of XC)
    Density eval.           ....      18.322 sec  ( 32.8% of XC)
    XC-Functional eval.     ....       0.815 sec  (  1.5% of XC)
    XC-Potential eval.      ....      22.616 sec  ( 40.5% of XC)
  CPCM terms                ....       6.449 sec  (  6.6% of F)
Diagonalization             ....       0.000 sec  (  0.0%)
Density matrix formation    ....       8.939 sec  (  6.4%)
Total Energy calculation    ....       5.079 sec  (  3.6%)
Population analysis         ....       0.787 sec  (  0.6%)
Orbital Transformation      ....       0.928 sec  (  0.7%)
Orbital Orthonormalization  ....       0.000 sec  (  0.0%)
DIIS solution               ....      20.367 sec  ( 14.6%)
SOSCF solution              ....       1.797 sec  (  1.3%)
Finished LeanSCF after 140.0 sec

Maximum memory used throughout the entire LEANSCF-calculation: 52.2 MB


-------------------------------------------------------------------------------
                          DFT DISPERSION CORRECTION                            
                                                                               
                              DFTD3 V3.1  Rev 1                                
                          USING Becke-Johnson damping                          
-------------------------------------------------------------------------------
The R2SCAN functional is recognized
Active option DFTDOPT                   ...         4   

molecular C6(AA) [au] = 3242.629695 


            DFT-D V3
 parameters
 s6 scaling factor         :     1.0000 
 a1 scaling factor         :     0.4948 
 s8 scaling factor         :     0.7898 
 a2 scaling factor         :     5.7308 
 ad hoc parameters k1-k3   :    16.0000     1.3333    -4.0000 

 Edisp/kcal,au: -2.975274980306  -0.004741401980 
 E6   /kcal   :  -2.289235737 
 E8   /kcal   :  -0.686039243 
 % E8         :  23.058011372 

-------------------------   ----------------
Dispersion correction           -0.004741402
-------------------------   ----------------


-------------------------   --------------------
FINAL SINGLE POINT ENERGY      -805.130574573170
-------------------------   --------------------



           ************************************************************
           *        Program running with 8 parallel MPI-processes     *
           *              working on a common directory               *
           ************************************************************
------------------------------------------------------------------------------
                         ORCA SCF GRADIENT CALCULATION
------------------------------------------------------------------------------

Nuc. rep. gradient        (SHARK) ... done (  0.0 sec)
HCore & Overlap gradient  (SHARK) ... done (  0.3 sec)
Split-RIJ-J gradient      (SHARK) ... done (  2.7 sec)
XC gradient                       ... done (  9.3 sec)
CPCM gradient                     ... done (  0.3 sec)
SMD gradient                      ... done (  0.1 sec)
Dispersion correction             ... done (  0.1 sec)

-------------------
DISPERSION GRADIENT
-------------------

   1   C   :   -0.000019905   -0.000042439   -0.000000018
   2   C   :   -0.000064393   -0.000026119   -0.000000019
   3   C   :   -0.000068185    0.000011552   -0.000000004
   4   C   :   -0.000056414    0.000044569    0.000000012
   5   C   :    0.000000819    0.000035481    0.000000015
   6   C   :    0.000021071   -0.000007366    0.000000000
   7   C   :    0.000070866   -0.000017811    0.000000002
   8   O   :    0.000059028   -0.000039392   -0.000000004
   9   Cl  :    0.000142045    0.000029441    0.000000022
  10   H   :    0.000016532    0.000036956    0.000000017
  11   H   :   -0.000024105    0.000040216    0.000000014
  12   H   :   -0.000040035    0.000008151   -0.000000002
  13   H   :   -0.000034735   -0.000028250   -0.000000016
  14   H   :   -0.000002588   -0.000044992   -0.000000018

Difference to translation invariance:
           :   -0.0000000000   -0.0000000000   -0.0000000000

Difference to rotation invariance:
           :    0.0000000000   -0.0000000000    0.0000000000

Norm of the Dispersion gradient    ...    0.0002443286
RMS gradient                       ...    0.0000377007
MAX gradient                       ...    0.0001420446

------------------
CARTESIAN GRADIENT
------------------

   1   C   :   -0.000101791    0.005162263   -0.000026456
   2   C   :    0.001019721    0.003376480   -0.000010658
   3   C   :    0.003318987   -0.000879078    0.000012306
   4   C   :   -0.000097727   -0.003724387    0.000045183
   5   C   :   -0.002683965   -0.003752151   -0.000005966
   6   C   :   -0.002022179   -0.000697159    0.000023068
   7   C   :    0.019617688   -0.003446018   -0.000062851
   8   O   :   -0.007044854    0.008573700    0.000016588
   9   Cl  :   -0.007445991   -0.005716457   -0.000001231
  10   H   :    0.006037023    0.004244061    0.000030930
  11   H   :   -0.002302056    0.006746398   -0.000038824
  12   H   :   -0.006975575    0.001490401   -0.000009924
  13   H   :   -0.004881192   -0.005263481    0.000005966
  14   H   :    0.003561911   -0.006114572    0.000021869

Difference to translation invariance:
           :    0.0000000000    0.0000000000    0.0000000000

Difference to rotation invariance:
           :   -0.0000011369    0.0000541164    0.0003050056

Norm of the Cartesian gradient     ...    0.0309254171
RMS gradient                       ...    0.0047718955
MAX gradient                       ...    0.0196176881

-------
TIMINGS
-------

Total SCF gradient time     ....       13.619 sec

Densities                   ....       0.005 sec  (  0.0%)
One electron gradient       ....       0.312 sec  (  2.3%)
RI-J Coulomb gradient       ....       2.738 sec  ( 20.1%)
XC gradient                 ....       9.304 sec  ( 68.3%)
CPCM gradient               ....       0.263 sec  (  1.9%)
   A-Matrix (El+Nuc)        ....       0.009 sec  (  0.1%)
   Potential                ....       0.254 sec  (  1.9%)
SMD gradient                ....       0.076 sec  (  0.6%)

Maximum memory used throughout the entire SCFGRAD-calculation: 65.7 MB
------------------------------------------------------------------------------
                         ORCA GEOMETRY RELAXATION STEP
------------------------------------------------------------------------------

Reading the OPT-File                    .... done
Getting information on internals        .... done
Copying old internal coords+grads       .... done
Making the new internal coordinates     .... (2022 redundants) done
Validating the new internal coordinates .... (2022 redundants) done
Calculating the B-matrix                .... done
Calculating the G,G- and P matrices     .... done
Transforming gradient to internals      .... done
Projecting the internal gradient        .... done
Number of atoms                         ....  14
Number of internal coordinates          ....  63
Current Energy                          ....  -805.130574573 Eh
Current gradient norm                   ....     0.030925417 Eh/bohr
Maximum allowed component of the step   ....  0.300
Current trust radius                    ....  0.300
Evaluating the initial hessian          ....  (Almloef) done
Projecting the Hessian                  .... done
Forming the augmented Hessian           .... done
Diagonalizing the augmented Hessian     .... done
Last element of RFO vector              ....  0.998261264
Lowest eigenvalues of augmented Hessian:
 -0.001360457  0.013506938  0.013506974  0.021430611  0.024963644
Length of the computed step             ....  0.059047120
The final length of the internal step   ....  0.059047120
Converting the step to Cartesian space:
 Initial RMS(Int)=    0.0074392378
Transforming coordinates:
 Iter   0:  RMS(Cart)=    0.0101053653 RMS(Int)=    2.2387997639
done
Storing new coordinates                 .... done

                                .--------------------.
          ----------------------|Geometry convergence|-------------------------
          Item                value                   Tolerance       Converged
          ---------------------------------------------------------------------
          RMS gradient        0.0030816553            0.0001000000      NO
          MAX gradient        0.0104587866            0.0003000000      NO
          RMS step            0.0074392378            0.0020000000      NO
          MAX step            0.0284655104            0.0040000000      NO
          ........................................................
          Max(Bonds)      0.0151      Max(Angles)    0.64
          Max(Dihed)        0.07      Max(Improp)    0.00
          ---------------------------------------------------------------------

The optimization has not yet converged - more geometry cycles are needed


    ---------------------------------------------------------------------------
                         Redundant Internal Coordinates
                            (Angstroem and degrees)

        Definition                    Value    dE/dq     Step     New-Value
    ----------------------------------------------------------------------------
     1. B(C   1,C   0)                1.3896  0.005163 -0.0044    1.3853   
     2. B(C   2,C   1)                1.3963  0.003083 -0.0027    1.3936   
     3. B(C   3,C   2)                1.3949  0.003295 -0.0029    1.3920   
     4. B(C   4,C   3)                1.3919  0.004902 -0.0042    1.3877   
     5. B(C   5,C   4)                1.3993  0.001684 -0.0014    1.3978   
     6. B(C   5,C   0)                1.4030  0.001071 -0.0009    1.4021   
     7. B(C   6,C   5)                1.4824  0.005097 -0.0060    1.4763   
     8. B(O   7,C   6)                1.1872 -0.010459  0.0047    1.1919   
     9. B(Cl  8,C   6)                1.7909 -0.009188  0.0151    1.8060   
    10. B(H   9,C   4)                1.0917  0.007204 -0.0106    1.0811   
    11. B(H  10,C   3)                1.0935  0.007128 -0.0106    1.0829   
    12. B(H  11,C   2)                1.0941  0.007133 -0.0106    1.0835   
[...]
   7 O :    0.416205
   8 Cl:    0.823894
   9 H :   -0.242273
  10 H :   -0.169972
  11 H :   -0.166295
  12 H :   -0.169572
  13 H :   -0.181798

-------------------------------
LOEWDIN REDUCED ORBITAL CHARGES
-------------------------------
  0 C s       :     2.484025  s :     2.484025
      pz      :     0.573180  p :     2.258098
      px      :     0.854564
      py      :     0.830354
      dz2     :     0.070808  d :     0.710021
      dxz     :     0.122592
      dyz     :     0.047421
      dx2y2   :     0.249768
      dxy     :     0.219433
      f0      :     0.021551  f :     0.349755
      f+1     :     0.031552
      f-1     :     0.020938
      f+2     :     0.027548
      f-2     :     0.047547
      f+3     :     0.089434
      f-3     :     0.111185

  1 C s       :     2.490570  s :     2.490570
      pz      :     0.594647  p :     2.278699
      px      :     0.842398
      py      :     0.841653
      dz2     :     0.067317  d :     0.674926
      dxz     :     0.072857
      dyz     :     0.071414
      dx2y2   :     0.174577
      dxy     :     0.288762
      f0      :     0.019716  f :     0.332828
      f+1     :     0.026103
      f-1     :     0.024920
      f+2     :     0.053966
      f-2     :     0.011849
      f+3     :     0.086070
      f-3     :     0.110203

  2 C s       :     2.493564  s :     2.493564
      pz      :     0.570948  p :     2.263023
      px      :     0.837566
      py      :     0.854509
      dz2     :     0.067653  d :     0.687223
      dxz     :     0.040281
      dyz     :     0.115034
      dx2y2   :     0.271490
      dxy     :     0.192765
      f0      :     0.019660  f :     0.335016
      f+1     :     0.020342
      f-1     :     0.030421
      f+2     :     0.018871
      f-2     :     0.050834
      f+3     :     0.085311
      f-3     :     0.109577

  3 C s       :     2.490476  s :     2.490476
      pz      :     0.595175  p :     2.279478
      px      :     0.848013
      py      :     0.836290
      dz2     :     0.067525  d :     0.676211
      dxz     :     0.098509
      dyz     :     0.045964
      dx2y2   :     0.249619
      dxy     :     0.214595
      f0      :     0.019729  f :     0.333740
      f+1     :     0.030211
      f-1     :     0.020985
      f+2     :     0.027231
      f-2     :     0.038768
      f+3     :     0.085606
      f-3     :     0.111210

  4 C s       :     2.487782  s :     2.487782
      pz      :     0.574954  p :     2.274491
      px      :     0.863059
      py      :     0.836478
      dz2     :     0.073319  d :     0.724534
      dxz     :     0.094150
      dyz     :     0.079474
      dx2y2   :     0.199236
      dxy     :     0.278356
      f0      :     0.021468  f :     0.348107
      f+1     :     0.027403
      f-1     :     0.024727
      f+2     :     0.058703
      f-2     :     0.015922
      f+3     :     0.090654
      f-3     :     0.109231

  5 C s       :     2.481705  s :     2.481705
      pz      :     0.645867  p :     2.327291
      px      :     0.818301
      py      :     0.863123
      dz2     :     0.094739  d :     0.939484
      dxz     :     0.106110
      dyz     :     0.131523
      dx2y2   :     0.326157
      dxy     :     0.280956
      f0      :     0.031767  f :     0.500798
      f+1     :     0.037167
      f-1     :     0.035238
      f+2     :     0.032786
      f-2     :     0.070291
      f+3     :     0.130731
      f-3     :     0.162817

  6 C s       :     2.575824  s :     2.575824
      pz      :     0.600527  p :     2.346185
      px      :     0.864204
      py      :     0.881455
      dz2     :     0.126320  d :     1.438662
      dxz     :     0.171655
      dyz     :     0.228072
      dx2y2   :     0.399799
      dxy     :     0.512816
      f0      :     0.047198  f :     0.727672
      f+1     :     0.036909
      f-1     :     0.052801
      f+2     :     0.057319
      f-2     :     0.099905
      f+3     :     0.187600
      f-3     :     0.245941

  7 O s       :     3.220778  s :     3.220778
      pz      :     1.183229  p :     4.038265
      px      :     1.418779
      py      :     1.436257
      dz2     :     0.029696  d :     0.243754
      dxz     :     0.010244
      dyz     :     0.041208
      dx2y2   :     0.075373
      dxy     :     0.087233
      f0      :     0.006620  f :     0.080997
      f+1     :     0.003262
      f-1     :     0.009970
      f+2     :     0.007435
      f-2     :     0.006679
      f+3     :     0.022369
      f-3     :     0.024663

  8 Cls       :     5.409848  s :     5.409848
      pz      :     3.615775  p :    10.496944
      px      :     3.448756
      py      :     3.432414
      dz2     :     0.032420  d :     0.208390
      dxz     :     0.016536
      dyz     :     0.024196
      dx2y2   :     0.062485
      dxy     :     0.072754
      f0      :     0.004644  f :     0.060924
      f+1     :     0.005531
      f-1     :     0.007187
      f+2     :     0.002080
      f-2     :     0.007729
      f+3     :     0.016154
      f-3     :     0.017599

  9 H s       :     0.653681  s :     0.653681
      pz      :     0.078499  p :     0.341955
      px      :     0.147199
      py      :     0.116257
      dz2     :     0.029915  d :     0.246636
      dxz     :     0.030824
      dyz     :     0.034457
      dx2y2   :     0.095786
      dxy     :     0.055654

 10 H s       :     0.658858  s :     0.658858
      pz      :     0.079429  p :     0.298023
      px      :     0.082947
      py      :     0.135647
      dz2     :     0.022810  d :     0.213092
      dxz     :     0.008416
      dyz     :     0.054321
      dx2y2   :     0.058006
      dxy     :     0.069539

 11 H s       :     0.659604  s :     0.659604
      pz      :     0.075117  p :     0.295723
      px      :     0.139726
      py      :     0.080879
      dz2     :     0.022795  d :     0.210968
      dxz     :     0.054516
      dyz     :     0.005522
      dx2y2   :     0.051681
      dxy     :     0.076455

 12 H s       :     0.658870  s :     0.658870
      pz      :     0.079184  p :     0.297791
      px      :     0.105832
      py      :     0.112776
      dz2     :     0.022757  d :     0.212910
      dxz     :     0.029055
      dyz     :     0.033611
      dx2y2   :     0.081922
      dxy     :     0.045566

 13 H s       :     0.647175  s :     0.647175
      pz      :     0.074868  p :     0.309921
      px      :     0.099768
      py      :     0.135285
      dz2     :     0.026012  d :     0.224702
      dxz     :     0.010295
      dyz     :     0.052557
      dx2y2   :     0.065057
      dxy     :     0.070781



                      *****************************
                      * MAYER POPULATION ANALYSIS *
                      *****************************

  NA   - Mulliken gross atomic population
  ZA   - Total nuclear charge
  QA   - Mulliken gross atomic charge
  VA   - Mayer's total valence
  BVA  - Mayer's bonded valence
  FA   - Mayer's free valence

  ATOM       NA         ZA         QA         VA         BVA        FA
  0 C      6.8282     6.0000    -0.8282     2.3527     2.3527     0.0000
  1 C      6.4288     6.0000    -0.4288     2.6822     2.6822     0.0000
  2 C      6.2466     6.0000    -0.2466     2.8528     2.8528     0.0000
  3 C      6.6453     6.0000    -0.6453     2.7816     2.7816    -0.0000
  4 C      6.7675     6.0000    -0.7675     2.3912     2.3912     0.0000
  5 C      4.5617     6.0000     1.4383     1.2194     1.2194    -0.0000
  6 C      5.3562     6.0000     0.6438     2.8123     2.8123     0.0000
  7 O      8.7170     8.0000    -0.7170     1.4729     1.4729    -0.0000
  8 Cl    17.3102    17.0000    -0.3102     0.9129     0.9129     0.0000
  9 H      0.6618     1.0000     0.3382     0.7752     0.7752     0.0000
 10 H      0.5320     1.0000     0.4680     0.6997     0.6997    -0.0000
 11 H      0.5288     1.0000     0.4712     0.6333     0.6333     0.0000
 12 H      0.5763     1.0000     0.4237     0.7122     0.7122    -0.0000
 13 H      0.8396     1.0000     0.1604     0.9995     0.9995     0.0000

  Mayer bond orders larger than 0.100000
B(  0-C ,  1-C ) :   1.1410 B(  0-C ,  4-C ) :  -0.1067 B(  0-C ,  5-C ) :   0.3158 
B(  0-C ,  6-C ) :   0.1419 B(  0-C , 13-H ) :   0.8819 B(  1-C ,  2-C ) :   1.1015 
B(  1-C , 12-H ) :   0.6971 B(  2-C ,  3-C ) :   1.1613 B(  2-C ,  5-C ) :  -0.1734 
B(  2-C , 11-H ) :   0.6247 B(  3-C ,  4-C ) :   1.1432 B(  3-C ,  5-C ) :  -0.1328 
B(  3-C , 10-H ) :   0.6211 B(  4-C ,  5-C ) :   0.1924 B(  4-C ,  6-C ) :   0.1351 
B(  4-C ,  9-H ) :   0.9735 B(  5-C ,  6-C ) :   0.6276 B(  5-C ,  7-O ) :   0.2450 
B(  5-C ,  8-Cl) :   0.1795 B(  6-C ,  7-O ) :   1.0108 B(  6-C ,  8-Cl) :   0.7452 
B(  7-O , 13-H ) :   0.1555 B(  8-Cl,  9-H ) :  -0.1516 

-------
TIMINGS
-------

Total SCF time: 0 days 0 hours 0 min 24 sec 

Total time                  ....      24.080 sec
Sum of individual times     ....      22.258 sec  ( 92.4%)

SCF preparation             ....       1.328 sec  (  5.5%)
Fock matrix formation       ....      15.277 sec  ( 63.4%)
  Startup                   ....       0.820 sec  (  5.4% of F)
  Split-RI-J                ....       2.989 sec  ( 19.6% of F)
  XC integration            ....       8.788 sec  ( 57.5% of F)
    XC Preparation          ....       0.000 sec  (  0.0% of XC)
    Basis function eval.    ....       0.741 sec  (  8.4% of XC)
    Density eval.           ....       2.984 sec  ( 34.0% of XC)
    XC-Functional eval.     ....       0.122 sec  (  1.4% of XC)
    XC-Potential eval.      ....       3.819 sec  ( 43.5% of XC)
  CPCM terms                ....       0.777 sec  (  5.1% of F)
Diagonalization             ....       0.000 sec  (  0.0%)
Density matrix formation    ....       1.823 sec  (  7.6%)
Total Energy calculation    ....       0.597 sec  (  2.5%)
Population analysis         ....       0.825 sec  (  3.4%)
Orbital Transformation      ....       0.434 sec  (  1.8%)
Orbital Orthonormalization  ....       0.000 sec  (  0.0%)
DIIS solution               ....       0.667 sec  (  2.8%)
SOSCF solution              ....       1.306 sec  (  5.4%)
Finished LeanSCF after  24.7 sec

Maximum memory used throughout the entire LEANSCF-calculation: 53.2 MB


-------------------------------------------------------------------------------
                          DFT DISPERSION CORRECTION                            
                                                                               
                              DFTD3 V3.1  Rev 1                                
                          USING Becke-Johnson damping                          
-------------------------------------------------------------------------------
The R2SCAN functional is recognized
Active option DFTDOPT                   ...         4   

molecular C6(AA) [au] = 3241.268965 


            DFT-D V3
 parameters
 s6 scaling factor         :     1.0000 
 a1 scaling factor         :     0.4948 
 s8 scaling factor         :     0.7898 
 a2 scaling factor         :     5.7308 
 ad hoc parameters k1-k3   :    16.0000     1.3333    -4.0000 

 Edisp/kcal,au: -2.976236707874  -0.004742934590 
 E6   /kcal   :  -2.290172835 
 E8   /kcal   :  -0.686063873 
 % E8         :  23.051388046 

-------------------------   ----------------
Dispersion correction           -0.004742935
-------------------------   ----------------


-------------------------   --------------------
FINAL SINGLE POINT ENERGY      -805.131684611745
-------------------------   --------------------

                                *** OPTIMIZATION RUN DONE ***



           ************************************************************
           *        Program running with 8 parallel MPI-processes     *
           *              working on a common directory               *
           ************************************************************

------------------------------------------------------------------------------
                              ORCA PROPERTY CALCULATIONS
------------------------------------------------------------------------------

GBWName                                 ... cs_rporg_169_ox_opt_06.gbw
Number of atoms                         ...     14
Number of basis functions               ...    606
Max core memory                         ...   3500 MB

Electric properties:
Dipole moment                           ... YES
Quadrupole moment                       ...  NO
Static polarizability (Dipole/Dipole)   ...  NO
Static polarizability (Dipole/Quad.)    ...  NO
Static polarizability (Quad./Quad.)     ...  NO
Static polarizability (Velocity)        ...  NO

Atomic electric properties:
Dipole moment                           ...  NO
Quadrupole moment                       ...  NO
Static polarizability                   ...  NO

Choice of electric origin               ... Center of mass
Position of electric origin             ...     0.020174     0.009049     0.002012

General magnetic properties:
Magnetizability                         ...  NO

EPR properties:
g-Tensor (aka g-matrix)                 ...  NO
Zero-Field splitting spin-orbit         ...  NO
Zero-field splitting spin-spin          ...  NO
Hyperfine couplings                     ...  NO (   0 nuclei)
Quadrupole couplings                    ...  NO (   0 nuclei)
Contact density                         ...  NO (   0 nuclei)

NMR properties:
Chemical shifts                         ...  NO (   0 nuclei)
Spin-rotation constants                 ...  NO (   0 nuclei)
Spin-spin couplings                     ...  NO (   0 nuclei,    0 pairs)

Choice of magnetic origin               ... GIAO
Position of magnetic origin             ...     0.000000     0.000000     0.000000

Properties with geometric perturbations:
SCF Hessian                             ...  NO
IR spectrum                             ...  NO
VCD spectrum                            ...  NO
X-ray spectroscopy properties:
SCF XES/XAS/RIXS spectra                ...  NO


-------------
DIPOLE MOMENT
-------------

Method             : SCF
Type of density    : Electron Density
Multiplicity       :   1
Irrep              :   0
Energy             :  -805.1269416771540364 Eh
Relativity type    : 
Basis              : AO
                                X                 Y                 Z
Electronic contribution:     10.689086206       0.748394755       0.012616365
Nuclear contribution   :    -12.882282735      -0.199749991      -0.012826796
                        -----------------------------------------
Total Dipole Moment    :     -2.193196529       0.548644764      -0.000210431
                        -----------------------------------------
Magnitude (a.u.)       :      2.260779100
Magnitude (Debye)      :      5.746443794



--------------------
Rotational spectrum 
--------------------
 
Rotational constants in cm-1:             0.103808             0.030964             0.023850 
Rotational constants in MHz :          3112.083936           928.262857           714.997526 

Dipole components along the rotational axes: 
x,y,z [a.u.] :    -2.188099    -0.568634     0.000696 
x,y,z [Debye]:    -5.561705    -1.445353     0.001768 

 

Dipole moment calculation done in   0.2 sec 

Maximum memory used throughout the entire PROP-calculation: 37.9 MB

--------------------------------
SUGGESTED CITATIONS FOR THIS RUN
--------------------------------

Below you find a list of papers that are relevant to this ORCA run
We neither can nor want to force you to cite these papers, but we appreciate if you do
You receive ORCA, which is the product of decades of hard work by many enthusiastic individuals, for free
The only thing we kindly ask in return is that you cite our papers,
We deeply appreciate it, if you show your appreciation for ORCA by not just citing the generic ORCA reference.

Please note that relegating all ORCA citations to the supporting information does *not* help us.
SI sections are not indexed - citations you put there will not count into any citation statistics
But we need these citations in order to attract the funding resources that allow us to do what we are doing

Therefore, if you are a happy ORCA user, please consider citing a few of the papers listed below in the main body of your paper

In addition to the list printed below, the program has created the file cs_rporg_169_ox_opt_06.bibtex that contains the list in bibtex format
You can import this file easily into all common literature databanks and citation aid programs


List of essential papers. We consider these as the minimum necessary citations

  1. Neese,F.
     Software update: the ORCA program system, version 5.0
     WIRES Comput. Molec. Sci., 2022 12(1)e1606
     doi.org/10.1002/wcms.1606

List of papers to cite with high priority. The work reported in these papers was absolutely
necessary for this run to complete.
Our perspective: the developers of density functionals and basis sets usually get cited in chemistry papers
Good! But without the algorithms to do something with them, the functionals or basis sets would not do anything.
Hence, in our opinion, the algorithm design and method developments papers are equally worthy of getting cited

  1. Neese,F.
     An improvement of the resolution of the identity approximation for the formation of the Coulomb matrix
     J. Comp. Chem., 2003 24(14)1740-1747
     doi.org/10.1002/jcc.10318
  2. Garcia-Rates,M.; Neese,F.
     Effect of the Solute Cavity on the Solvation Energy and its Derivatives within the Framework of the Gaussian Charge Scheme
     J. Comput. Chem., 2020 41 922-939
     doi.org/10.1002/jcc.26139
  3. Neese,F.
     The SHARK Integral Generation and Digestion System
     J. Comp. Chem., 2022  1-16
     doi.org/10.1002/jcc.26942
  4. Lehtola,S.; Steigemann,C.; Oliveira,M.; Marques,M.
     Recent developments in Libxc - A comprehensive library of functionals for density functional theory
     Software X, 2018 7 
     doi.org/10.1016/j.softx.2017.11.002
  5. Grimme,S.; Antony,J.; Ehrlich,S.; Krieg,H.
     A consistent and accurate ab initio parametrization of density functional dispersion correction (DFT-D) for the 94 elements H-Pu
     J. Chem. Phys., 2010 132 154104-XXXX
     doi.org/10.1063/1.3382344
  6. Grimme,S.; Ehrlich,S.; Goerigk,L.
     Effect of the damping function in dispersion corrected density functional theory
     J. Comput. Chem., 2011 32(7)1456-1465
     doi.org/10.1002/jcc.21759

List of suggested additional citations. These are papers that are important in the 'surrounding' of 
of this run, or papers that preceded the highly important papers. If you like your results we are grateful for a citation.

  1. Neese,F.
     The ORCA program system
     WIRES Comput. Molec. Sci., 2012 2(1)73-78
     doi.org/10.1002/wcms.81
  2. Neese,F.
     Software update: the ORCA program system, version 4.0
     WIRES Comput. Molec. Sci., 2018 8(1)1-6
     doi.org/10.1002/wcms.1327
  3. Neese,F.; Wennmohs,F.; Becker,U.; Riplinger,C.
     The ORCA quantum chemistry program package
     J. Chem. Phys., 2020 152 Art. No. L224108
     doi.org/10.1063/5.0004608

List of optional additional citations

  1. Neese,F.
     Approximate second-order SCF convergence for spin unrestricted wavefunctions
     Chem. Phys. Lett., 2000 325(1-3)93-98
     doi.org/10.1016/s0009-2614(00)00662-x

Timings for individual modules:

Sum of individual times          ...      846.940 sec (=  14.116 min)
Startup calculation              ...       64.539 sec (=   1.076 min)   7.6 %
SCF iterations                   ...      658.061 sec (=  10.968 min)  77.7 %
Property calculations            ...        2.248 sec (=   0.037 min)   0.3 %
SCF Gradient evaluation          ...      121.267 sec (=   2.021 min)  14.3 %
Geometry relaxation              ...        0.824 sec (=   0.014 min)   0.1 %
                             ****ORCA TERMINATED NORMALLY****
TOTAL RUN TIME: 0 days 0 hours 14 minutes 43 seconds 234 msec
