
                                 *****************
                                 * O   R   C   A *
                                 *****************

                                            #,                                       
                                            ###                                      
                                            ####                                     
                                            #####                                    
                                            ######                                   
                                           ########,                                 
                                     ,,################,,,,,                         
                               ,,#################################,,                 
                          ,,##########################################,,             
                       ,#########################################, ''#####,          
                    ,#############################################,,   '####,        
                  ,##################################################,,,,####,       
                ,###########''''           ''''###############################       
              ,#####''   ,,,,##########,,,,          '''####'''          '####       
            ,##' ,,,,###########################,,,                        '##       
           ' ,,###''''                  '''############,,,                           
         ,,##''                                '''############,,,,        ,,,,,,###''
      ,#''                                            '''#######################'''  
     '                                                          ''''####''''         
             ,#######,   #######,   ,#######,      ##                                
            ,#'     '#,  ##    ##  ,#'     '#,    #''#        ,####,   ,####,        
            ##       ##  ##   ,#'  ##            #'  '#       #'       #'  '#        
            ##       ##  #######   ##           ,######,      #####,   #    #        
            '#,     ,#'  ##    ##  '#,     ,#' ,#      #,     #,   #   #,  ,#        
             '#######'   ##     ##  '#######'  #'      '#     '####' # '####'        



                #########################################################
                #                        -***-                          #
                #          Department of theory and spectroscopy        #
                #                                                       #
                #                      Frank Neese                      #
                #                                                       #
                #     Directorship, Architecture, Infrastructure        #
                #                    SHARK, DRIVERS                     #
                #        Core code/Algorithms in most modules           #
                #                                                       #
                #        Max Planck Institute fuer Kohlenforschung      #
                #                Kaiser Wilhelm Platz 1                 #
                #                 D-45470 Muelheim/Ruhr                 #
                #                      Germany                          #
                #                                                       #
                #                  All rights reserved                  #
                #                        -***-                          #
                #########################################################


                         Program Version 6.0.0  -   RELEASE  -


 With contributions from (in alphabetic order):
   Daniel Aravena         : Magnetic Suceptibility
   Michael Atanasov       : Ab Initio Ligand Field Theory (pilot matlab implementation)
   Alexander A. Auer      : GIAO ZORA, VPT2 properties, NMR spectrum
   Ute Becker             : All parallelization in ORCA, NUMFREQ, NUMCALC
   Giovanni Bistoni       : ED, misc. LED, open-shell LED, HFLD
   Martin Brehm           : Molecular dynamics
   Dmytro Bykov           : pre 5.0 version of the SCF Hessian
   Marcos Casanova-Páez   : Triplet and SCS-CIS(D). UHF-(DLPNO)-IP/EA/STEOM-CCSD. UHF-CVS-IP/STEOM-CCSD
   Vijay G. Chilkuri      : MRCI spin determinant printing, contributions to CSF-ICE
   Pauline Colinet        : FMM embedding
   Dipayan Datta          : RHF DLPNO-CCSD density
   Achintya Kumar Dutta   : EOM-CC, STEOM-CC
   Nicolas Foglia         : Exact transition moments, OPA infrastructure, MCD improvements
   Dmitry Ganyushin       : Spin-Orbit,Spin-Spin,Magnetic field MRCI
   Miquel Garcia          : C-PCM and meta-GGA Hessian, CCSD/C-PCM, Gaussian charge scheme
   Tiago L. C. Gouveia    : GS-ROHF, GS-ROCIS
   Yang Guo               : DLPNO-NEVPT2, F12-NEVPT2, CIM, IAO-localization
   Andreas Hansen         : Spin unrestricted coupled pair/coupled cluster methods
   Ingolf Harden          : AUTO-CI MPn and infrastructure 
   Benjamin Helmich-Paris : MC-RPA, TRAH-(SCF,CASSCF), AVAS, COSX integrals, SCF dyn. polar.
   Lee Huntington         : MR-EOM, pCC
   Robert Izsak           : Overlap fitted RIJCOSX, COSX-SCS-MP3, EOM
   Riya Kayal             : Wick's Theorem for AUTO-CI, AUTO-CI UHF-CCSDT
   Emily Kempfer          : AUTO-CI, RHF CISDT and CCSDT
   Christian Kollmar      : KDIIS, OOCD, Brueckner-CCSD(T), CCSD density, CASPT2, CASPT2-K, improved NEVPT2
   Axel Koslowski         : Symmetry handling
   Simone Kossmann        : Meta GGA functionals, TD-DFT gradient, OOMP2, (MP2 Hessian; deprecated post 5.0)
   Lucas Lang             : DCDCAS
   Marvin Lechner         : AUTO-CI (C++ implementation), FIC-MRCC
   Spencer Leger          : CASSCF response
   Dagmar Lenk            : GEPOL surface, SMD, ORCA-2-JSON
   Dimitrios Liakos       : Extrapolation schemes; Compound Job, initial MDCI parallelization
   Dimitrios Manganas     : Further ROCIS development; embedding schemes. LFT, Crystal Embedding
   Dimitrios Pantazis     : SARC Basis sets
   Anastasios Papadopoulos: AUTO-CI, single reference methods and gradients
   Taras Petrenko         : pre 6.0 DFT Hessian and TD-DFT gradient, (ASA, deprecated), ECA, 1-Electron XAS/XES, NRVS
   Peter Pinski           : DLPNO-MP2, DLPNO-MP2 Gradient
   Christoph Reimann      : Effective Core Potentials
   Marius Retegan         : Local ZFS, SOC
   Christoph Riplinger    : Optimizer, TS searches, QM/MM, DLPNO-CCSD(T), (RO)-DLPNO pert. Triples
   Michael Roemelt        : Original ROCIS implementation
   Masaaki Saitow         : Open-shell DLPNO-CCSD energy and density
   Barbara Sandhoefer     : DKH picture change effects
   Kantharuban Sivalingam : CASSCF convergence/infrastructure, NEVPT2 and variants, FIC-MRCI
   Bernardo de Souza      : ESD, SOC TD-DFT
   Georgi Stoychev        : AutoAux, RI-MP2 NMR, DLPNO-MP2 response, X2C
   Van Anh Tran           : RI-MP2 g-tensors
   Willem Van den Heuvel  : Paramagnetic NMR
   Zikuan Wang            : NOTCH, Electric field optimization 
   Frank Wennmohs         : Technical directorship and infrastructure
   Hang Xu                : AUTO-CI-Response properties 


 We gratefully acknowledge several colleagues who have allowed us to
 interface, adapt or use parts of their codes:
   Stefan Grimme, W. Hujo, H. Kruse, P. Pracht,  : VdW corrections, initial TS optimization,
                  C. Bannwarth, S. Ehlert,         DFT functionals, gCP, sTDA/sTD-DF
                  L. Wittmann, M. Mueller
   Ed Valeev, F. Pavosevic, A. Kumar             : LibInt (2-el integral package), F12 methods
   Garnet Chan, S. Sharma, J. Yang, R. Olivares  : DMRG
   Ulf Ekstrom                                   : XCFun DFT Library
   Mihaly Kallay                                 : mrcc  (arbitrary order and MRCC methods)
   Frank Weinhold                                : gennbo (NPA and NBO analysis)
   Simon Mueller                                 : openCOSMO-RS
   Christopher J. Cramer and Donald G. Truhlar   : smd solvation model
   Lars Goerigk                                  : TD-DFT with DH, B97 family of functionals
   V. Asgeirsson, H. Jonsson                     : NEB implementation
   FAccTs GmbH                                   : IRC, NEB, NEB-TS, DLPNO-Multilevel, CI-OPT
                                                   MM, QMMM, 2- and 3-layer-ONIOM, Crystal-QMMM,
                                                   LR-CPCM, SF, NACMEs, symmetry and pop. for TD-DFT,
                                                   nearIR, NL-DFT gradient (VV10), updates on ESD,
                                                   ML-optimized integration grids, MBIS, APM,
                                                   GOAT, DOCKER, SOLVATOR, interface openCOSMO-RS
   S Lehtola, MJT Oliveira, MAL Marques          : LibXC Library
   Liviu Ungur et al                             : ANISO software


 Your calculation uses the libint2 library for the computation of 2-el integrals
 For citations please refer to: http://libint.valeyev.net

 Your ORCA version has been built with support for libXC version: 6.2.2
 For citations please refer to: https://libxc.gitlab.io

 This ORCA versions uses:
   CBLAS   interface :  Fast vector & matrix operations
   LAPACKE interface :  Fast linear algebra routines
   SCALAPACK package :  Parallel linear algebra routines
   Shared memory     :  Shared parallel matrices
   BLAS/LAPACK       :  OpenBLAS 0.3.27  USE64BITINT DYNAMIC_ARCH NO_AFFINITY SkylakeX SINGLE_THREADED
        Core in use  :  SkylakeX
   Copyright (c) 2011-2014, The OpenBLAS Project


NOTE: MaxCore=3000 MB was set to SCF,MP2,MDCI,CIPSI,MRCI and CIS
      => If you want to overwrite this, your respective input block should be placed after the MaxCore statement
Your calculation utilizes the atom-pairwise dispersion correction
with the Becke-Johnson damping scheme (D3BJ)


Your calculation utilizes the SMD solvation module
Please cite in your paper:
A.V. Marenich, C.J. Cramer, D.G. Truhlar J. Phys. Chem. B, 113, (2009), 6378 

Warning: RI is on but no J-basis has been assigned. Assigning Def2/J (nothing to worry about!)
================================================================================

----- Orbital basis set information -----
Your calculation utilizes the basis: aug-cc-pVTZ 
    H, B-Ne : Obtained from the ccRepo (grant-hill.group.shef.ac.uk/ccrepo) Feb. 2017
              R. A. Kendall, T. H. Dunning, Jr., R. J. Harrison, J. Chem. Phys. 96, 6796 (1992)
         He : Obtained from the ccRepo (grant-hill.group.shef.ac.uk/ccrepo) Feb. 2017
              D. E. Woon, T. H. Dunning, Jr., J. Chem. Phys. 100, 2975 (1994)
  Li-Be, Na : Obtained from the ccRepo (grant-hill.group.shef.ac.uk/ccrepo) Feb. 2017
              B. P. Prascher, D. E. Woon, K. A. Peterson, T. H. Dunning, Jr., A. K. Wilson, Theor. Chem. Acc. 128, 69 (2011)
         Mg : Obtained from the Peterson Research Group Website (tyr0.chem.wsu.edu/~kipeters) Feb. 2017
              B. P. Prascher, D. E. Woon, K. A. Peterson, T. H. Dunning, Jr., A. K. Wilson, Theor. Chem. Acc. 128, 69 (2011)
      Al-Ar : Obtained from the ccRepo (grant-hill.group.shef.ac.uk/ccrepo) Feb. 2017
              D. E. Woon, T. H. Dunning, Jr., J. Chem. Phys. 98, 1358 (1993)
      Sc-Zn : Obtained from the ccRepo (grant-hill.group.shef.ac.uk/ccrepo) Feb. 2017
              N. B. Balabanov, K. A. Peterson, J. Chem. Phys. 123, 064107 (2005)
              N. B. Balabanov, K. A. Peterson, J. Chem. Phys. 125, 074110 (2006)
      Ga-Kr : Obtained from the ccRepo (grant-hill.group.shef.ac.uk/ccrepo) Feb. 2017
              A. K. Wilson, D. E. Woon, K. A. Peterson, T. H. Dunning, Jr., J. Chem. Phys. 110, 7667 (1999)
     Ag, Au : Obtained from the Peterson Research Group Website (tyr0.chem.wsu.edu/~kipeters) Feb. 2017
              K. A. Peterson, C. Puzzarini, Theor. Chem. Acc. 114, 283 (2005)

----- AuxJ basis set information -----
Your calculation utilizes the auxiliary basis: def2/J
   F. Weigend, Phys. Chem. Chem. Phys. 8, 1057 (2006).

================================================================================
                                        WARNINGS
                       Please study these warnings very carefully!
================================================================================


WARNING: your system is open-shell and RHF/RKS was chosen
  ===> : WILL SWITCH to UHF/UKS


================================================================================
                                       INPUT FILE
================================================================================
NAME = cs_rporg_146_red_solv_01.inp
|  1> !TPSSh aug-cc-pVTZ d3 TightSCF SlowConv RIJCOSX defgrid2
|  2>  
|  3> %pal
|  4> nprocs 4
|  5> end
|  6>  
|  7> %scf
|  8> MaxIter 1500
|  9> end
| 10>  
| 11> %maxcore 3000
| 12>  
| 13> !CPCM
| 14> %cpcm smd true
| 15> SMDsolvent "MeCN"
| 16> surfacetype gepol_ses
| 17> rsolv 2.19
| 18> end 
| 19>  
| 20> * xyz -1 2
| 21> C          -1.65840506329252      1.23315632851947      0.02601526537403
| 22> C          -2.42578649114951      0.03281585518203      0.08528804223097
| 23> C          -1.67500855485910     -1.17845195322716      0.12036686377485
| 24> C          -0.29808583706699     -1.18487448797938      0.09449761529292
| 25> C           0.47768362470154      0.01218058376897      0.03640458659712
| 26> C          -0.28519866523432      1.22292049595471      0.00549364199425
| 27> H           0.23475594749759      2.18352828017466     -0.06045863687846
| 28> C           1.92437178707837      0.00115458002986      0.01100117558003
| 29> C           2.67883904782948     -1.19675573826742     -0.15101120804037
| 30> C           4.06549110019082     -1.20386096938929     -0.17390692614329
| 31> C           4.80148582635897     -0.01911609182057     -0.03832527138067
| 32> C           4.08714619159076      1.17581153913523      0.12162078849715
| 33> C           2.70053896682853      1.18836482105812      0.14598455531242
| 34> H           2.19415808930578      2.14532112879358      0.29368951522032
| 35> H           4.62811245028724      2.12283575750504      0.23701258282278
| 36> H           5.89571186828997     -0.02674525345583     -0.05713878250098
| 37> H           4.58896204524971     -2.15823787143737     -0.30821999533445
| 38> H           2.15467602469528     -2.14659846493838     -0.28283079681457
| 39> H           0.20917374243606     -2.15301705967323      0.14488479784911
| 40> H          -2.19771917366060     -2.13934491080503      0.17750905700078
| 41> C          -3.86642076140458      0.10366572155671      0.10496388365322
| 42> O          -4.50000624052699      1.17092445235144      0.07778084872509
| 43> C          -4.64653285281065     -1.20806217086235      0.16034754144994
| 44> H          -5.72082859909169     -0.96357086012156      0.16151446988558
| 45> H          -4.42797764815507     -1.85931891363364     -0.70698861916337
| 46> H          -4.41233005196803     -1.79426891356283      1.06923738121782
| 47> H          -2.21281117312006      2.17574341514422     -0.01014627622221
| 48> *
| 49> 
| 50>                          ****END OF INPUT****
================================================================================

                       ****************************
                       * Single Point Calculation *
                       ****************************

---------------------------------
CARTESIAN COORDINATES (ANGSTROEM)
---------------------------------
  C     -1.658405    1.233156    0.026015
  C     -2.425786    0.032816    0.085288
  C     -1.675009   -1.178452    0.120367
  C     -0.298086   -1.184874    0.094498
  C      0.477684    0.012181    0.036405
  C     -0.285199    1.222920    0.005494
  H      0.234756    2.183528   -0.060459
  C      1.924372    0.001155    0.011001
  C      2.678839   -1.196756   -0.151011
  C      4.065491   -1.203861   -0.173907
  C      4.801486   -0.019116   -0.038325
  C      4.087146    1.175812    0.121621
  C      2.700539    1.188365    0.145985
  H      2.194158    2.145321    0.293690
  H      4.628112    2.122836    0.237013
  H      5.895712   -0.026745   -0.057139
  H      4.588962   -2.158238   -0.308220
  H      2.154676   -2.146598   -0.282831
  H      0.209174   -2.153017    0.144885
  H     -2.197719   -2.139345    0.177509
  C     -3.866421    0.103666    0.104964
  O     -4.500006    1.170924    0.077781
  C     -4.646533   -1.208062    0.160348
  H     -5.720829   -0.963571    0.161514
  H     -4.427978   -1.859319   -0.706989
  H     -4.412330   -1.794269    1.069237
  H     -2.212811    2.175743   -0.010146

----------------------------
CARTESIAN COORDINATES (A.U.)
----------------------------
  NO LB      ZA    FRAG     MASS         X           Y           Z
   0 C     6.0000    0    12.011   -3.133931    2.330328    0.049162
   1 C     6.0000    0    12.011   -4.584072    0.062013    0.161171
   2 C     6.0000    0    12.011   -3.165307   -2.226951    0.227460
   3 C     6.0000    0    12.011   -0.563301   -2.239088    0.178575
   4 C     6.0000    0    12.011    0.902691    0.023018    0.068795
   5 C     6.0000    0    12.011   -0.538947    2.310985    0.010381
   6 H     1.0000    0     1.008    0.443624    4.126270   -0.114250
   7 C     6.0000    0    12.011    3.636536    0.002182    0.020789
   8 C     6.0000    0    12.011    5.062272   -2.261541   -0.285370
   9 C     6.0000    0    12.011    7.682665   -2.274968   -0.328636
  10 C     6.0000    0    12.011    9.073493   -0.036124   -0.072424
  11 C     6.0000    0    12.011    7.723587    2.221962    0.229830
  12 C     6.0000    0    12.011    5.103279    2.245684    0.275871
  13 H     1.0000    0     1.008    4.146358    4.054069    0.554993
  14 H     1.0000    0     1.008    8.745865    4.011578    0.447889
  15 H     1.0000    0     1.008   11.141281   -0.050541   -0.107977
  16 H     1.0000    0     1.008    8.671882   -4.078479   -0.582451
  17 H     1.0000    0     1.008    4.071748   -4.056483   -0.534473
  18 H     1.0000    0     1.008    0.395281   -4.068613    0.273793
  19 H     1.0000    0     1.008   -4.153087   -4.042776    0.335444
  20 C     6.0000    0    12.011   -7.306476    0.195900    0.198353
  21 O     8.0000    0    15.999   -8.503779    2.212727    0.146985
  22 C     6.0000    0    12.011   -8.780675   -2.282907    0.303013
  23 H     1.0000    0     1.008  -10.810799   -1.820885    0.305218
  24 H     1.0000    0     1.008   -8.367665   -3.513604   -1.336015
  25 H     1.0000    0     1.008   -8.338095   -3.390677    2.020566
  26 H     1.0000    0     1.008   -4.181607    4.111559   -0.019174

--------------------------------
INTERNAL COORDINATES (ANGSTROEM)
--------------------------------
 C      0   0   0     0.000000000000     0.00000000     0.00000000
 C      1   0   0     1.425904895085     0.00000000     0.00000000
 C      2   1   0     1.425506133635   115.65023393     0.00000000
 C      3   2   1     1.377180684493   122.01061752   359.81421297
 C      4   3   2     1.427632271488   122.69372165     0.25618051
 C      1   2   3     1.373397874238   122.17071410   359.93359404
 H      6   1   2     1.094289640586   117.99824410   178.81781279
 C      5   4   3     1.446953193856   122.52185760   179.92391438
 C      8   5   4     1.424941399032   122.53248441     9.22899037
 C      9   8   5     1.386859261978   122.38307744   180.04957300
 C     10   9   8     1.401317611029   121.27920653   359.94643534
 C     11  10   9     1.401326478410   117.66072563     0.00000000
 C     12  11  10     1.386878067381   121.29090494     0.03451693
 H     13  12  11     1.092704774043   118.27023855   178.77746029
 H     12  11  10     1.096729059260   119.79403446   179.62603260
 H     11  10   9     1.094414356242   121.16932374   180.03004030
 H     10   9   8     1.096766657972   118.92695276   180.38309641
 H      9   8   5     1.092851538049   119.36872763     1.31318121
 H      4   3   2     1.094144043666   117.82598438   178.78207791
 H      3   2   1     1.095356972488   119.69305345   179.32746552
 C      2   1   3     1.442509598905   119.78143859   180.04220962
 O     21   2   1     1.241455063706   123.47815248   359.72382456
 C     21   2   1     1.527177883699   117.93459730   179.64032538
 H     23  21   2     1.101766179018   107.90979022   180.39082416
 H     23  21   2     1.106423850970   112.10107669   300.31177292
 H     23  21   2     1.106602926954   112.12801898    60.52921157
 H      1   2   3     1.094140853627   116.99335482   179.50795653

---------------------------
INTERNAL COORDINATES (A.U.)
---------------------------
 C      0   0   0     0.000000000000     0.00000000     0.00000000
 C      1   0   0     2.694569744729     0.00000000     0.00000000
 C      2   1   0     2.693816194794   115.65023393     0.00000000
 C      3   2   1     2.602494330619   122.01061752   359.81421297
 C      4   3   2     2.697834013060   122.69372165     0.25618051
 C      1   2   3     2.595345855220   122.17071410   359.93359404
 H      6   1   2     2.067907731895   117.99824410   178.81781279
 C      5   4   3     2.734345264991   122.52185760   179.92391438
 C      8   5   4     2.692749001057   122.53248441     9.22899037
 C      9   8   5     2.620784191431   122.38307744   180.04957300
 C     10   9   8     2.648106511486   121.27920653   359.94643534
 C     11  10   9     2.648123268407   117.66072563     0.00000000
 C     12  11  10     2.620819728493   121.29090494     0.03451693
 H     13  12  11     2.064912768170   118.27023855   178.77746029
 H     12  11  10     2.072517565114   119.79403446   179.62603260
 H     11  10   9     2.068143410329   121.16932374   180.03004030
 H     10   9   8     2.072588616383   118.92695276   180.38309641
 H      9   8   5     2.065190111947   119.36872763     1.31318121
 H      4   3   2     2.067632593590   117.82598438   178.78207791
 H      3   2   1     2.069924696883   119.69305345   179.32746552
 C      2   1   3     2.725948087484   119.78143859   180.04220962
 O     21   2   1     2.346010077973   123.47815248   359.72382456
 C     21   2   1     2.885947957972   117.93459730   179.64032538
 H     23  21   2     2.082036341960   107.90979022   180.39082416
 H     23  21   2     2.090838066371   112.10107669   300.31177292
 H     23  21   2     2.091176470939   112.12801898    60.52921157
 H      1   2   3     2.067626565291   116.99335482   179.50795653

---------------------
BASIS SET INFORMATION
---------------------
There are 3 groups of distinct atoms

 Group   1 Type C   : 19s6p3d2f contracted to 5s4p3d2f pattern {88111/3111/111/11}
 Group   2 Type H   : 6s3p2d contracted to 4s3p2d pattern {3111/111/11}
 Group   3 Type O   : 19s6p3d2f contracted to 5s4p3d2f pattern {88111/3111/111/11}

Atom   0C    basis set group =>   1
Atom   1C    basis set group =>   1
Atom   2C    basis set group =>   1
Atom   3C    basis set group =>   1
Atom   4C    basis set group =>   1
Atom   5C    basis set group =>   1
Atom   6H    basis set group =>   2
Atom   7C    basis set group =>   1
Atom   8C    basis set group =>   1
Atom   9C    basis set group =>   1
Atom  10C    basis set group =>   1
Atom  11C    basis set group =>   1
Atom  12C    basis set group =>   1
Atom  13H    basis set group =>   2
Atom  14H    basis set group =>   2
Atom  15H    basis set group =>   2
Atom  16H    basis set group =>   2
Atom  17H    basis set group =>   2
Atom  18H    basis set group =>   2
Atom  19H    basis set group =>   2
Atom  20C    basis set group =>   1
Atom  21O    basis set group =>   3
Atom  22C    basis set group =>   1
Atom  23H    basis set group =>   2
Atom  24H    basis set group =>   2
Atom  25H    basis set group =>   2
Atom  26H    basis set group =>   2
---------------------------------
AUXILIARY/J BASIS SET INFORMATION
---------------------------------
There are 3 groups of distinct atoms

 Group   1 Type C   : 12s5p4d2f1g contracted to 6s4p3d1f1g pattern {711111/2111/211/2/1}
 Group   2 Type H   : 5s2p1d contracted to 3s1p1d pattern {311/2/1}
 Group   3 Type O   : 12s5p4d2f1g contracted to 6s4p3d1f1g pattern {711111/2111/211/2/1}

Atom   0C    basis set group =>   1
Atom   1C    basis set group =>   1
Atom   2C    basis set group =>   1
Atom   3C    basis set group =>   1
Atom   4C    basis set group =>   1
Atom   5C    basis set group =>   1
Atom   6H    basis set group =>   2
Atom   7C    basis set group =>   1
Atom   8C    basis set group =>   1
Atom   9C    basis set group =>   1
Atom  10C    basis set group =>   1
Atom  11C    basis set group =>   1
Atom  12C    basis set group =>   1
Atom  13H    basis set group =>   2
Atom  14H    basis set group =>   2
Atom  15H    basis set group =>   2
Atom  16H    basis set group =>   2
Atom  17H    basis set group =>   2
Atom  18H    basis set group =>   2
Atom  19H    basis set group =>   2
Atom  20C    basis set group =>   1
Atom  21O    basis set group =>   3
Atom  22C    basis set group =>   1
Atom  23H    basis set group =>   2
Atom  24H    basis set group =>   2
Atom  25H    basis set group =>   2
Atom  26H    basis set group =>   2


           ************************************************************
           *        Program running with 4 parallel MPI-processes     *
           *              working on a common directory               *
           ************************************************************
------------------------------------------------------------------------------
                             ORCA STARTUP CALCULATIONS
                           -- RI-GTO INTEGRALS CHOSEN --
------------------------------------------------------------------------------
------------------------------------------------------------------------------
                   ___                                                        
                  /   \      - P O W E R E D   B Y -                         
                 /     \                                                     
                 |  |  |   _    _      __       _____    __    __             
                 |  |  |  | |  | |    /  \     |  _  \  |  |  /  |          
                  \  \/   | |  | |   /    \    | | | |  |  | /  /          
                 / \  \   | |__| |  /  /\  \   | |_| |  |  |/  /          
                |  |  |   |  __  | /  /__\  \  |    /   |      \           
                |  |  |   | |  | | |   __   |  |    \   |  |\   \          
                \     /   | |  | | |  |  |  |  | |\  \  |  | \   \       
                 \___/    |_|  |_| |__|  |__|  |_| \__\ |__|  \__/        
                                                                              
                      - O R C A' S   B I G   F R I E N D -                    
                                      &                                       
                       - I N T E G R A L  F E E D E R -                       
                                                                              
 v1 FN, 2020, v2 2021, v3 2022-2024                                           
------------------------------------------------------------------------------


----------------------
SHARK INTEGRAL PACKAGE
----------------------

Number of atoms                             ...     27
Number of basis functions                   ...   1056
Number of shells                            ...    408
Maximum angular momentum                    ...      3
Integral batch strategy                     ... SHARK/LIBINT Hybrid
RI-J (if used) integral strategy            ... SPLIT-RIJ (Revised 2003 algorithm where possible)
Printlevel                                  ...      1
Contraction scheme used                     ... PARTIAL GENERAL contraction
Prescreening option                         ... SCHWARTZ
   Thresh                                   ... 2.500e-11
   Tcut                                     ... 2.500e-12
   Tpresel                                  ... 2.500e-12 
Coulomb Range Separation                    ... NOT USED
Exchange Range Separation                   ... NOT USED
Multipole approximations                    ... NOT USED
Finite Nucleus Model                        ... NOT USED
CABS basis                                  ... NOT available
Auxiliary Coulomb fitting basis             ... AVAILABLE
   # of basis functions in Aux-J            ...    867
   # of shells in Aux-J                     ...    285
   Maximum angular momentum in Aux-J        ...      4
Auxiliary J/K fitting basis                 ... NOT available
Auxiliary Correlation fitting basis         ... NOT available
Auxiliary 'external' fitting basis          ... NOT available

Checking pre-screening integrals            ... done (  0.0 sec) Dimension = 408
Save PGC pre-screening integrals            ... done (  0.1 sec) Dimension = 408
Calculate PGC overlap integrals             ... done (  0.2 sec) Dimension = 318
Calculating pre-screening integrals (ORCA)  ... done (  0.4 sec) Dimension = 318
Check shell pair data                       ... done (  0.0 sec)
Shell pair information
Shell pair cut-off parameter TPreSel        ...   2.5e-12
Total number of shell pairs                 ...     83436
Shell pairs after pre-screening             ...     61064
Total number of primitive shell pairs       ...    107034
Primitive shell pairs kept                  ...     71774
          la=0 lb=0:  13722 shell pairs
          la=1 lb=0:  15682 shell pairs
          la=1 lb=1:   4029 shell pairs
          la=2 lb=0:  10763 shell pairs
          la=2 lb=1:   5577 shell pairs
          la=2 lb=2:   1979 shell pairs
          la=3 lb=0:   4747 shell pairs
          la=3 lb=1:   2456 shell pairs
          la=3 lb=2:   1714 shell pairs
          la=3 lb=3:    395 shell pairs

Calculating one electron integrals          ... done (  0.1 sec)
Calculating RI/J V-Matrix + Cholesky decomp.... done (  0.1 sec)
Calculating Nuclear repulsion               ... done (  0.0 sec) ENN=    852.107028644930 Eh

Diagonalization of the overlap matrix:
Smallest eigenvalue                        ... 2.258e-07
Time for diagonalization                   ...    0.205 sec
Threshold for overlap eigenvalues          ... 1.000e-07
Number of eigenvalues below threshold      ... 0

IMPORTANT:
Smallest eigenvalue of S below the DiffSThresh (1.000e-06) while
Thresh>1e-12 and/or TCut>1e-13! In order to avoid SCF convergence issues,
Thresh will be set to at least 1e-12 and TCut to at least 1e-13.
This can be turned off by adding %SCF DiffSThresh -1 END to the input.

Time for construction of square roots      ...    0.132 sec
Total time needed                          ...    0.360 sec

-------------------
DFT GRID GENERATION
-------------------

General Integration Accuracy     IntAcc      ... 4.388
Radial Grid Type                 RadialGrid  ... OptM3 with GC (2021)
Angular Grid (max. ang.)         AngularGrid ... 4 (Lebedev-302)
Angular grid pruning method      GridPruning ... 4 (adaptive)
Weight generation scheme         WeightScheme... mBecke (2022)
Basis function cutoff            BFCut       ... 1.0000e-11
Integration weight cutoff        WCut        ... 1.0000e-14
Partially contracted basis set               ... off
Rotationally invariant grid construction     ... off
Angular grids for H and He will be reduced by one unit
Diffuse basis detected: some atoms will have their outermost
                        angular grid increased by 1.

Total number of grid points                  ...   134124
Total number of batches                      ...     2109
Average number of points per batch           ...       63
Average number of grid points per atom       ...     4968

---------------------
SHARK GRID GENERATION
---------------------

General Integration Accuracy     IntAcc      ... 4.388
Radial Grid Type                 RadialGrid  ... OptM3 with GC (2021)
Angular Grid (max. ang.)         AngularGrid ... 4 (Lebedev-302)
Angular grid pruning method      GridPruning ... 4 (adaptive)
Weight generation scheme         WeightScheme... mBecke (2022)
Basis function cutoff            BFCut       ... 1.0000e-11
Integration weight cutoff        WCut        ... 1.0000e-14
Partially contracted basis set               ... off
Rotationally invariant grid construction     ... off
Angular grids for H and He will be reduced by one unit
Diffuse basis detected: some atoms will have their outermost
                        angular grid increased by 1.
Steep s-basis detected: some atoms will have their radial
                        grid points doubled.

Total number of grid points                  ...   228087
Total number of batches                      ...     3577
Average number of points per batch           ...       63
Average number of grid points per atom       ...     8448

--------------------
COSX GRID GENERATION
--------------------

GRIDX 1
-------
General Integration Accuracy     IntAcc      ... 3.816
Radial Grid Type                 RadialGrid  ... OptM3 with GC (2021)
Angular Grid (max. ang.)         AngularGrid ... 1 (Lebedev-50)
Angular grid pruning method      GridPruning ... 4 (adaptive)
Weight generation scheme         WeightScheme... mBecke (2022)
Basis function cutoff            BFCut       ... 1.0000e-11
Integration weight cutoff        WCut        ... 1.0000e-14
Partially contracted basis set               ... on
Rotationally invariant grid construction     ... off
Angular grids for H and He will be reduced by one unit
Diffuse basis detected: some atoms will have their outermost
                        angular grid increased by 1.

Total number of grid points                  ...    16849
Total number of batches                      ...      146
Average number of points per batch           ...      115
Average number of grid points per atom       ...      624
UseSFitting                                  ... on

GRIDX 2
-------
General Integration Accuracy     IntAcc      ... 4.020
Radial Grid Type                 RadialGrid  ... OptM3 with GC (2021)
Angular Grid (max. ang.)         AngularGrid ... 2 (Lebedev-110)
Angular grid pruning method      GridPruning ... 4 (adaptive)
Weight generation scheme         WeightScheme... mBecke (2022)
Basis function cutoff            BFCut       ... 1.0000e-11
Integration weight cutoff        WCut        ... 1.0000e-14
Partially contracted basis set               ... on
Rotationally invariant grid construction     ... off
Angular grids for H and He will be reduced by one unit
Diffuse basis detected: some atoms will have their outermost
                        angular grid increased by 1.

Total number of grid points                  ...    40640
Total number of batches                      ...      335
Average number of points per batch           ...      121
Average number of grid points per atom       ...     1505
UseSFitting                                  ... on

GRIDX 3
-------
General Integration Accuracy     IntAcc      ... 4.338
Radial Grid Type                 RadialGrid  ... OptM3 with GC (2021)
Angular Grid (max. ang.)         AngularGrid ... 3 (Lebedev-194)
Angular grid pruning method      GridPruning ... 4 (adaptive)
Weight generation scheme         WeightScheme... mBecke (2022)
Basis function cutoff            BFCut       ... 1.0000e-11
Integration weight cutoff        WCut        ... 1.0000e-14
Partially contracted basis set               ... on
Rotationally invariant grid construction     ... off
Angular grids for H and He will be reduced by one unit
Diffuse basis detected: some atoms will have their outermost
                        angular grid increased by 1.

Total number of grid points                  ...    90008
Total number of batches                      ...      716
Average number of points per batch           ...      125
Average number of grid points per atom       ...     3334
UseSFitting                                  ... on
Initializing property integral containers    ... done (  0.1 sec)

SHARK setup successfully completed in  13.7 seconds

Maximum memory used throughout the entire STARTUP-calculation: 137.3 MB


           ************************************************************
           *        Program running with 4 parallel MPI-processes     *
           *              working on a common directory               *
           ************************************************************
-------------------------------------------------------------------------------
                                 ORCA GUESS
                   Start orbitals & Density for SCF / CASSCF
-------------------------------------------------------------------------------

------------
SCF SETTINGS
------------
Hamiltonian:
 Density Functional     Method          .... DFT(GTOs)
 Exchange Functional    Exchange        .... TPSS
 Correlation Functional Correlation     .... TPSS
 LDA part of GGA corr.  LDAOpt          .... PW91-LDA
 Gradients option       PostSCFGGA      .... off
 Hybrid DFT is turned on
   Fraction HF Exchange ScalHFX         ....  0.100000
   Scaling of DF-GGA-X  ScalDFX         ....  0.900000
   Scaling of DF-GGA-C  ScalDFC         ....  1.000000
   Scaling of DF-LDA-C  ScalLDAC        ....  1.000000
   Perturbative correction              ....  0.000000
   NL short-range parameter             ....  5.200000
 RI-approximation to the Coulomb term is turned on
   Number of AuxJ basis functions       .... 867
   RIJ-COSX (HFX calculated with COS-X)).... on


General Settings:
 Integral files         IntName         .... cs_rporg_146_red_solv_01
 Hartree-Fock type      HFTyp           .... UHF
 Total Charge           Charge          ....   -1
 Multiplicity           Mult            ....    2
 Number of Electrons    NEL             ....  105
 Basis Dimension        Dim             ....  966
 Nuclear Repulsion      ENuc            ....    852.1070286449 Eh

Convergence Acceleration:
 AO-DIIS                CNVDIIS         .... on
   Start iteration      DIISMaxIt       ....     0
   Startup error        DIISStart       ....  0.200000
   # of expansion vecs  DIISMaxEq       ....     5
   Bias factor          DIISBfac        ....   1.050
   Max. coefficient     DIISMaxC        ....  10.000
 MO-DIIS                CNVKDIIS        .... off
 Trust-Rad. Augm. Hess. CNVTRAH         .... auto
   Auto Start mean grad. ratio tolernc. ....  1.125000
   Auto Start start iteration           ....    50
   Auto Start num. interpolation iter.  ....    10
   Max. Number of Micro iterations      ....    24
   Max. Number of Macro iterations      .... Maxiter - #DIIS iter
   Number of Davidson start vectors     ....     2
   Converg. threshold    (grad. norm)   ....   1.000e-05
   Grad. Scal. Fac. for Micro threshold ....   0.100
   Minimum threshold for Micro iter.    ....   1.000e-02
   NR start threshold (gradient norm)   ....   1.000e-04
   Initial trust radius                 ....   0.400
   Minimum AH scaling param. (alpha)    ....   1.000
   Maximum AH scaling param. (alpha)    .... 1000.000
   Quad. conv. algorithm                .... NR
   White noise on init. David. guess    .... on
   Maximum white noise                  ....   0.010
   Pseudo random numbers                .... off
   Inactive MOs                         .... canonical
   Orbital update algorithm             .... Taylor
   Preconditioner                       .... Diag
   Full preconditioner red. dimension   ....   250
 SOSCF                  CNVSOSCF        .... on
   Start iteration      SOSCFMaxIt      ....   150
   Startup grad/error   SOSCFStart      ....  0.001000
   Hessian update       SOSCFHessUp     .... L-BFGS
 Level Shifting         CNVShift        .... on
   Level shift para.    LevelShift      ....    0.2500
   Turn off err/grad.   ShiftErr        ....    0.0000
 Zerner damping         CNVZerner       .... off
 Static damping         CNVDamp         .... on
   Fraction old density DampFac         ....    0.8500
   Max. Damping (<1)    DampMax         ....    0.9800
   Min. Damping (>=0)   DampMin         ....    0.0000
   Turn off err/grad.   DampErr         ....    0.0300

SCF Procedure:
 Maximum # iterations   MaxIter         ....  1500
 SCF integral mode      SCFMode         .... Direct
   Integral package                     .... SHARK and LIBINT hybrid scheme
 Reset frequency        DirectResetFreq ....    20
 Integral Threshold     Thresh          ....  1.000e-12 Eh
 Primitive CutOff       TCut            ....  1.000e-13 Eh

Convergence Tolerance:
 Convergence Check Mode ConvCheckMode   .... Total+1el-Energy
 Convergence forced     ConvForced      .... 0
 Energy Change          TolE            ....  1.000e-08 Eh
 1-El. energy change                    ....  1.000e-05 Eh
 Orbital Gradient       TolG            ....  1.000e-05
 Orbital Rotation angle TolX            ....  1.000e-05
 DIIS Error             TolErr          ....  5.000e-07

------------------------------
INITIAL GUESS: MODEL POTENTIAL
------------------------------
Loading Hartree-Fock densities                     ... done
Calculating cut-offs                               ... done
Initializing the effective Hamiltonian             ... done
Setting up the integral package (SHARK)            ... done
Starting the Coulomb interaction                   ... done (   1.4 sec)
Making the grid                                    ... done (   0.6 sec)
Mapping shells                                     ... done
Starting the XC term evaluation                    ... done (   1.9 sec)
  promolecular density results
     # of electrons  =    103.998209955
     EX              =    -83.223422447
     EC              =     -3.449615956
     EX+EC           =    -86.673038403
Transforming the Hamiltonian                       ... done (   0.1 sec)
Diagonalizing the Hamiltonian                      ... done (   0.2 sec)
Back transforming the eigenvectors                 ... done (   0.1 sec)
Now organizing SCF variables                       ... done
                      ------------------
                      INITIAL GUESS DONE (   4.6 sec)
                      ------------------
             **** ENERGY FILE WAS UPDATED (cs_rporg_146_red_solv_01.en.tmp) ****
Finished Guess after   6.0 sec
Maximum memory used throughout the entire GUESS-calculation: 109.2 MB


           ************************************************************
           *        Program running with 4 parallel MPI-processes     *
           *              working on a common directory               *
           ************************************************************

-------------------------------------------------------------------------------------------
                                      ORCA LEAN-SCF
                              memory conserving SCF solver
-------------------------------------------------------------------------------------------

--------------------
CPCM SOLVATION MODEL
--------------------
CPCM parameters:
  Epsilon                                         ...      35.6880
  Refrac                                          ...       1.3442
  Rsolv                                           ...       2.1900
  Surface type                                    ...    GEPOL SES
  Discretization scheme                           ... Constant num. charges
  Epsilon function type                           ...         CPCM
Solvent:                                          ... ACETONITRILE
SMD-CDS solvent descriptors:
  Soln                                            ...       1.3442
  Soln25                                          ...       1.3416
  Sola                                            ...       0.0700
  Solb                                            ...       0.3200
  Solg                                            ...      41.2500
  Solc                                            ...       0.0000
  Solh                                            ...       0.0000
Radii:
  Scheme                                          ... Element-dependent radii
  Radius for C  used is    3.4960 Bohr (=   1.8500 Ang.)
  Radius for H  used is    2.2677 Bohr (=   1.2000 Ang.)
  Radius for O  used is    4.0969 Bohr (=   2.1680 Ang.)
Calculating surface                               ...        done! (  0.0s)
Cavity surface points                             ...          941
Cavity Volume                                     ...    1578.6975
Cavity Surface-area                               ...     849.7766
Calculating surface distance matrix               ...        done! (  0.0s)
Performing Cholesky decomposition & store         ...        done! (  0.0s)
Overall time for CPCM initialization              ...                 0.1s

----------------------------------------D-I-I-S--------------------------------------------
Iteration    Energy (Eh)           Delta-E    RMSDP     MaxDP     DIISErr   Damp  Time(sec)
-------------------------------------------------------------------------------------------
               ***  Starting incremental Fock matrix formation  ***
    1    -615.9035721950310744     0.00e+00  1.11e-03  1.13e-01  1.54e-01  0.850  82.7
Warning: op=0 Small HOMO/LUMO gap (   0.015) - skipping pre-diagonalization
         Will do a full diagonalization
    2    -616.0074246042609047    -1.04e-01  1.19e-03  1.25e-01  1.07e-01  0.850  51.1
                               ***Turning on AO-DIIS***
    3    -616.0765251841264671    -6.91e-02  8.15e-04  5.42e-02  6.42e-02  0.850  49.6
    4    -616.1206541288879635    -4.41e-02  6.80e-04  4.26e-02  5.49e-02  0.850  48.7
    5    -616.1527460776371754    -3.21e-02  5.85e-04  3.76e-02  4.94e-02  0.850  47.5
    6    -616.1782822494956235    -2.55e-02  4.99e-04  3.30e-02  4.31e-02  0.850  47.2
    7    -616.1993808478996471    -2.11e-02  4.20e-04  2.85e-02  3.55e-02  0.850  45.0
    8    -616.2168247671438621    -1.74e-02  3.50e-04  2.37e-02  2.84e-02  0.850  42.1
    9    -616.2311254796989033    -1.43e-02  1.97e-03  1.33e-01  2.40e-02  0.000  40.9
   10    -616.3049961578965394    -7.39e-02  1.42e-04  1.05e-02  3.74e-03  0.000  43.9
   11    -616.3049968846812590    -7.27e-07  8.79e-05  8.11e-03  6.25e-03  0.000  34.3
   12    -616.3051523112608265    -1.55e-04  4.84e-05  5.72e-03  1.07e-03  0.000  32.5
                              *** Initializing SOSCF ***
---------------------------------------S-O-S-C-F--------------------------------------
Iteration    Energy (Eh)           Delta-E    RMSDP     MaxDP     MaxGrad    Time(sec)
--------------------------------------------------------------------------------------
   13    -616.3051645923087563    -1.23e-05  3.52e-05  4.37e-03  3.11e-04    32.9
               *** Restarting incremental Fock matrix formation ***
   14    -616.3051677157172890    -3.12e-06  2.18e-03  1.34e-01  2.78e-04    65.4
   15    -616.3051724973156524    -4.78e-06  1.32e-03  7.64e-02  1.89e-04    53.0
   16    -616.3051730314070937    -5.34e-07  9.34e-04  5.33e-02  1.74e-04    52.2
   17    -616.3051748838956883    -1.85e-06  4.16e-04  2.44e-02  3.22e-05    48.0
   18    -616.3051749584417394    -7.45e-08  3.17e-05  1.84e-03  6.09e-05    46.3
   19    -616.3051751218190475    -1.63e-07  5.34e-05  3.16e-03  1.33e-05    41.5
   20    -616.3051751051079918     1.67e-08  1.06e-05  6.08e-04  1.93e-05    41.6
   21    -616.3051751138184500    -8.71e-09  8.48e-06  9.13e-04  3.02e-06    37.7
                 **** Energy Check signals convergence ****

               *****************************************************
               *                     SUCCESS                       *
               *           SCF CONVERGED AFTER  21 CYCLES          *
               *****************************************************

Recomputing exchange energy using gridx3       ... done (   74.533 sec)
Old exchange energy                            :     -8.531263463 Eh
New exchange energy                            :     -8.531252831 Eh
Exchange energy change after final integration :      0.000010632 Eh
Total energy after final integration           :   -616.305164482 Eh

SMD CDS free energy correction energy :                -3.75644     Kcal/mol
Total Energy after SMD CDS correction =              -616.311150742 Eh
             **** ENERGY FILE WAS UPDATED (cs_rporg_146_red_solv_01.en.tmp) ****

----------------
TOTAL SCF ENERGY
----------------

Total Energy       :       -616.31115074246247 Eh          -16770.67902 eV

Components:
Nuclear Repulsion  :        852.10702864493032 Eh           23187.01105 eV
Electronic Energy  :      -1468.33273491216096 Eh          -39955.36501 eV
One Electron Energy:      -2539.45485995118906 Eh          -69102.07982 eV
Two Electron Energy:       1071.12212503902811 Eh           29146.71481 eV
CPCM Dielectric    :         -0.07946884658772 Eh              -2.16246 eV
SMD CDS (Gcds)     :         -0.00598626052334 Eh              -0.16289 eV

Virial components:
Potential Energy   :      -1229.12840022158980 Eh          -33446.28415 eV
Kinetic Energy     :        612.81724947912744 Eh           16675.60513 eV
Virial Ratio       :          2.00570137551824

DFT components:
N(Alpha)           :       53.000001798306 electrons
N(Beta)            :       52.000004747232 electrons
N(Total)           :      105.000006545538 electrons
E(X)               :      -77.389920173183 Eh       
E(C)               :       -3.497265471250 Eh       
E(XC)              :      -80.887185644433 Eh       

CPCM Solvation Model Properties:
Surface-charge          :          0.94054042881766
Corrected charge        :          1.00000000000000
Outlying charge corr.   :          0.00021061568664 Eh               0.00573 eV
Free-energy (cav+disp)  :         -0.00598626052334 Eh              -0.16289 eV

---------------
SCF CONVERGENCE
---------------

  Last Energy change         ...    8.7105e-09  Tolerance :   1.0000e-08
  Last MAX-Density change    ...    9.1253e-04  Tolerance :   1.0000e-07
  Last RMS-Density change    ...    8.4770e-06  Tolerance :   5.0000e-09
  Last DIIS Error            ...    3.1117e-04  Tolerance :   5.0000e-07
  Last Orbital Gradient      ...    3.0240e-06  Tolerance :   1.0000e-05
  Last Orbital Rotation      ...    2.8003e-05  Tolerance :   1.0000e-05


----------------------
UHF SPIN CONTAMINATION
----------------------

Warning: in a DFT calculation there is little theoretical justification to 
         calculate <S**2> as in Hartree-Fock theory. We will do it anyways
         but you should keep in mind that the values have only limited relevance

Expectation value of <S**2>     :     0.760311
Ideal value S*(S+1) for S=0.5   :     0.750000
Deviation                       :     0.010311

----------------
ORBITAL ENERGIES
----------------
                 SPIN UP ORBITALS
  NO   OCC          E(Eh)            E(eV) 
   0   1.0000     -18.990504      -516.7579 
   1   1.0000     -10.144573      -276.0479 
   2   1.0000     -10.111851      -275.1575 
   3   1.0000     -10.104570      -274.9593 
   4   1.0000     -10.104480      -274.9569 
   5   1.0000     -10.100438      -274.8469 
   6   1.0000     -10.100397      -274.8458 
   7   1.0000     -10.099701      -274.8268 
   8   1.0000     -10.098890      -274.8048 
   9   1.0000     -10.096776      -274.7472 
  10   1.0000     -10.095418      -274.7103 
  11   1.0000     -10.095031      -274.6998 
  12   1.0000     -10.091963      -274.6163 
  13   1.0000     -10.089939      -274.5612 
  14   1.0000     -10.084986      -274.4264 
  15   1.0000      -0.962859       -26.2007 
  16   1.0000      -0.827915       -22.5287 
  17   1.0000      -0.805525       -21.9194 
  18   1.0000      -0.744045       -20.2465 
  19   1.0000      -0.714988       -19.4558 
  20   1.0000      -0.706761       -19.2319 
  21   1.0000      -0.698806       -19.0155 
  22   1.0000      -0.669939       -18.2300 
  23   1.0000      -0.604130       -16.4392 
  24   1.0000      -0.579621       -15.7723 
  25   1.0000      -0.551490       -15.0068 
  26   1.0000      -0.544160       -14.8074 
  27   1.0000      -0.508041       -13.8245 
  28   1.0000      -0.489560       -13.3216 
  29   1.0000      -0.450730       -12.2650 
  30   1.0000      -0.431331       -11.7371 
  31   1.0000      -0.425978       -11.5914 
  32   1.0000      -0.398718       -10.8497 
  33   1.0000      -0.397425       -10.8145 
  34   1.0000      -0.396393       -10.7864 
  35   1.0000      -0.393048       -10.6954 
  36   1.0000      -0.388807       -10.5800 
  37   1.0000      -0.374193       -10.1823 
  38   1.0000      -0.361450        -9.8356 
  39   1.0000      -0.355630        -9.6772 
  40   1.0000      -0.352158        -9.5827 
  41   1.0000      -0.335601        -9.1322 
  42   1.0000      -0.328289        -8.9332 
  43   1.0000      -0.312831        -8.5126 
  44   1.0000      -0.311903        -8.4873 
  45   1.0000      -0.310813        -8.4576 
  46   1.0000      -0.281175        -7.6511 
  47   1.0000      -0.262082        -7.1316 
  48   1.0000      -0.239945        -6.5292 
  49   1.0000      -0.233616        -6.3570 
  50   1.0000      -0.202009        -5.4969 
  51   1.0000      -0.199526        -5.4294 
  52   1.0000      -0.094338        -2.5671 
  53   0.0000      -0.020287        -0.5520 
  54   0.0000      -0.017445        -0.4747 
  55   0.0000      -0.004079        -0.1110 
  56   0.0000       0.003350         0.0912 
  57   0.0000       0.004134         0.1125 
  58   0.0000       0.011133         0.3030 
  59   0.0000       0.018026         0.4905 
  60   0.0000       0.022278         0.6062 
  61   0.0000       0.023626         0.6429 
  62   0.0000       0.034392         0.9359 
  63   0.0000       0.035415         0.9637 

                 SPIN DOWN ORBITALS
  NO   OCC          E(Eh)            E(eV) 
   0   1.0000     -18.986320      -516.6440 
   1   1.0000     -10.142130      -275.9814 
   2   1.0000     -10.111964      -275.1605 
   3   1.0000     -10.105287      -274.9788 
   4   1.0000     -10.105189      -274.9762 
   5   1.0000     -10.098965      -274.8068 
   6   1.0000     -10.098940      -274.8061 
   7   1.0000     -10.096689      -274.7449 
   8   1.0000     -10.096160      -274.7305 
   9   1.0000     -10.095794      -274.7205 
  10   1.0000     -10.095628      -274.7160 
  11   1.0000     -10.095081      -274.7011 
  12   1.0000     -10.090789      -274.5843 
  13   1.0000     -10.090163      -274.5673 
  14   1.0000     -10.083078      -274.3745 
  15   1.0000      -0.955802       -26.0087 
  16   1.0000      -0.825248       -22.4561 
  17   1.0000      -0.802913       -21.8484 
  18   1.0000      -0.739472       -20.1221 
  19   1.0000      -0.713159       -19.4060 
  20   1.0000      -0.704403       -19.1678 
  21   1.0000      -0.695528       -18.9263 
  22   1.0000      -0.667851       -18.1731 
  23   1.0000      -0.598212       -16.2782 
  24   1.0000      -0.578989       -15.7551 
  25   1.0000      -0.548432       -14.9236 
  26   1.0000      -0.543383       -14.7862 
  27   1.0000      -0.505410       -13.7529 
  28   1.0000      -0.487922       -13.2770 
  29   1.0000      -0.448474       -12.2036 
  30   1.0000      -0.429845       -11.6967 
  31   1.0000      -0.424015       -11.5380 
  32   1.0000      -0.397417       -10.8143 
  33   1.0000      -0.396432       -10.7875 
  34   1.0000      -0.391875       -10.6635 
  35   1.0000      -0.388361       -10.5678 
  36   1.0000      -0.388055       -10.5595 
  37   1.0000      -0.373602       -10.1662 
  38   1.0000      -0.355149        -9.6641 
  39   1.0000      -0.352828        -9.6009 
  40   1.0000      -0.350676        -9.5424 
  41   1.0000      -0.328173        -8.9300 
  42   1.0000      -0.327035        -8.8991 
  43   1.0000      -0.311456        -8.4751 
  44   1.0000      -0.310770        -8.4565 
  45   1.0000      -0.296120        -8.0578 
  46   1.0000      -0.280516        -7.6332 
  47   1.0000      -0.249688        -6.7944 
  48   1.0000      -0.234685        -6.3861 
  49   1.0000      -0.226714        -6.1692 
  50   1.0000      -0.196562        -5.3487 
  51   1.0000      -0.188656        -5.1336 
  52   0.0000      -0.056402        -1.5348 
  53   0.0000      -0.017777        -0.4837 
  54   0.0000      -0.002422        -0.0659 
  55   0.0000      -0.001774        -0.0483 
  56   0.0000       0.005208         0.1417 
  57   0.0000       0.006450         0.1755 
  58   0.0000       0.012910         0.3513 
  59   0.0000       0.019275         0.5245 
  60   0.0000       0.024328         0.6620 
  61   0.0000       0.025330         0.6893 
  62   0.0000       0.035566         0.9678 
*Only the first 10 virtual orbitals were printed.

                    ********************************
                    * MULLIKEN POPULATION ANALYSIS *
                    ********************************

--------------------------------------------
MULLIKEN ATOMIC CHARGES AND SPIN POPULATIONS
--------------------------------------------
   0 C :   -1.083597    0.106590
   1 C :    1.172698    0.102684
   2 C :   -0.666946    0.096861
   3 C :   -0.812615    0.011311
   4 C :    1.618555    0.216531
   5 C :   -0.704247    0.006057
   6 H :    0.111450   -0.011387
   7 C :    1.953860   -0.050538
   8 C :   -0.731951    0.126162
   9 C :   -0.759265   -0.057734
  10 C :   -0.283700    0.143786
  11 C :   -0.713470   -0.057031
  12 C :   -0.720119    0.122314
  13 H :    0.098277    0.001166
  14 H :    0.317539   -0.004873
  15 H :    0.343913    0.000224
  16 H :    0.303387   -0.004757
  17 H :    0.090376    0.002495
  18 H :    0.114553   -0.010717
  19 H :   -0.204322   -0.001744
  20 C :    0.952466    0.119914
  21 O :   -1.188060    0.159324
  22 C :   -0.320749   -0.020309
  23 H :   -0.041971   -0.001780
  24 H :    0.173829    0.007114
  25 H :    0.180571    0.006322
  26 H :   -0.200462   -0.007986
Sum of atomic charges         :   -1.0000000
Sum of atomic spin populations:    1.0000000

-----------------------------------------------------
MULLIKEN REDUCED ORBITAL CHARGES AND SPIN POPULATIONS
-----------------------------------------------------
CHARGE
  0 C s       :     4.133140  s :     4.133140
      pz      :     0.993469  p :     2.577641
      px      :     0.751675
      py      :     0.832496
      dz2     :    -0.007150  d :     0.393560
      dxz     :     0.024339
      dyz     :     0.020367
      dx2y2   :     0.044580
      dxy     :     0.311424
      f0      :     0.000635  f :    -0.020743
      f+1     :    -0.001084
      f-1     :    -0.000501
      f+2     :     0.000248
      f-2     :    -0.001604
      f+3     :     0.006125
      f-3     :    -0.024561

  1 C s       :     2.742063  s :     2.742063
      pz      :     1.074107  p :     2.164029
      px      :     0.345799
      py      :     0.744123
      dz2     :    -0.023408  d :     0.039402
      dxz     :     0.026819
      dyz     :     0.017743
      dx2y2   :    -0.144436
      dxy     :     0.162684
      f0      :     0.000069  f :    -0.118191
      f+1     :    -0.004487
      f-1     :    -0.000443
      f+2     :     0.000618
      f-2     :    -0.002482
      f+3     :    -0.010086
      f-3     :    -0.101381

  2 C s       :     3.847591  s :     3.847591
      pz      :     1.023275  p :     2.642105
      px      :     0.779548
      py      :     0.839282
      dz2     :    -0.007569  d :     0.201196
      dxz     :     0.013148
      dyz     :     0.023955
      dx2y2   :    -0.147972
      dxy     :     0.319634
      f0      :     0.001155  f :    -0.023947
      f+1     :     0.000262
      f-1     :    -0.000380
      f+2     :     0.000330
      f-2     :    -0.001529
      f+3     :     0.006035
      f-3     :    -0.029818

  3 C s       :     4.097559  s :     4.097559
      pz      :     1.004622  p :     2.533211
      px      :     0.735706
      py      :     0.792883
      dz2     :    -0.003709  d :     0.204402
      dxz     :    -0.006786
      dyz     :     0.003160
      dx2y2   :    -0.140540
      dxy     :     0.352277
      f0      :     0.000572  f :    -0.022557
      f+1     :     0.000227
      f-1     :    -0.000456
      f+2     :     0.000700
      f-2     :    -0.001998
      f+3     :     0.007427
      f-3     :    -0.029029

  4 C s       :     3.001203  s :     3.001203
      pz      :     1.134907  p :     1.802815
      px      :     0.216458
      py      :     0.451451
      dz2     :    -0.001727  d :    -0.299205
      dxz     :    -0.077588
      dyz     :    -0.006596
      dx2y2   :    -0.129293
      dxy     :    -0.084001
      f0      :     0.001840  f :    -0.123368
      f+1     :    -0.003973
      f-1     :    -0.000505
      f+2     :     0.002031
      f-2     :    -0.002361
      f+3     :    -0.013909
      f-3     :    -0.106491

  5 C s       :     3.850798  s :     3.850798
      pz      :     1.014504  p :     2.576923
      px      :     0.689526
      py      :     0.872893
      dz2     :    -0.010925  d :     0.298917
      dxz     :     0.023476
      dyz     :     0.010486
      dx2y2   :    -0.120197
      dxy     :     0.396077
      f0      :     0.000785  f :    -0.022390
      f+1     :     0.000643
      f-1     :    -0.000243
      f+2     :     0.000954
      f-2     :    -0.001633
      f+3     :     0.006120
      f-3     :    -0.029016

  6 H s       :     0.856012  s :     0.856012
      pz      :     0.025858  p :     0.024579
      px      :    -0.034443
      py      :     0.033164
      dz2     :     0.000464  d :     0.007959
      dxz     :     0.001951
      dyz     :     0.003736
      dx2y2   :     0.002429
      dxy     :    -0.000621

  7 C s       :     2.726911  s :     2.726911
      pz      :     0.959637  p :     1.503051
      px      :     0.103558
      py      :     0.439857
      dz2     :     0.012067  d :    -0.062646
      dxz     :    -0.057532
      dyz     :    -0.026279
      dx2y2   :     0.081528
      dxy     :    -0.072429
      f0      :     0.000652  f :    -0.121176
      f+1     :    -0.004723
      f-1     :    -0.000637
      f+2     :     0.001346
      f-2     :    -0.002623
      f+3     :    -0.015983
      f-3     :    -0.099208

  8 C s       :     3.929784  s :     3.929784
      pz      :     1.037582  p :     2.575680
      px      :     0.632572
      py      :     0.905525
      dz2     :    -0.020160  d :     0.240905
      dxz     :     0.003973
      dyz     :    -0.005798
      dx2y2   :    -0.005896
      dxy     :     0.268786
      f0      :     0.000661  f :    -0.014418
      f+1     :     0.000532
      f-1     :    -0.000287
      f+2     :    -0.000049
      f-2     :    -0.000559
      f+3     :     0.004922
      f-3     :    -0.019638

  9 C s       :     3.699706  s :     3.699706
      pz      :     0.968806  p :     2.856921
      px      :     1.116381
      py      :     0.771734
      dz2     :    -0.003273  d :     0.212760
      dxz     :     0.042240
      dyz     :     0.020773
      dx2y2   :     0.012693
      dxy     :     0.140327
      f0      :     0.000556  f :    -0.010122
      f+1     :     0.000462
      f-1     :    -0.000084
      f+2     :     0.000381
      f-2     :     0.000149
      f+3     :     0.003312
      f-3     :    -0.014898

 10 C s       :     3.487294  s :     3.487294
      pz      :     1.023868  p :     2.723123
      px      :     0.813864
      py      :     0.885392
      dz2     :    -0.016366  d :     0.086210
      dxz     :     0.002966
      dyz     :     0.034594
      dx2y2   :     0.029340
      dxy     :     0.035675
      f0      :     0.000631  f :    -0.012927
      f+1     :     0.000463
      f-1     :     0.000874
      f+2     :     0.000199
      f-2     :     0.000381
      f+3     :     0.000239
      f-3     :    -0.015715

 11 C s       :     3.677499  s :     3.677499
      pz      :     0.975125  p :     2.839053
      px      :     1.092397
      py      :     0.771531
      dz2     :    -0.002552  d :     0.206763
      dxz     :     0.040609
      dyz     :     0.019809
      dx2y2   :     0.006146
      dxy     :     0.142750
      f0      :     0.000497  f :    -0.009844
      f+1     :     0.000472
      f-1     :     0.000014
      f+2     :     0.000263
      f-2     :     0.000124
      f+3     :     0.003587
      f-3     :    -0.014801

 12 C s       :     3.933203  s :     3.933203
      pz      :     1.038345  p :     2.562426
      px      :     0.623110
      py      :     0.900971
      dz2     :    -0.019377  d :     0.238845
      dxz     :     0.004226
      dyz     :    -0.003604
      dx2y2   :    -0.006029
      dxy     :     0.263629
      f0      :     0.000691  f :    -0.014355
      f+1     :     0.000408
      f-1     :    -0.000290
      f+2     :     0.000107
      f-2     :    -0.000541
      f+3     :     0.005134
      f-3     :    -0.019865

 13 H s       :     0.879763  s :     0.879763
      pz      :     0.029201  p :     0.014099
      px      :    -0.033503
      py      :     0.018401
      dz2     :     0.000937  d :     0.007860
      dxz     :     0.001996
      dyz     :     0.003458
      dx2y2   :     0.002366
      dxy     :    -0.000896

 14 H s       :     0.657754  s :     0.657754
      pz      :     0.022231  p :     0.017399
      px      :    -0.000848
      py      :    -0.003984
      dz2     :    -0.000027  d :     0.007309
      dxz     :     0.000894
      dyz     :     0.003813
      dx2y2   :     0.001143
      dxy     :     0.001486

 15 H s       :     0.654122  s :     0.654122
      pz      :     0.021030  p :    -0.004356
      px      :    -0.017708
      py      :    -0.007678
      dz2     :    -0.000420  d :     0.006320
      dxz     :     0.005326
      dyz     :    -0.000244
      dx2y2   :     0.000764
      dxy     :     0.000894

 16 H s       :     0.670530  s :     0.670530
      pz      :     0.021483  p :     0.018772
      px      :     0.000924
      py      :    -0.003635
      dz2     :     0.000029  d :     0.007311
      dxz     :     0.000784
      dyz     :     0.003869
      dx2y2   :     0.001107
      dxy     :     0.001521

 17 H s       :     0.885356  s :     0.885356
      pz      :     0.027773  p :     0.016274
      px      :    -0.032563
      py      :     0.021064
      dz2     :     0.000832  d :     0.007994
      dxz     :     0.002188
      dyz     :     0.003349
      dx2y2   :     0.002416
      dxy     :    -0.000791

 18 H s       :     0.864592  s :     0.864592
      pz      :     0.023771  p :     0.013550
      px      :    -0.035804
      py      :     0.025582
      dz2     :     0.000406  d :     0.007306
      dxz     :     0.001976
      dyz     :     0.003820
      dx2y2   :     0.001776
      dxy     :    -0.000672

 19 H s       :     1.107547  s :     1.107547
      pz      :     0.023963  p :     0.084601
      px      :     0.009098
      py      :     0.051540
      dz2     :     0.000311  d :     0.012175
      dxz     :     0.001207
      dyz     :     0.003867
      dx2y2   :     0.005113
      dxy     :     0.001677

 20 C s       :     3.166034  s :     3.166034
      pz      :     0.748487  p :     1.850812
      px      :     0.569248
      py      :     0.533077
      dz2     :     0.001990  d :     0.054384
      dxz     :     0.038815
      dyz     :     0.037851
      dx2y2   :     0.066612
      dxy     :    -0.090884
      f0      :     0.000847  f :    -0.023697
      f+1     :    -0.000522
      f-1     :    -0.000108
      f+2     :     0.004859
      f-2     :     0.005625
      f+3     :    -0.012333
      f-3     :    -0.022065

 21 O s       :     4.289007  s :     4.289007
      pz      :     1.512899  p :     4.844958
      px      :     1.799947
      py      :     1.532112
      dz2     :     0.002053  d :     0.049339
      dxz     :     0.007437
      dyz     :     0.014073
      dx2y2   :     0.014975
      dxy     :     0.010802
      f0      :     0.000670  f :     0.004756
      f+1     :     0.000228
      f-1     :     0.000087
      f+2     :     0.000165
      f-2     :     0.000837
      f+3     :     0.000597
      f-3     :     0.002171

 22 C s       :     3.269924  s :     3.269924
      pz      :     1.040617  p :     2.976719
      px      :     0.936687
      py      :     0.999415
      dz2     :    -0.001341  d :     0.065999
      dxz     :     0.004976
      dyz     :     0.041207
      dx2y2   :     0.009895
      dxy     :     0.011263
      f0      :     0.000838  f :     0.008108
      f+1     :    -0.000489
      f-1     :    -0.002121
      f+2     :     0.001021
      f-2     :     0.002480
      f+3     :     0.004233
      f-3     :     0.002145

 23 H s       :     1.001585  s :     1.001585
      pz      :     0.009066  p :     0.033094
      px      :     0.014600
      py      :     0.009428
      dz2     :    -0.000138  d :     0.007292
      dxz     :     0.002800
      dyz     :     0.001098
      dx2y2   :     0.001841
      dxy     :     0.001690

 24 H s       :     0.778796  s :     0.778796
      pz      :     0.011011  p :     0.039013
      px      :     0.007922
      py      :     0.020079
      dz2     :     0.002532  d :     0.008362
      dxz     :     0.001753
      dyz     :    -0.000137
      dx2y2   :     0.002944
      dxy     :     0.001270

 25 H s       :     0.772258  s :     0.772258
      pz      :     0.011443  p :     0.038841
      px      :     0.007775
      py      :     0.019623
      dz2     :     0.002101  d :     0.008330
      dxz     :     0.001849
      dyz     :     0.000619
      dx2y2   :     0.002760
      dxy     :     0.001001

 26 H s       :     1.131439  s :     1.131439
      pz      :     0.025818  p :     0.063136
      px      :    -0.017580
      py      :     0.054898
      dz2     :    -0.000296  d :     0.005887
      dxz     :     0.001025
      dyz     :     0.003785
      dx2y2   :     0.001247
      dxy     :     0.000126


SPIN
  0 C s       :     0.010670  s :     0.010670
      pz      :     0.083901  p :     0.102418
      px      :     0.011411
      py      :     0.007106
      dz2     :    -0.000483  d :    -0.006302
      dxz     :     0.002862
      dyz     :     0.003733
      dx2y2   :    -0.005477
      dxy     :    -0.006937
      f0      :     0.000137  f :    -0.000196
      f+1     :     0.000093
      f-1     :    -0.000210
      f+2     :    -0.000260
      f-2     :    -0.000381
      f+3     :     0.000591
      f-3     :    -0.000165

  1 C s       :    -0.000372  s :    -0.000372
      pz      :     0.088266  p :     0.095383
      px      :     0.020305
      py      :    -0.013188
      dz2     :    -0.000178  d :     0.010839
      dxz     :     0.014175
      dyz     :    -0.001680
      dx2y2   :    -0.002273
      dxy     :     0.000795
      f0      :     0.000423  f :    -0.003167
      f+1     :    -0.000041
      f-1     :    -0.000225
      f+2     :    -0.000170
      f-2     :    -0.001366
      f+3     :    -0.000205
      f-3     :    -0.001583

  2 C s       :     0.002399  s :     0.002399
      pz      :     0.069200  p :     0.097493
      px      :     0.022121
      py      :     0.006172
      dz2     :    -0.000287  d :    -0.003162
      dxz     :     0.003345
      dyz     :     0.003541
      dx2y2   :    -0.000318
      dxy     :    -0.009443
      f0      :     0.000194  f :     0.000130
      f+1     :     0.000143
      f-1     :    -0.000201
      f+2     :    -0.000303
      f-2     :    -0.000424
      f+3     :     0.000519
      f-3     :     0.000201

  3 C s       :     0.005262  s :     0.005262
      pz      :    -0.000427  p :     0.005477
      px      :     0.007264
      py      :    -0.001360
      dz2     :    -0.000140  d :     0.001262
      dxz     :     0.006164
      dyz     :     0.003132
      dx2y2   :    -0.000822
      dxy     :    -0.007072
      f0      :     0.000164  f :    -0.000690
      f+1     :     0.000169
      f-1     :    -0.000096
      f+2     :    -0.000099
      f-2     :    -0.000779
      f+3     :     0.000523
      f-3     :    -0.000571

  4 C s       :    -0.007908  s :    -0.007908
      pz      :     0.184665  p :     0.216181
      px      :     0.017971
      py      :     0.013545
      dz2     :    -0.000390  d :     0.009580
      dxz     :     0.003470
      dyz     :    -0.001751
      dx2y2   :     0.006562
      dxy     :     0.001690
      f0      :     0.000709  f :    -0.001322
      f+1     :    -0.000196
      f-1     :    -0.000288
      f+2     :    -0.000069
      f-2     :    -0.000680
      f+3     :     0.000163
      f-3     :    -0.000961

  5 C s       :     0.006174  s :     0.006174
      pz      :    -0.012362  p :    -0.005297
      px      :     0.010441
      py      :    -0.003376
      dz2     :    -0.000303  d :     0.005965
      dxz     :     0.010201
      dyz     :     0.004447
      dx2y2   :     0.000673
      dxy     :    -0.009052
      f0      :     0.000185  f :    -0.000785
      f+1     :     0.000184
      f-1     :    -0.000078
      f+2     :    -0.000134
      f-2     :    -0.000761
      f+3     :     0.000523
      f-3     :    -0.000703

  6 H s       :    -0.009871  s :    -0.009871
      pz      :    -0.000457  p :    -0.000930
      px      :    -0.000656
      py      :     0.000183
      dz2     :     0.000037  d :    -0.000586
      dxz     :    -0.000165
      dyz     :    -0.000228
      dx2y2   :    -0.000182
      dxy     :    -0.000049

  7 C s       :    -0.022442  s :    -0.022442
      pz      :    -0.010546  p :    -0.023220
      px      :     0.001925
      py      :    -0.014599
      dz2     :    -0.000064  d :    -0.001207
      dxz     :     0.012631
      dyz     :    -0.001908
      dx2y2   :    -0.010100
      dxy     :    -0.001765
      f0      :     0.000095  f :    -0.003670
      f+1     :     0.000075
      f-1     :    -0.000053
      f+2     :    -0.000495
      f-2     :    -0.001013
      f+3     :     0.000141
      f-3     :    -0.002420

  8 C s       :     0.015415  s :     0.015415
      pz      :     0.087438  p :     0.110921
      px      :     0.015700
      py      :     0.007783
      dz2     :    -0.000167  d :    -0.000021
      dxz     :    -0.000053
      dyz     :     0.003486
      dx2y2   :    -0.000846
      dxy     :    -0.002441
      f0      :     0.000096  f :    -0.000153
      f+1     :    -0.000015
      f-1     :    -0.000163
      f+2     :    -0.000205
      f-2     :    -0.000050
      f+3     :     0.000113
      f-3     :     0.000072

  9 C s       :    -0.012359  s :    -0.012359
      pz      :    -0.038711  p :    -0.048427
      px      :    -0.003974
      py      :    -0.005742
      dz2     :     0.000439  d :     0.003312
      dxz     :     0.006142
      dyz     :     0.000006
      dx2y2   :    -0.000115
      dxy     :    -0.003160
      f0      :     0.000096  f :    -0.000260
      f+1     :     0.000090
      f-1     :     0.000014
      f+2     :    -0.000150
      f-2     :    -0.000085
      f+3     :     0.000193
      f-3     :    -0.000418

 10 C s       :     0.009301  s :     0.009301
      pz      :     0.118165  p :     0.134175
      px      :     0.007213
      py      :     0.008796
      dz2     :    -0.000940  d :     0.000490
      dxz     :     0.002811
      dyz     :    -0.000607
      dx2y2   :    -0.000292
      dxy     :    -0.000482
      f0      :     0.000078  f :    -0.000179
      f+1     :    -0.000175
      f-1     :    -0.000117
      f+2     :    -0.000019
      f-2     :     0.000051
      f+3     :    -0.000061
      f-3     :     0.000065

 11 C s       :    -0.012219  s :    -0.012219
      pz      :    -0.038339  p :    -0.047849
      px      :    -0.003938
      py      :    -0.005573
      dz2     :     0.000425  d :     0.003278
      dxz     :     0.004609
      dyz     :     0.000328
      dx2y2   :    -0.000469
      dxy     :    -0.001615
      f0      :     0.000091  f :    -0.000241
      f+1     :     0.000097
      f-1     :     0.000013
      f+2     :    -0.000164
      f-2     :    -0.000061
      f+3     :     0.000198
      f-3     :    -0.000415

 12 C s       :     0.014317  s :     0.014317
      pz      :     0.086398  p :     0.108701
      px      :     0.015095
      py      :     0.007207
      dz2     :    -0.000028  d :    -0.000526
      dxz     :     0.000846
      dyz     :     0.002951
      dx2y2   :    -0.001258
      dxy     :    -0.003037
      f0      :     0.000089  f :    -0.000178
      f+1     :    -0.000007
      f-1     :    -0.000159
      f+2     :    -0.000191
      f-2     :    -0.000080
      f+3     :     0.000099
      f-3     :     0.000072

 13 H s       :    -0.001103  s :    -0.001103
      pz      :     0.001864  p :     0.002142
      px      :     0.000141
      py      :     0.000136
      dz2     :     0.000073  d :     0.000128
      dxz     :     0.000075
      dyz     :     0.000070
      dx2y2   :    -0.000068
      dxy     :    -0.000023

 14 H s       :    -0.003539  s :    -0.003539
      pz      :    -0.001210  p :    -0.001021
      px      :     0.000098
      py      :     0.000091
      dz2     :    -0.000013  d :    -0.000314
      dxz     :    -0.000098
      dyz     :    -0.000154
      dx2y2   :    -0.000032
      dxy     :    -0.000017

 15 H s       :    -0.003447  s :    -0.003447
      pz      :     0.002829  p :     0.003322
      px      :     0.000253
      py      :     0.000240
      dz2     :     0.000067  d :     0.000349
      dxz     :     0.000315
      dyz     :     0.000006
      dx2y2   :    -0.000006
      dxy     :    -0.000032

 16 H s       :    -0.003314  s :    -0.003314
      pz      :    -0.001326  p :    -0.001123
      px      :     0.000063
      py      :     0.000140
      dz2     :    -0.000014  d :    -0.000320
      dxz     :    -0.000104
      dyz     :    -0.000157
      dx2y2   :    -0.000029
      dxy     :    -0.000015

 17 H s       :     0.000188  s :     0.000188
      pz      :     0.001856  p :     0.002173
      px      :     0.000122
      py      :     0.000195
      dz2     :     0.000070  d :     0.000134
      dxz     :     0.000112
      dyz     :     0.000064
      dx2y2   :    -0.000077
      dxy     :    -0.000035

 18 H s       :    -0.010380  s :    -0.010380
      pz      :     0.000438  p :     0.000209
      px      :     0.000321
      py      :    -0.000550
      dz2     :     0.000047  d :    -0.000547
      dxz     :    -0.000161
      dyz     :    -0.000222
      dx2y2   :    -0.000179
      dxy     :    -0.000032

 19 H s       :    -0.000726  s :    -0.000726
      pz      :    -0.000723  p :    -0.000440
      px      :    -0.000032
      py      :     0.000315
      dz2     :     0.000019  d :    -0.000577
      dxz     :    -0.000149
      dyz     :    -0.000121
      dx2y2   :    -0.000212
      dxy     :    -0.000115

 20 C s       :    -0.003714  s :    -0.003714
      pz      :     0.123405  p :     0.113848
      px      :    -0.008749
      py      :    -0.000807
      dz2     :    -0.000544  d :     0.012780
      dxz     :     0.010064
      dyz     :     0.003430
      dx2y2   :     0.000301
      dxy     :    -0.000471
      f0      :     0.000299  f :    -0.003001
      f+1     :    -0.000107
      f-1     :    -0.000174
      f+2     :     0.000885
      f-2     :    -0.000804
      f+3     :    -0.000301
      f-3     :    -0.002798

 21 O s       :     0.007091  s :     0.007091
      pz      :     0.140702  p :     0.148269
      px      :     0.004168
      py      :     0.003398
      dz2     :    -0.000046  d :     0.003797
      dxz     :     0.001247
      dyz     :     0.002487
      dx2y2   :     0.000159
      dxy     :    -0.000050
      f0      :     0.000040  f :     0.000167
      f+1     :    -0.000003
      f-1     :    -0.000038
      f+2     :    -0.000004
[...]
      pz      :     0.001892  p :     0.001667
      px      :    -0.000057
      py      :    -0.000169
      dz2     :    -0.000009  d :     0.001202
      dxz     :     0.002511
      dyz     :    -0.001092
      dx2y2   :    -0.000245
      dxy     :     0.000037

 19 H s       :    -0.001171  s :    -0.001171
      pz      :     0.006485  p :     0.006856
      px      :     0.000177
      py      :     0.000195
      dz2     :     0.000005  d :     0.004091
      dxz     :     0.003302
      dyz     :     0.000647
      dx2y2   :    -0.000044
      dxy     :     0.000181

 20 C s       :     0.002178  s :     0.002178
      pz      :     0.069858  p :     0.070062
      px      :    -0.000713
      py      :     0.000917
      dz2     :    -0.000362  d :     0.035433
      dxz     :     0.024424
      dyz     :     0.011506
      dx2y2   :     0.000140
      dxy     :    -0.000274
      f0      :     0.002131  f :     0.017660
      f+1     :    -0.000137
      f-1     :    -0.000079
      f+2     :     0.011079
      f-2     :     0.004294
      f+3     :     0.000381
      f-3     :    -0.000008

 21 O s       :     0.002039  s :     0.002039
      pz      :     0.108850  p :     0.110094
      px      :     0.000774
      py      :     0.000469
      dz2     :     0.000118  d :     0.022674
      dxz     :     0.007943
      dyz     :     0.014357
      dx2y2   :     0.000066
      dxy     :     0.000190
      f0      :     0.001749  f :     0.005267
      f+1     :    -0.000003
      f-1     :    -0.000017
      f+2     :     0.000296
      f-2     :     0.003153
      f+3     :     0.000067
      f-3     :     0.000023

 22 C s       :    -0.000597  s :    -0.000597
      pz      :    -0.000655  p :    -0.004005
      px      :    -0.000994
      py      :    -0.002356
      dz2     :     0.000161  d :     0.016510
      dxz     :     0.004469
      dyz     :     0.011439
      dx2y2   :    -0.000132
      dxy     :     0.000573
      f0      :     0.001692  f :     0.009145
      f+1     :     0.000004
      f-1     :     0.000074
      f+2     :     0.000298
      f-2     :     0.006884
      f+3     :     0.000207
      f-3     :    -0.000014

 23 H s       :    -0.000100  s :    -0.000100
      pz      :     0.000282  p :    -0.000101
      px      :    -0.000099
      py      :    -0.000284
      dz2     :    -0.000019  d :    -0.000262
      dxz     :    -0.000109
      dyz     :     0.000177
      dx2y2   :    -0.000190
      dxy     :    -0.000121

 24 H s       :     0.003025  s :     0.003025
      pz      :     0.000068  p :     0.001451
      px      :     0.000117
      py      :     0.001266
      dz2     :    -0.000022  d :     0.000782
      dxz     :    -0.000064
      dyz     :     0.000028
      dx2y2   :     0.000337
      dxy     :     0.000503

 25 H s       :     0.003041  s :     0.003041
      pz      :     0.000167  p :     0.001476
      px      :     0.000111
      py      :     0.001198
      dz2     :    -0.000022  d :     0.000789
      dxz     :    -0.000064
      dyz     :    -0.000033
      dx2y2   :     0.000377
      dxy     :     0.000531

 26 H s       :    -0.001371  s :    -0.001371
      pz      :     0.007798  p :     0.008039
      px      :     0.000048
      py      :     0.000194
      dz2     :    -0.000024  d :     0.003438
      dxz     :     0.002540
      dyz     :     0.000827
      dx2y2   :    -0.000079
      dxy     :     0.000174



                      *****************************
                      * MAYER POPULATION ANALYSIS *
                      *****************************

  NA   - Mulliken gross atomic population
  ZA   - Total nuclear charge
  QA   - Mulliken gross atomic charge
  VA   - Mayer's total valence
  BVA  - Mayer's bonded valence
  FA   - Mayer's free valence

  ATOM       NA         ZA         QA         VA         BVA        FA
  0 C      7.0836     6.0000    -1.0836     2.6730     2.6632     0.0099
  1 C      4.8273     6.0000     1.1727     2.0974     2.0779     0.0195
  2 C      6.6669     6.0000    -0.6669     2.7698     2.7602     0.0096
  3 C      6.8126     6.0000    -0.8126     2.0117     2.0095     0.0023
  4 C      4.3814     6.0000     1.6186     0.7009     0.6623     0.0387
  5 C      6.7042     6.0000    -0.7042     2.2373     2.2348     0.0025
  6 H      0.8886     1.0000     0.1114     1.0261     1.0261     0.0001
  7 C      4.0461     6.0000     1.9539     0.0818     0.0786     0.0032
  8 C      6.7320     6.0000    -0.7320     2.6490     2.6403     0.0087
  9 C      6.7593     6.0000    -0.7593     3.1920     3.1901     0.0019
 10 C      6.2837     6.0000    -0.2837     3.4635     3.4482     0.0153
 11 C      6.7135     6.0000    -0.7135     3.2175     3.2157     0.0018
 12 C      6.7201     6.0000    -0.7201     2.7221     2.7137     0.0084
 13 H      0.9017     1.0000     0.0983     1.0649     1.0648     0.0001
 14 H      0.6825     1.0000     0.3175     0.8449     0.8448     0.0000
 15 H      0.6561     1.0000     0.3439     0.7606     0.7605     0.0000
 16 H      0.6966     1.0000     0.3034     0.8617     0.8616     0.0000
 17 H      0.9096     1.0000     0.0904     1.0871     1.0870     0.0001
 18 H      0.8854     1.0000     0.1146     1.0557     1.0556     0.0001
 19 H      1.2043     1.0000    -0.2043     1.4446     1.4446     0.0000
 20 C      5.0475     6.0000     0.9525     2.2091     2.1832     0.0259
 21 O      9.1881     8.0000    -1.1881     0.7203     0.6989     0.0214
 22 C      6.3207     6.0000    -0.3207     4.0313     4.0306     0.0007
 23 H      1.0420     1.0000    -0.0420     1.0738     1.0738     0.0000
 24 H      0.8262     1.0000     0.1738     0.9406     0.9405     0.0000
 25 H      0.8194     1.0000     0.1806     0.9329     0.9328     0.0000
 26 H      1.2005     1.0000    -0.2005     1.4855     1.4855    -0.0000

  Mayer bond orders larger than 0.100000
B(  0-C ,  1-C ) :   0.3925 B(  0-C ,  2-C ) :  -0.3307 B(  0-C ,  4-C ) :  -0.3187 
B(  0-C ,  5-C ) :   1.7003 B(  0-C ,  6-H ) :  -0.1332 B(  0-C , 26-H ) :   1.2632 
B(  1-C ,  2-C ) :   0.3037 B(  1-C ,  3-C ) :   0.1291 B(  1-C ,  4-C ) :  -0.3083 
B(  1-C ,  5-C ) :   0.1710 B(  1-C ,  7-C ) :   0.1286 B(  1-C , 19-H ) :  -0.2208 
B(  1-C , 20-C ) :   0.6640 B(  1-C , 21-O ) :   0.5576 B(  1-C , 26-H ) :  -0.1207 
B(  2-C ,  3-C ) :   1.4147 B(  2-C ,  4-C ) :  -0.2634 B(  2-C ,  5-C ) :  -0.1571 
B(  2-C ,  7-C ) :   0.1617 B(  2-C , 18-H ) :  -0.1143 B(  2-C , 19-H ) :   1.6029 
B(  2-C , 20-C ) :   0.1648 B(  2-C , 26-H ) :   0.2374 B(  3-C ,  5-C ) :  -0.6255 
B(  3-C ,  6-H ) :  -0.1037 B(  3-C ,  9-C ) :  -0.1181 B(  3-C , 17-H ) :   0.1625 
B(  3-C , 18-H ) :   1.0059 B(  3-C , 26-H ) :   0.1778 B(  4-C ,  5-C ) :   0.1430 
B(  4-C ,  7-C ) :   0.3752 B(  4-C ,  8-C ) :   0.3429 B(  4-C ,  9-C ) :   0.1506 
B(  4-C , 10-C ) :   0.1772 B(  4-C , 11-C ) :   0.1968 B(  4-C , 12-C ) :   0.1907 
B(  4-C , 13-H ) :  -0.2253 B(  4-C , 17-H ) :  -0.2193 B(  4-C , 20-C ) :   0.2614 
B(  5-C ,  6-H ) :   1.1271 B(  5-C , 12-C ) :   0.1158 B(  5-C , 13-H ) :   0.1158 
B(  5-C , 26-H ) :  -0.1628 B(  6-H ,  7-C ) :  -0.2828 B(  6-H , 12-C ) :   0.1505 
B(  6-H , 13-H ) :   0.1164 B(  7-C ,  9-C ) :  -0.2802 B(  7-C , 10-C ) :  -0.2272 
B(  7-C , 11-C ) :  -0.2536 B(  7-C , 13-H ) :   0.1310 B(  7-C , 17-H ) :   0.1345 
B(  7-C , 18-H ) :  -0.2355 B(  8-C ,  9-C ) :   1.4293 B(  8-C , 12-C ) :  -0.3999 
B(  8-C , 17-H ) :   1.0795 B(  8-C , 18-H ) :   0.1026 B(  9-C , 10-C ) :   1.3254 
B(  9-C , 11-C ) :   0.1519 B(  9-C , 16-H ) :   0.6421 B( 10-C , 11-C ) :   1.3144 
B( 10-C , 15-H ) :   0.6516 B( 11-C , 12-C ) :   1.4230 B( 11-C , 14-H ) :   0.6319 
B( 12-C , 13-H ) :   1.0636 B( 12-C , 20-C ) :   0.1133 B( 13-H , 18-H ) :   0.1076 
B( 13-H , 19-H ) :  -0.1511 B( 13-H , 26-H ) :  -0.1195 B( 17-H , 18-H ) :   0.1162 
B( 17-H , 19-H ) :  -0.1309 B( 19-H , 20-C ) :  -0.1136 B( 19-H , 26-H ) :   0.1673 
B( 20-C , 22-C ) :   1.0366 B( 20-C , 26-H ) :  -0.1489 B( 21-O , 26-H ) :   0.2403 
B( 22-C , 23-H ) :   1.0269 B( 22-C , 24-H ) :   0.9649 B( 22-C , 25-H ) :   0.9606 


-------
TIMINGS
-------

Total SCF time: 0 days 0 hours 17 min 42 sec 

Total time                  ....    1062.167 sec
Sum of individual times     ....    1061.191 sec  ( 99.9%)

SCF preparation             ....       1.507 sec  (  0.1%)
Fock matrix formation       ....    1026.537 sec  ( 96.6%)
  Startup                   ....       2.118 sec  (  0.2% of F)
  Split-RI-J                ....      43.127 sec  (  4.2% of F)
  Chain of spheres X        ....     555.940 sec  ( 54.2% of F)
  XC integration            ....     398.445 sec  ( 38.8% of F)
    XC Preparation          ....       0.000 sec  (  0.0% of XC)
    Basis function eval.    ....      19.187 sec  (  4.8% of XC)
    Density eval.           ....     141.926 sec  ( 35.6% of XC)
    XC-Functional eval.     ....       2.143 sec  (  0.5% of XC)
    XC-Potential eval.      ....     232.406 sec  ( 58.3% of XC)
  CPCM terms                ....      20.526 sec  (  2.0% of F)
Diagonalization             ....       0.000 sec  (  0.0%)
Density matrix formation    ....       5.768 sec  (  0.5%)
Total Energy calculation    ....       2.230 sec  (  0.2%)
Population analysis         ....       0.614 sec  (  0.1%)
Orbital Transformation      ....       2.155 sec  (  0.2%)
Orbital Orthonormalization  ....       0.000 sec  (  0.0%)
DIIS solution               ....      16.716 sec  (  1.6%)
SOSCF solution              ....       5.666 sec  (  0.5%)
Finished LeanSCF after 1062.5 sec

Maximum memory used throughout the entire LEANSCF-calculation: 207.0 MB


-------------------------------------------------------------------------------
                          DFT DISPERSION CORRECTION                            
                                                                               
                              DFTD3 V3.1  Rev 1                                
                          USING Becke-Johnson damping                          
-------------------------------------------------------------------------------
The TPSSH functional is recognized
Active option DFTDOPT                   ...         4   

molecular C6(AA) [au] = 8866.168919 


            DFT-D V3
 parameters
 s6 scaling factor         :     1.0000 
 a1 scaling factor         :     0.4529 
 s8 scaling factor         :     2.2382 
 a2 scaling factor         :     4.6550 
 ad hoc parameters k1-k3   :    16.0000     1.3333    -4.0000 

 Edisp/kcal,au: -24.086151072847  -0.038383720882 
 E6   /kcal   : -11.391159611 
 E8   /kcal   : -12.694991462 
 % E8         :  52.706600667 

-------------------------   ----------------
Dispersion correction           -0.038383721
-------------------------   ----------------


-------------------------   --------------------
FINAL SINGLE POINT ENERGY      -616.349534463345
-------------------------   --------------------



           ************************************************************
           *        Program running with 4 parallel MPI-processes     *
           *              working on a common directory               *
           ************************************************************

------------------------------------------------------------------------------
                              ORCA PROPERTY CALCULATIONS
------------------------------------------------------------------------------

GBWName                                 ... cs_rporg_146_red_solv_01.gbw
Number of atoms                         ...     27
Number of basis functions               ...   1056
Max core memory                         ...   3000 MB

Electric properties:
Dipole moment                           ... YES
Quadrupole moment                       ...  NO
Static polarizability (Dipole/Dipole)   ...  NO
Static polarizability (Dipole/Quad.)    ...  NO
Static polarizability (Quad./Quad.)     ...  NO
Static polarizability (Velocity)        ...  NO

Atomic electric properties:
Dipole moment                           ...  NO
Quadrupole moment                       ...  NO
Static polarizability                   ...  NO

Choice of electric origin               ... Center of mass
Position of electric origin             ...    -0.004123     0.017517     0.081836

General magnetic properties:
Magnetizability                         ...  NO

EPR properties:
g-Tensor (aka g-matrix)                 ...  NO
Zero-Field splitting spin-orbit         ...  NO
Zero-field splitting spin-spin          ...  NO
Hyperfine couplings                     ...  NO (   0 nuclei)
Quadrupole couplings                    ...  NO (   0 nuclei)
Contact density                         ...  NO (   0 nuclei)

NMR properties:
Chemical shifts                         ...  NO (   0 nuclei)
Spin-rotation constants                 ...  NO (   0 nuclei)
Spin-spin couplings                     ...  NO (   0 nuclei,    0 pairs)

Choice of magnetic origin               ... GIAO
Position of magnetic origin             ...     0.000000     0.000000     0.000000

Properties with geometric perturbations:
SCF Hessian                             ...  NO
IR spectrum                             ...  NO
VCD spectrum                            ...  NO
X-ray spectroscopy properties:
SCF XES/XAS/RIXS spectra                ...  NO


-------------
DIPOLE MOMENT
-------------

Method             : SCF
Type of density    : Electron Density
Multiplicity       :   2
Irrep              :   0
Energy             :  -616.3111507424624733 Eh
Relativity type    : 
Basis              : AO
                                X                 Y                 Z
Electronic contribution:      1.990951007       3.054358880      -0.131067548
Nuclear contribution   :      0.834188955      -4.415620198       0.130351873
                        -----------------------------------------
Total Dipole Moment    :      2.825139963      -1.361261318      -0.000715675
                        -----------------------------------------
Magnitude (a.u.)       :      3.135992458
Magnitude (Debye)      :      7.971059357



--------------------
Rotational spectrum 
--------------------
 
Rotational constants in cm-1:             0.074676             0.008546             0.007689 
Rotational constants in MHz :          2238.715412           256.196904           230.518012 

Dipole components along the rotational axes: 
x,y,z [a.u.] :     2.827821    -1.353134    -0.083079 
x,y,z [Debye]:     7.187751    -3.439394    -0.211170 

 

Dipole moment calculation done in   0.1 sec 

Maximum memory used throughout the entire PROP-calculation: 119.9 MB

--------------------------------
SUGGESTED CITATIONS FOR THIS RUN
--------------------------------

Below you find a list of papers that are relevant to this ORCA run
We neither can nor want to force you to cite these papers, but we appreciate if you do
You receive ORCA, which is the product of decades of hard work by many enthusiastic individuals, for free
The only thing we kindly ask in return is that you cite our papers,
We deeply appreciate it, if you show your appreciation for ORCA by not just citing the generic ORCA reference.

Please note that relegating all ORCA citations to the supporting information does *not* help us.
SI sections are not indexed - citations you put there will not count into any citation statistics
But we need these citations in order to attract the funding resources that allow us to do what we are doing

Therefore, if you are a happy ORCA user, please consider citing a few of the papers listed below in the main body of your paper

In addition to the list printed below, the program has created the file cs_rporg_146_red_solv_01.bibtex that contains the list in bibtex format
You can import this file easily into all common literature databanks and citation aid programs


List of essential papers. We consider these as the minimum necessary citations

  1. Neese,F.
     Software update: the ORCA program system, version 5.0
     WIRES Comput. Molec. Sci., 2022 12(1)e1606
     doi.org/10.1002/wcms.1606

List of papers to cite with high priority. The work reported in these papers was absolutely
necessary for this run to complete.
Our perspective: the developers of density functionals and basis sets usually get cited in chemistry papers
Good! But without the algorithms to do something with them, the functionals or basis sets would not do anything.
Hence, in our opinion, the algorithm design and method developments papers are equally worthy of getting cited

  1. Neese,F.
     An improvement of the resolution of the identity approximation for the formation of the Coulomb matrix
     J. Comp. Chem., 2003 24(14)1740-1747
     doi.org/10.1002/jcc.10318
  2. Neese,F.; Wennmohs,F.; Hansen,A.; Becker,U.
     Efficient, approximate and parallel Hartree-Fock and hybrid DFT calculations. A 'chain-of-spheres' algorithm for the Hartree-Fock exchange
     Chem. Phys., 2009 356(1-3)98-109
     doi.org/10.1016/j.chemphys.2008.10.036
  3. Garcia-Rates,M.; Neese,F.
     Effect of the Solute Cavity on the Solvation Energy and its Derivatives within the Framework of the Gaussian Charge Scheme
     J. Comput. Chem., 2020 41 922-939
     doi.org/10.1002/jcc.26139
  4. Helmich-Paris,B.; de Souza,B.; Neese,F.; Izsák,R.
     An improved chain of spheres for exchange algorithm
     J. Chem. Phys., 2021 155 104109
     doi.org/doi: 10.1063/5.0058766.
  5. Neese,F.
     The SHARK Integral Generation and Digestion System
     J. Comp. Chem., 2022  1-16
     doi.org/10.1002/jcc.26942
  6. Grimme,S.; Antony,J.; Ehrlich,S.; Krieg,H.
     A consistent and accurate ab initio parametrization of density functional dispersion correction (DFT-D) for the 94 elements H-Pu
     J. Chem. Phys., 2010 132 154104-XXXX
     doi.org/10.1063/1.3382344
  7. Grimme,S.; Ehrlich,S.; Goerigk,L.
     Effect of the damping function in dispersion corrected density functional theory
     J. Comput. Chem., 2011 32(7)1456-1465
     doi.org/10.1002/jcc.21759

List of suggested additional citations. These are papers that are important in the 'surrounding' of 
of this run, or papers that preceded the highly important papers. If you like your results we are grateful for a citation.

  1. Izsak,R.; Neese,F.
     An overlap fitted chain of spheres exchange method
     J. Chem. Phys., 2011 135 144105
     doi.org/10.1063/1.3646921
  2. Izsak,R.; Hansen,A.; Neese,F.
     The resolution of identity and chain of spheres approximations for the LPNO-CCSD singles Fock term
     Molec. Phys., 2012 110 2413-2417
     doi.org/10.1080/00268976.2012.687466
  3. Neese,F.
     The ORCA program system
     WIRES Comput. Molec. Sci., 2012 2(1)73-78
     doi.org/10.1002/wcms.81
  4. Izsak,R.; Neese,F.; Klopper,W.
     Robust fitting techniques in the chain of spheres approximation to the Fock exchange: The role of the complementary space
     J. Chem. Phys., 2013 139 
     doi.org/10.1063/1.4819264
  5. Neese,F.
     Software update: the ORCA program system, version 4.0
     WIRES Comput. Molec. Sci., 2018 8(1)1-6
     doi.org/10.1002/wcms.1327
  6. Neese,F.; Wennmohs,F.; Becker,U.; Riplinger,C.
     The ORCA quantum chemistry program package
     J. Chem. Phys., 2020 152 Art. No. L224108
     doi.org/10.1063/5.0004608

List of optional additional citations

  1. Neese,F.
     Approximate second-order SCF convergence for spin unrestricted wavefunctions
     Chem. Phys. Lett., 2000 325(1-3)93-98
     doi.org/10.1016/s0009-2614(00)00662-x

Timings for individual modules:

Sum of individual times          ...     1089.829 sec (=  18.164 min)
Startup calculation              ...       16.381 sec (=   0.273 min)   1.5 %
SCF iterations                   ...     1071.301 sec (=  17.855 min)  98.3 %
Property calculations            ...        2.147 sec (=   0.036 min)   0.2 %
                             ****ORCA TERMINATED NORMALLY****
TOTAL RUN TIME: 0 days 0 hours 18 minutes 12 seconds 689 msec
