
                                 *****************
                                 * O   R   C   A *
                                 *****************

                                            #,                                       
                                            ###                                      
                                            ####                                     
                                            #####                                    
                                            ######                                   
                                           ########,                                 
                                     ,,################,,,,,                         
                               ,,#################################,,                 
                          ,,##########################################,,             
                       ,#########################################, ''#####,          
                    ,#############################################,,   '####,        
                  ,##################################################,,,,####,       
                ,###########''''           ''''###############################       
              ,#####''   ,,,,##########,,,,          '''####'''          '####       
            ,##' ,,,,###########################,,,                        '##       
           ' ,,###''''                  '''############,,,                           
         ,,##''                                '''############,,,,        ,,,,,,###''
      ,#''                                            '''#######################'''  
     '                                                          ''''####''''         
             ,#######,   #######,   ,#######,      ##                                
            ,#'     '#,  ##    ##  ,#'     '#,    #''#        ,####,   ,####,        
            ##       ##  ##   ,#'  ##            #'  '#       #'       #'  '#        
            ##       ##  #######   ##           ,######,      #####,   #    #        
            '#,     ,#'  ##    ##  '#,     ,#' ,#      #,     #,   #   #,  ,#        
             '#######'   ##     ##  '#######'  #'      '#     '####' # '####'        



                #########################################################
                #                        -***-                          #
                #          Department of theory and spectroscopy        #
                #                                                       #
                #                      Frank Neese                      #
                #                                                       #
                #     Directorship, Architecture, Infrastructure        #
                #                    SHARK, DRIVERS                     #
                #        Core code/Algorithms in most modules           #
                #                                                       #
                #        Max Planck Institute fuer Kohlenforschung      #
                #                Kaiser Wilhelm Platz 1                 #
                #                 D-45470 Muelheim/Ruhr                 #
                #                      Germany                          #
                #                                                       #
                #                  All rights reserved                  #
                #                        -***-                          #
                #########################################################


                         Program Version 6.0.0  -   RELEASE  -


 With contributions from (in alphabetic order):
   Daniel Aravena         : Magnetic Suceptibility
   Michael Atanasov       : Ab Initio Ligand Field Theory (pilot matlab implementation)
   Alexander A. Auer      : GIAO ZORA, VPT2 properties, NMR spectrum
   Ute Becker             : All parallelization in ORCA, NUMFREQ, NUMCALC
   Giovanni Bistoni       : ED, misc. LED, open-shell LED, HFLD
   Martin Brehm           : Molecular dynamics
   Dmytro Bykov           : pre 5.0 version of the SCF Hessian
   Marcos Casanova-Páez   : Triplet and SCS-CIS(D). UHF-(DLPNO)-IP/EA/STEOM-CCSD. UHF-CVS-IP/STEOM-CCSD
   Vijay G. Chilkuri      : MRCI spin determinant printing, contributions to CSF-ICE
   Pauline Colinet        : FMM embedding
   Dipayan Datta          : RHF DLPNO-CCSD density
   Achintya Kumar Dutta   : EOM-CC, STEOM-CC
   Nicolas Foglia         : Exact transition moments, OPA infrastructure, MCD improvements
   Dmitry Ganyushin       : Spin-Orbit,Spin-Spin,Magnetic field MRCI
   Miquel Garcia          : C-PCM and meta-GGA Hessian, CCSD/C-PCM, Gaussian charge scheme
   Tiago L. C. Gouveia    : GS-ROHF, GS-ROCIS
   Yang Guo               : DLPNO-NEVPT2, F12-NEVPT2, CIM, IAO-localization
   Andreas Hansen         : Spin unrestricted coupled pair/coupled cluster methods
   Ingolf Harden          : AUTO-CI MPn and infrastructure 
   Benjamin Helmich-Paris : MC-RPA, TRAH-(SCF,CASSCF), AVAS, COSX integrals, SCF dyn. polar.
   Lee Huntington         : MR-EOM, pCC
   Robert Izsak           : Overlap fitted RIJCOSX, COSX-SCS-MP3, EOM
   Riya Kayal             : Wick's Theorem for AUTO-CI, AUTO-CI UHF-CCSDT
   Emily Kempfer          : AUTO-CI, RHF CISDT and CCSDT
   Christian Kollmar      : KDIIS, OOCD, Brueckner-CCSD(T), CCSD density, CASPT2, CASPT2-K, improved NEVPT2
   Axel Koslowski         : Symmetry handling
   Simone Kossmann        : Meta GGA functionals, TD-DFT gradient, OOMP2, (MP2 Hessian; deprecated post 5.0)
   Lucas Lang             : DCDCAS
   Marvin Lechner         : AUTO-CI (C++ implementation), FIC-MRCC
   Spencer Leger          : CASSCF response
   Dagmar Lenk            : GEPOL surface, SMD, ORCA-2-JSON
   Dimitrios Liakos       : Extrapolation schemes; Compound Job, initial MDCI parallelization
   Dimitrios Manganas     : Further ROCIS development; embedding schemes. LFT, Crystal Embedding
   Dimitrios Pantazis     : SARC Basis sets
   Anastasios Papadopoulos: AUTO-CI, single reference methods and gradients
   Taras Petrenko         : pre 6.0 DFT Hessian and TD-DFT gradient, (ASA, deprecated), ECA, 1-Electron XAS/XES, NRVS
   Peter Pinski           : DLPNO-MP2, DLPNO-MP2 Gradient
   Christoph Reimann      : Effective Core Potentials
   Marius Retegan         : Local ZFS, SOC
   Christoph Riplinger    : Optimizer, TS searches, QM/MM, DLPNO-CCSD(T), (RO)-DLPNO pert. Triples
   Michael Roemelt        : Original ROCIS implementation
   Masaaki Saitow         : Open-shell DLPNO-CCSD energy and density
   Barbara Sandhoefer     : DKH picture change effects
   Kantharuban Sivalingam : CASSCF convergence/infrastructure, NEVPT2 and variants, FIC-MRCI
   Bernardo de Souza      : ESD, SOC TD-DFT
   Georgi Stoychev        : AutoAux, RI-MP2 NMR, DLPNO-MP2 response, X2C
   Van Anh Tran           : RI-MP2 g-tensors
   Willem Van den Heuvel  : Paramagnetic NMR
   Zikuan Wang            : NOTCH, Electric field optimization 
   Frank Wennmohs         : Technical directorship and infrastructure
   Hang Xu                : AUTO-CI-Response properties 


 We gratefully acknowledge several colleagues who have allowed us to
 interface, adapt or use parts of their codes:
   Stefan Grimme, W. Hujo, H. Kruse, P. Pracht,  : VdW corrections, initial TS optimization,
                  C. Bannwarth, S. Ehlert,         DFT functionals, gCP, sTDA/sTD-DF
                  L. Wittmann, M. Mueller
   Ed Valeev, F. Pavosevic, A. Kumar             : LibInt (2-el integral package), F12 methods
   Garnet Chan, S. Sharma, J. Yang, R. Olivares  : DMRG
   Ulf Ekstrom                                   : XCFun DFT Library
   Mihaly Kallay                                 : mrcc  (arbitrary order and MRCC methods)
   Frank Weinhold                                : gennbo (NPA and NBO analysis)
   Simon Mueller                                 : openCOSMO-RS
   Christopher J. Cramer and Donald G. Truhlar   : smd solvation model
   Lars Goerigk                                  : TD-DFT with DH, B97 family of functionals
   V. Asgeirsson, H. Jonsson                     : NEB implementation
   FAccTs GmbH                                   : IRC, NEB, NEB-TS, DLPNO-Multilevel, CI-OPT
                                                   MM, QMMM, 2- and 3-layer-ONIOM, Crystal-QMMM,
                                                   LR-CPCM, SF, NACMEs, symmetry and pop. for TD-DFT,
                                                   nearIR, NL-DFT gradient (VV10), updates on ESD,
                                                   ML-optimized integration grids, MBIS, APM,
                                                   GOAT, DOCKER, SOLVATOR, interface openCOSMO-RS
   S Lehtola, MJT Oliveira, MAL Marques          : LibXC Library
   Liviu Ungur et al                             : ANISO software


 Your calculation uses the libint2 library for the computation of 2-el integrals
 For citations please refer to: http://libint.valeyev.net

 Your ORCA version has been built with support for libXC version: 6.2.2
 For citations please refer to: https://libxc.gitlab.io

 This ORCA versions uses:
   CBLAS   interface :  Fast vector & matrix operations
   LAPACKE interface :  Fast linear algebra routines
   SCALAPACK package :  Parallel linear algebra routines
   Shared memory     :  Shared parallel matrices
   BLAS/LAPACK       :  OpenBLAS 0.3.27  USE64BITINT DYNAMIC_ARCH NO_AFFINITY SkylakeX SINGLE_THREADED
        Core in use  :  SkylakeX
   Copyright (c) 2011-2014, The OpenBLAS Project


NOTE: MaxCore=3000 MB was set to SCF,MP2,MDCI,CIPSI,MRCI and CIS
      => If you want to overwrite this, your respective input block should be placed after the MaxCore statement
Your calculation utilizes the atom-pairwise dispersion correction
with the Becke-Johnson damping scheme (D3BJ)


Warning: RI is on but no J-basis has been assigned. Assigning Def2/J (nothing to worry about!)
================================================================================

----- Orbital basis set information -----
Your calculation utilizes the basis: def2-SV(P)
   F. Weigend and R. Ahlrichs, Phys. Chem. Chem. Phys. 7, 3297 (2005).

----- AuxJ basis set information -----
Your calculation utilizes the auxiliary basis: def2/J
   F. Weigend, Phys. Chem. Chem. Phys. 8, 1057 (2006).

================================================================================
                                        WARNINGS
                       Please study these warnings very carefully!
================================================================================


WARNING: your system is open-shell and RHF/RKS was chosen
  ===> : WILL SWITCH to UHF/UKS


WARNING: Geometry Optimization
  ===> : Switching off AutoStart
         For restart on a previous wavefunction, please use MOREAD

================================================================================
                                       INPUT FILE
================================================================================
NAME = cs_rporg_008_ox_opt_01.inp
|  1> !PBE0 def2-SV(p) Opt Freq d3 TightSCF SlowConv RIJCOSX defgrid2
|  2>  
|  3> %pal
|  4> nprocs 4
|  5> end
|  6>  
|  7> %scf
|  8> MaxIter 1500
|  9> end
| 10>  
| 11> %maxcore 3000
| 12>  
| 13> 
| 14>  
| 15> * xyz 1 2
| 16> C     1.8302787   -0.0001318   -0.0299887 
| 17> C     1.1379967   -1.2213412   -0.0362239 
| 18> C    -0.2315637   -1.2248200    0.0554155 
| 19> C    -0.9506824    0.0003510    0.0495366 
| 20> C    -2.4080536    0.0003056   -0.0513505 
| 21> H    -2.8001576    0.9055366   -0.5166434 
| 22> H    -2.7993153   -0.9013556   -0.5245305 
| 23> H    -2.8041136   -0.0054419    0.9792427 
| 24> C    -0.2312029    1.2252426    0.0550476 
| 25> C     1.1383840    1.2212834   -0.0366255 
| 26> H     1.6864613    2.1502236   -0.0722639 
| 27> H    -0.7753341    2.1569839    0.0992238 
| 28> H    -0.7760031   -2.1563743    0.0998790 
| 29> H     1.6857953   -2.1504579   -0.0715082 
| 30> H     2.9081839   -0.0002865    0.0530235
| 31> *
| 32> 
| 33>                          ****END OF INPUT****
================================================================================

                       *****************************
                       * Geometry Optimization Run *
                       *****************************

Geometry optimization settings:
Update method            Update   .... BFGS
Choice of coordinates    CoordSys .... (2022) Redundant Internals
Initial Hessian          InHess   .... Almloef's Model
Max. no of cycles        MaxIter  .... 50

Convergence Tolerances:
Energy Change            TolE     ....  5.0000e-06 Eh
Max. Gradient            TolMAXG  ....  3.0000e-04 Eh/bohr
RMS Gradient             TolRMSG  ....  1.0000e-04 Eh/bohr
Max. Displacement        TolMAXD  ....  4.0000e-03 bohr
RMS Displacement         TolRMSD  ....  2.0000e-03 bohr
Strict Convergence                .... False

------------------------------------------------------------------------------
                        ORCA OPTIMIZATION COORDINATE SETUP
------------------------------------------------------------------------------

The optimization will be done in redundant internal coordinates (2022)
Making redundant internal coordinates   ...  (2022 redundants) done
Evaluating the initial hessian          ...  (Almloef) done
Evaluating the coordinates              ...  done
Calculating the B-matrix                .... done
Calculating the G-matrix                .... done
Diagonalizing the G-matrix              .... done
The first mode is                       ....   29
The number of degrees of freedom        ....   39

    -----------------------------------------------------------------
                    Redundant Internal Coordinates


    -----------------------------------------------------------------
         Definition                    Initial Value    Approx d2E/dq
    -----------------------------------------------------------------
      1. B(C   1,C   0)                  1.4038         0.593918   
      2. B(C   2,C   1)                  1.3726         0.665972   
      3. B(C   3,C   2)                  1.4206         0.558289   
      4. B(C   4,C   3)                  1.4609         0.481601   
      5. B(H   5,C   4)                  1.0907         0.359139   
      6. B(H   6,C   4)                  1.0909         0.358963   
      7. B(H   7,C   4)                  1.1041         0.341933   
      8. B(C   8,C   3)                  1.4206         0.558411   
      9. B(C   9,C   8)                  1.3727         0.665898   
     10. B(C   9,C   0)                  1.4038         0.593940   
     11. B(H  10,C   9)                  1.0792         0.374728   
     12. B(H  11,C   8)                  1.0799         0.373720   
     13. B(H  12,C   2)                  1.0799         0.373712   
     14. B(H  13,C   1)                  1.0792         0.374729   
     15. B(H  14,C   0)                  1.0811         0.372072   
     16. A(C   1,C   0,H  14)          119.4662         0.352296   
     17. A(C   9,C   0,H  14)          119.4662         0.352298   
     18. A(C   1,C   0,C   9)          120.9195         0.427420   
     19. A(C   0,C   1,H  13)          119.9203         0.352721   
     20. A(C   2,C   1,H  13)          120.4298         0.359645   
     21. A(C   0,C   1,C   2)          119.6009         0.436303   
     22. A(C   3,C   2,H  12)          119.2689         0.348893   
     23. A(C   1,C   2,H  12)          120.5284         0.359478   
     24. A(C   1,C   2,C   3)          120.1723         0.431474   
     25. A(C   2,C   3,C   4)          120.3476         0.407248   
     26. A(C   4,C   3,C   8)          120.3682         0.407264   
     27. A(C   2,C   3,C   8)          119.1583         0.418088   
     28. A(C   3,C   4,H   7)          107.0617         0.335340   
     29. A(H   5,C   4,H   6)          111.8396         0.290573   
     30. A(C   3,C   4,H   6)          112.8175         0.338065   
     31. A(H   6,C   4,H   7)          105.7789         0.288345   
     32. A(C   3,C   4,H   5)          112.8341         0.338093   
     33. A(H   5,C   4,H   7)          105.8760         0.288368   
     34. A(C   3,C   8,C   9)          120.1716         0.431482   
     35. A(C   9,C   8,H  11)          120.5286         0.359473   
     36. A(C   3,C   8,H  11)          119.2694         0.348908   
     37. A(C   0,C   9,H  10)          119.9210         0.352722   
     38. A(C   0,C   9,C   8)          119.6018         0.436297   
     39. A(C   8,C   9,H  10)          120.4283         0.359638   
     40. D(C   2,C   1,C   0,H  14)    170.5358         0.024291   
     41. D(C   2,C   1,C   0,C   9)     -5.0169         0.024291   
     42. D(H  13,C   1,C   0,C   9)    177.5164         0.024291   
     43. D(H  13,C   1,C   0,H  14)     -6.9308         0.024291   
     44. D(C   3,C   2,C   1,C   0)      4.9765         0.030990   
     45. D(C   3,C   2,C   1,H  13)   -177.5700         0.030990   
     46. D(H  12,C   2,C   1,C   0)   -177.0439         0.030990   
     47. D(H  12,C   2,C   1,H  13)      0.4096         0.030990   
     48. D(C   8,C   3,C   2,H  12)    177.0409         0.021345   
     49. D(C   8,C   3,C   2,C   1)     -4.9542         0.021345   
     50. D(C   4,C   3,C   2,H  12)     -7.0232         0.021345   
     51. D(C   4,C   3,C   2,C   1)    170.9818         0.021345   
     52. D(H   6,C   4,C   3,C   2)    -24.2224         0.017104   
     53. D(H   5,C   4,C   3,C   8)     23.7077         0.017104   
     54. D(H   5,C   4,C   3,C   2)   -152.1788         0.017104   
     55. D(H   7,C   4,C   3,C   2)     91.7359         0.017104   
     56. D(H   6,C   4,C   3,C   8)    151.6641         0.017104   
     57. D(H  11,C   8,C   3,C   4)      7.0236         0.021355   
     58. D(H  11,C   8,C   3,C   2)   -177.0413         0.021355   
     59. D(C   9,C   8,C   3,C   4)   -170.9794         0.021355   
     60. D(C   9,C   8,C   3,C   2)      4.9557         0.021355   
     61. D(H  10,C   9,C   8,H  11)     -0.4123         0.030983   
     62. D(H  10,C   9,C   8,C   3)    177.5653         0.030983   
     63. D(C   0,C   9,C   8,H  11)    177.0427         0.030983   
     64. D(C   0,C   9,C   8,C   3)     -4.9798         0.030983   
     65. D(H  10,C   9,C   0,H  14)      6.9338         0.024293   
     66. D(H  10,C   9,C   0,C   1)   -177.5134         0.024293   
     67. D(C   8,C   9,C   0,H  14)   -170.5342         0.024293   
     68. D(C   8,C   9,C   0,C   1)      5.0186         0.024293   
    -----------------------------------------------------------------

Number of atoms                         .... 15
Number of degrees of freedom            .... 68


         *************************************************************
         *                GEOMETRY OPTIMIZATION CYCLE   1            *
         *************************************************************
---------------------------------
CARTESIAN COORDINATES (ANGSTROEM)
---------------------------------
  C      1.830279   -0.000132   -0.029989
  C      1.137997   -1.221341   -0.036224
  C     -0.231564   -1.224820    0.055415
  C     -0.950682    0.000351    0.049537
  C     -2.408054    0.000306   -0.051351
  H     -2.800158    0.905537   -0.516643
  H     -2.799315   -0.901356   -0.524531
  H     -2.804114   -0.005442    0.979243
  C     -0.231203    1.225243    0.055048
  C      1.138384    1.221283   -0.036625
  H      1.686461    2.150224   -0.072264
  H     -0.775334    2.156984    0.099224
  H     -0.776003   -2.156374    0.099879
  H      1.685795   -2.150458   -0.071508
  H      2.908184   -0.000286    0.053024

----------------------------
CARTESIAN COORDINATES (A.U.)
----------------------------
  NO LB      ZA    FRAG     MASS         X           Y           Z
   0 C     6.0000    0    12.011    3.458725   -0.000249   -0.056670
   1 C     6.0000    0    12.011    2.150502   -2.308000   -0.068453
   2 C     6.0000    0    12.011   -0.437592   -2.314574    0.104720
   3 C     6.0000    0    12.011   -1.796529    0.000663    0.093611
   4 C     6.0000    0    12.011   -4.550562    0.000578   -0.097038
   5 H     1.0000    0     1.008   -5.291531    1.711216   -0.976315
   6 H     1.0000    0     1.008   -5.289939   -1.703315   -0.991219
   7 H     1.0000    0     1.008   -5.299007   -0.010284    1.850501
   8 C     6.0000    0    12.011   -0.436910    2.315373    0.104025
   9 C     6.0000    0    12.011    2.151234    2.307891   -0.069212
  10 H     1.0000    0     1.008    3.186950    4.063334   -0.136559
  11 H     1.0000    0     1.008   -1.465169    4.076109    0.187506
  12 H     1.0000    0     1.008   -1.466433   -4.074957    0.188744
  13 H     1.0000    0     1.008    3.185691   -4.063776   -0.135131
  14 H     1.0000    0     1.008    5.495671   -0.000541    0.100200

--------------------------------
INTERNAL COORDINATES (ANGSTROEM)
--------------------------------
 C      0   0   0     0.000000000000     0.00000000     0.00000000
 C      1   0   0     1.403796867033     0.00000000     0.00000000
 C      2   1   0     1.372627251270   119.60093717     0.00000000
 C      3   2   1     1.420637267354   120.17226287     4.97653254
 C      4   3   2     1.460859001956   120.34761033   170.98181739
 H      5   4   3     1.090727368762   112.83413936   207.82119519
 H      5   4   3     1.090861104757   112.81753650   335.77757585
 H      5   4   3     1.104091889855   107.06168065    91.73586044
 C      4   3   2     1.420577542337   119.15825259   355.04582067
 C      9   4   3     1.372657243881   120.17155101     4.95573280
 H     10   9   4     1.079161117492   120.42832895   177.56528981
 H      9   4   3     1.079894508545   119.26940257   182.95870471
 H      3   2   1     1.079900308803   120.52842456   182.95611200
 H      2   1   3     1.079159918736   119.92029959   182.53335488
 H      1   2   3     1.081096975053   119.46621877   170.53584949

---------------------------
INTERNAL COORDINATES (A.U.)
---------------------------
 C      0   0   0     0.000000000000     0.00000000     0.00000000
 C      1   0   0     2.652791626349     0.00000000     0.00000000
 C      2   1   0     2.593889588858   119.60093717     0.00000000
 C      3   2   1     2.684615370942   120.17226287     4.97653254
 C      4   3   2     2.760623433971   120.34761033   170.98181739
 H      5   4   3     2.061176013734   112.83413936   207.82119519
 H      5   4   3     2.061428738138   112.81753650   335.77757585
 H      5   4   3     2.086431298509   107.06168065    91.73586044
 C      4   3   2     2.684502507016   119.15825259   355.04582067
 C      9   4   3     2.593946266679   120.17155101     4.95573280
 H     10   9   4     2.039318966436   120.42832895   177.56528981
 H      9   4   3     2.040704874675   119.26940257   182.95870471
 H      3   2   1     2.040715835575   120.52842456   182.95611200
 H      2   1   3     2.039316701117   119.92029959   182.53335488
 H      1   2   3     2.042977207060   119.46621877   170.53584949

---------------------
BASIS SET INFORMATION
---------------------
There are 2 groups of distinct atoms

 Group   1 Type C   : 7s4p1d contracted to 3s2p1d pattern {511/31/1}
 Group   2 Type H   : 4s contracted to 2s pattern {31}

Atom   0C    basis set group =>   1
Atom   1C    basis set group =>   1
Atom   2C    basis set group =>   1
Atom   3C    basis set group =>   1
Atom   4C    basis set group =>   1
Atom   5H    basis set group =>   2
Atom   6H    basis set group =>   2
Atom   7H    basis set group =>   2
Atom   8C    basis set group =>   1
Atom   9C    basis set group =>   1
Atom  10H    basis set group =>   2
Atom  11H    basis set group =>   2
Atom  12H    basis set group =>   2
Atom  13H    basis set group =>   2
Atom  14H    basis set group =>   2
---------------------------------
AUXILIARY/J BASIS SET INFORMATION
---------------------------------
There are 2 groups of distinct atoms

 Group   1 Type C   : 12s5p4d2f1g contracted to 6s4p3d1f1g pattern {711111/2111/211/2/1}
 Group   2 Type H   : 5s2p1d contracted to 3s1p1d pattern {311/2/1}

Atom   0C    basis set group =>   1
Atom   1C    basis set group =>   1
Atom   2C    basis set group =>   1
Atom   3C    basis set group =>   1
Atom   4C    basis set group =>   1
Atom   5H    basis set group =>   2
Atom   6H    basis set group =>   2
Atom   7H    basis set group =>   2
Atom   8C    basis set group =>   1
Atom   9C    basis set group =>   1
Atom  10H    basis set group =>   2
Atom  11H    basis set group =>   2
Atom  12H    basis set group =>   2
Atom  13H    basis set group =>   2
Atom  14H    basis set group =>   2


           ************************************************************
           *        Program running with 4 parallel MPI-processes     *
           *              working on a common directory               *
           ************************************************************
------------------------------------------------------------------------------
                             ORCA STARTUP CALCULATIONS
                           -- RI-GTO INTEGRALS CHOSEN --
------------------------------------------------------------------------------
------------------------------------------------------------------------------
                   ___                                                        
                  /   \      - P O W E R E D   B Y -                         
                 /     \                                                     
                 |  |  |   _    _      __       _____    __    __             
                 |  |  |  | |  | |    /  \     |  _  \  |  |  /  |          
                  \  \/   | |  | |   /    \    | | | |  |  | /  /          
                 / \  \   | |__| |  /  /\  \   | |_| |  |  |/  /          
                |  |  |   |  __  | /  /__\  \  |    /   |      \           
                |  |  |   | |  | | |   __   |  |    \   |  |\   \          
                \     /   | |  | | |  |  |  |  | |\  \  |  | \   \       
                 \___/    |_|  |_| |__|  |__|  |_| \__\ |__|  \__/        
                                                                              
                      - O R C A' S   B I G   F R I E N D -                    
                                      &                                       
                       - I N T E G R A L  F E E D E R -                       
                                                                              
 v1 FN, 2020, v2 2021, v3 2022-2024                                           
------------------------------------------------------------------------------


----------------------
SHARK INTEGRAL PACKAGE
----------------------

Number of atoms                             ...     15
Number of basis functions                   ...    114
Number of shells                            ...     58
Maximum angular momentum                    ...      2
Integral batch strategy                     ... SHARK/LIBINT Hybrid
RI-J (if used) integral strategy            ... SPLIT-RIJ (Revised 2003 algorithm where possible)
Printlevel                                  ...      1
Contraction scheme used                     ... SEGMENTED contraction
Prescreening option                         ... SCHWARTZ
   Thresh                                   ... 2.500e-11
   Tcut                                     ... 2.500e-12
   Tpresel                                  ... 2.500e-12 
Coulomb Range Separation                    ... NOT USED
Exchange Range Separation                   ... NOT USED
Multipole approximations                    ... NOT USED
Finite Nucleus Model                        ... NOT USED
CABS basis                                  ... NOT available
Auxiliary Coulomb fitting basis             ... AVAILABLE
   # of basis functions in Aux-J            ...    431
   # of shells in Aux-J                     ...    145
   Maximum angular momentum in Aux-J        ...      4
Auxiliary J/K fitting basis                 ... NOT available
Auxiliary Correlation fitting basis         ... NOT available
Auxiliary 'external' fitting basis          ... NOT available

Checking pre-screening integrals            ... done (  0.0 sec) Dimension = 58
Check shell pair data                       ... done (  0.0 sec)
Shell pair information
Shell pair cut-off parameter TPreSel        ...   2.5e-12
Total number of shell pairs                 ...      1711
Shell pairs after pre-screening             ...      1676
Total number of primitive shell pairs       ...      6901
Primitive shell pairs kept                  ...      5081
          la=0 lb=0:    676 shell pairs
          la=1 lb=0:    516 shell pairs
          la=1 lb=1:    105 shell pairs
          la=2 lb=0:    253 shell pairs
          la=2 lb=1:     98 shell pairs
          la=2 lb=2:     28 shell pairs

Calculating one electron integrals          ... done (  0.0 sec)
Calculating RI/J V-Matrix + Cholesky decomp.... done (  0.2 sec)
Calculating Nuclear repulsion               ... done (  0.0 sec) ENN=    270.020666104394 Eh

Diagonalization of the overlap matrix:
Smallest eigenvalue                        ... 3.382e-04
Time for diagonalization                   ...    0.001 sec
Threshold for overlap eigenvalues          ... 1.000e-07
Number of eigenvalues below threshold      ... 0
Time for construction of square roots      ...    0.026 sec
Total time needed                          ...    0.075 sec

-------------------
DFT GRID GENERATION
-------------------

General Integration Accuracy     IntAcc      ... 4.388
Radial Grid Type                 RadialGrid  ... OptM3 with GC (2021)
Angular Grid (max. ang.)         AngularGrid ... 4 (Lebedev-302)
Angular grid pruning method      GridPruning ... 4 (adaptive)
Weight generation scheme         WeightScheme... mBecke (2022)
Basis function cutoff            BFCut       ... 1.0000e-11
Integration weight cutoff        WCut        ... 1.0000e-14
Partially contracted basis set               ... off
Rotationally invariant grid construction     ... off
Angular grids for H and He will be reduced by one unit

Total number of grid points                  ...    67856
Total number of batches                      ...     1067
Average number of points per batch           ...       63
Average number of grid points per atom       ...     4524

--------------------
COSX GRID GENERATION
--------------------

GRIDX 1
-------
General Integration Accuracy     IntAcc      ... 3.816
Radial Grid Type                 RadialGrid  ... OptM3 with GC (2021)
Angular Grid (max. ang.)         AngularGrid ... 1 (Lebedev-50)
Angular grid pruning method      GridPruning ... 4 (adaptive)
Weight generation scheme         WeightScheme... mBecke (2022)
Basis function cutoff            BFCut       ... 1.0000e-11
Integration weight cutoff        WCut        ... 1.0000e-14
Partially contracted basis set               ... on
Rotationally invariant grid construction     ... off
Angular grids for H and He will be reduced by one unit

Total number of grid points                  ...     8721
Total number of batches                      ...       76
Average number of points per batch           ...      114
Average number of grid points per atom       ...      581
UseSFitting                                  ... on

GRIDX 2
-------
General Integration Accuracy     IntAcc      ... 4.020
Radial Grid Type                 RadialGrid  ... OptM3 with GC (2021)
Angular Grid (max. ang.)         AngularGrid ... 2 (Lebedev-110)
Angular grid pruning method      GridPruning ... 4 (adaptive)
Weight generation scheme         WeightScheme... mBecke (2022)
Basis function cutoff            BFCut       ... 1.0000e-11
Integration weight cutoff        WCut        ... 1.0000e-14
Partially contracted basis set               ... on
Rotationally invariant grid construction     ... off
Angular grids for H and He will be reduced by one unit

Total number of grid points                  ...    18670
Total number of batches                      ...      154
Average number of points per batch           ...      121
Average number of grid points per atom       ...     1245
UseSFitting                                  ... on

GRIDX 3
-------
General Integration Accuracy     IntAcc      ... 4.338
Radial Grid Type                 RadialGrid  ... OptM3 with GC (2021)
Angular Grid (max. ang.)         AngularGrid ... 3 (Lebedev-194)
Angular grid pruning method      GridPruning ... 4 (adaptive)
Weight generation scheme         WeightScheme... mBecke (2022)
Basis function cutoff            BFCut       ... 1.0000e-11
Integration weight cutoff        WCut        ... 1.0000e-14
Partially contracted basis set               ... on
Rotationally invariant grid construction     ... off
Angular grids for H and He will be reduced by one unit

Total number of grid points                  ...    41038
Total number of batches                      ...      328
Average number of points per batch           ...      125
Average number of grid points per atom       ...     2736
UseSFitting                                  ... on
Initializing property integral containers    ... done (  0.1 sec)

SHARK setup successfully completed in   2.3 seconds

Maximum memory used throughout the entire STARTUP-calculation: 18.4 MB


           ************************************************************
           *        Program running with 4 parallel MPI-processes     *
           *              working on a common directory               *
           ************************************************************
-------------------------------------------------------------------------------
                                 ORCA GUESS
                   Start orbitals & Density for SCF / CASSCF
-------------------------------------------------------------------------------

------------
SCF SETTINGS
------------
Hamiltonian:
 Density Functional     Method          .... DFT(GTOs)
 Exchange Functional    Exchange        .... PBE
   PBE kappa parameter   XKappa         ....  0.804000
   PBE mue parameter    XMuePBE         ....  0.219520
 Correlation Functional Correlation     .... PBE
   PBE beta parameter  CBetaPBE         ....  0.066725
 LDA part of GGA corr.  LDAOpt          .... PW91-LDA
 Gradients option       PostSCFGGA      .... off
 Hybrid DFT is turned on
   Fraction HF Exchange ScalHFX         ....  0.250000
   Scaling of DF-GGA-X  ScalDFX         ....  0.750000
   Scaling of DF-GGA-C  ScalDFC         ....  1.000000
   Scaling of DF-LDA-C  ScalLDAC        ....  1.000000
   Perturbative correction              ....  0.000000
   NL short-range parameter             ....  6.900000
 RI-approximation to the Coulomb term is turned on
   Number of AuxJ basis functions       .... 431
   RIJ-COSX (HFX calculated with COS-X)).... on


General Settings:
 Integral files         IntName         .... cs_rporg_008_ox_opt_01
 Hartree-Fock type      HFTyp           .... UHF
 Total Charge           Charge          ....    1
 Multiplicity           Mult            ....    2
 Number of Electrons    NEL             ....   49
 Basis Dimension        Dim             ....  114
 Nuclear Repulsion      ENuc            ....    270.0206661044 Eh

Convergence Acceleration:
 AO-DIIS                CNVDIIS         .... on
   Start iteration      DIISMaxIt       ....     0
   Startup error        DIISStart       ....  0.200000
   # of expansion vecs  DIISMaxEq       ....     5
   Bias factor          DIISBfac        ....   1.050
   Max. coefficient     DIISMaxC        ....  10.000
 MO-DIIS                CNVKDIIS        .... off
 Trust-Rad. Augm. Hess. CNVTRAH         .... auto
   Auto Start mean grad. ratio tolernc. ....  1.125000
   Auto Start start iteration           ....    50
   Auto Start num. interpolation iter.  ....    10
   Max. Number of Micro iterations      ....    24
   Max. Number of Macro iterations      .... Maxiter - #DIIS iter
   Number of Davidson start vectors     ....     2
   Converg. threshold    (grad. norm)   ....   1.000e-05
   Grad. Scal. Fac. for Micro threshold ....   0.100
   Minimum threshold for Micro iter.    ....   1.000e-02
   NR start threshold (gradient norm)   ....   1.000e-04
   Initial trust radius                 ....   0.400
   Minimum AH scaling param. (alpha)    ....   1.000
   Maximum AH scaling param. (alpha)    .... 1000.000
   Quad. conv. algorithm                .... NR
   White noise on init. David. guess    .... on
   Maximum white noise                  ....   0.010
   Pseudo random numbers                .... off
   Inactive MOs                         .... canonical
   Orbital update algorithm             .... Taylor
   Preconditioner                       .... Diag
   Full preconditioner red. dimension   ....   250
 SOSCF                  CNVSOSCF        .... on
   Start iteration      SOSCFMaxIt      ....   150
   Startup grad/error   SOSCFStart      ....  0.001000
   Hessian update       SOSCFHessUp     .... L-BFGS
 Level Shifting         CNVShift        .... on
   Level shift para.    LevelShift      ....    0.2500
   Turn off err/grad.   ShiftErr        ....    0.0000
 Zerner damping         CNVZerner       .... off
 Static damping         CNVDamp         .... on
   Fraction old density DampFac         ....    0.8500
   Max. Damping (<1)    DampMax         ....    0.9800
   Min. Damping (>=0)   DampMin         ....    0.0000
   Turn off err/grad.   DampErr         ....    0.0300

SCF Procedure:
 Maximum # iterations   MaxIter         ....  1500
 SCF integral mode      SCFMode         .... Direct
   Integral package                     .... SHARK and LIBINT hybrid scheme
 Reset frequency        DirectResetFreq ....    20
 Integral Threshold     Thresh          ....  2.500e-11 Eh
 Primitive CutOff       TCut            ....  2.500e-12 Eh

Convergence Tolerance:
 Convergence Check Mode ConvCheckMode   .... Total+1el-Energy
 Convergence forced     ConvForced      .... 0
 Energy Change          TolE            ....  1.000e-08 Eh
 1-El. energy change                    ....  1.000e-05 Eh
 Orbital Gradient       TolG            ....  1.000e-05
 Orbital Rotation angle TolX            ....  1.000e-05
 DIIS Error             TolErr          ....  5.000e-07

------------------------------
INITIAL GUESS: MODEL POTENTIAL
------------------------------
Loading Hartree-Fock densities                     ... done
Calculating cut-offs                               ... done
Initializing the effective Hamiltonian             ... done
Setting up the integral package (SHARK)            ... done
Starting the Coulomb interaction                   ... done (   0.1 sec)
Making the grid                                    ... done (   0.2 sec)
Mapping shells                                     ... done
Starting the XC term evaluation                    ... done (   0.0 sec)
  promolecular density results
     # of electrons  =     49.997807724
     EX              =    -38.149118766
     EC              =     -1.633253557
     EX+EC           =    -39.782372323
Transforming the Hamiltonian                       ... done (   0.0 sec)
Diagonalizing the Hamiltonian                      ... done (   0.0 sec)
Back transforming the eigenvectors                 ... done (   0.0 sec)
Now organizing SCF variables                       ... done
                      ------------------
                      INITIAL GUESS DONE (   0.5 sec)
                      ------------------
             **** ENERGY FILE WAS UPDATED (cs_rporg_008_ox_opt_01.en.tmp) ****
Finished Guess after   1.1 sec
Maximum memory used throughout the entire GUESS-calculation: 10.0 MB


           ************************************************************
           *        Program running with 4 parallel MPI-processes     *
           *              working on a common directory               *
           ************************************************************

-------------------------------------------------------------------------------------------
                                      ORCA LEAN-SCF
                              memory conserving SCF solver
-------------------------------------------------------------------------------------------

----------------------------------------D-I-I-S--------------------------------------------
Iteration    Energy (Eh)           Delta-E    RMSDP     MaxDP     DIISErr   Damp  Time(sec)
-------------------------------------------------------------------------------------------
               ***  Starting incremental Fock matrix formation  ***
    1    -270.6199689164726578     0.00e+00  8.55e-04  1.75e-02  6.80e-02  0.850   2.4
Warning: op=1 Small HOMO/LUMO gap (   0.073) - skipping pre-diagonalization
         Will do a full diagonalization
    2    -270.6388312674748704    -1.89e-02  8.18e-04  1.57e-02  5.29e-02  0.850   3.0
                               ***Turning on AO-DIIS***
    3    -270.6522729543869445    -1.34e-02  5.62e-04  8.13e-03  3.80e-02  0.850   2.8
    4    -270.6615887805822922    -9.32e-03  4.43e-04  5.67e-03  3.03e-02  0.850   3.1
    5    -270.6685495696083308    -6.96e-03  3.69e-04  4.52e-03  2.52e-02  0.850   3.1
    6    -270.6740744897324475    -5.52e-03  2.10e-03  2.58e-02  2.12e-02  0.000   3.1
    7    -270.7016534357409228    -2.76e-02  8.71e-05  2.14e-03  1.38e-03  0.000   3.1
                              *** Initializing SOSCF ***
---------------------------------------S-O-S-C-F--------------------------------------
Iteration    Energy (Eh)           Delta-E    RMSDP     MaxDP     MaxGrad    Time(sec)
--------------------------------------------------------------------------------------
    8    -270.7017115893174832    -5.82e-05  5.45e-05  1.69e-03  9.78e-04     3.3
               *** Restarting incremental Fock matrix formation ***
    9    -270.7016694373130576     4.22e-05  4.39e-05  1.41e-03  7.87e-04     3.2
   10    -270.7016817445289689    -1.23e-05  6.87e-05  1.66e-03  5.54e-04     2.8
   11    -270.7016835031249684    -1.76e-06  2.43e-05  4.82e-04  6.10e-04     2.9
   12    -270.7016872327078545    -3.73e-06  1.75e-05  3.30e-04  2.04e-04     2.5
   13    -270.7016874896255558    -2.57e-07  7.98e-06  1.48e-04  9.69e-05     2.5
   14    -270.7016877924870641    -3.03e-07  3.01e-06  7.59e-05  2.80e-05     2.1
   15    -270.7016878161833802    -2.37e-08  2.34e-06  5.66e-05  1.63e-05     2.0
   16    -270.7016878259823898    -9.80e-09  5.01e-07  1.46e-05  5.36e-06     2.1
                 **** Energy Check signals convergence ****

               *****************************************************
               *                     SUCCESS                       *
               *           SCF CONVERGED AFTER  16 CYCLES          *
               *****************************************************

Recomputing exchange energy using gridx3       ... done (    1.016 sec)
Old exchange energy                            :     -9.700814211 Eh
New exchange energy                            :     -9.700854436 Eh
Exchange energy change after final integration :     -0.000040226 Eh
Total energy after final integration           :   -270.701728052 Eh
             **** ENERGY FILE WAS UPDATED (cs_rporg_008_ox_opt_01.en.tmp) ****

----------------
TOTAL SCF ENERGY
----------------

Total Energy       :       -270.70172805179402 Eh           -7366.16851 eV

Components:
Nuclear Repulsion  :        270.02066610439419 Eh            7347.63587 eV
Electronic Energy  :       -540.72235393037658 Eh          -14713.80329 eV
One Electron Energy:       -887.73712558799411 Eh          -24156.55528 eV
Two Electron Energy:        347.01477165761753 Eh            9442.75200 eV

Virial components:
Potential Energy   :       -539.05722173037623 Eh          -14668.49274 eV
Kinetic Energy     :        268.35549367858221 Eh            7302.32423 eV
Virial Ratio       :          2.00874300854084

DFT components:
N(Alpha)           :       24.999987919294 electrons
N(Beta)            :       23.999987693457 electrons
N(Total)           :       48.999975612751 electrons
E(X)               :      -28.987157445433 Eh       
E(C)               :       -1.606941423619 Eh       
E(XC)              :      -30.594098869053 Eh       

---------------
SCF CONVERGENCE
---------------

  Last Energy change         ...    9.7990e-09  Tolerance :   1.0000e-08
  Last MAX-Density change    ...    1.4586e-05  Tolerance :   1.0000e-07
  Last RMS-Density change    ...    5.0069e-07  Tolerance :   5.0000e-09
  Last DIIS Error            ...    9.7762e-04  Tolerance :   5.0000e-07
  Last Orbital Gradient      ...    5.3644e-06  Tolerance :   1.0000e-05
  Last Orbital Rotation      ...    1.8438e-05  Tolerance :   1.0000e-05


----------------------
UHF SPIN CONTAMINATION
----------------------

Warning: in a DFT calculation there is little theoretical justification to 
         calculate <S**2> as in Hartree-Fock theory. We will do it anyways
         but you should keep in mind that the values have only limited relevance

Expectation value of <S**2>     :     0.765493
Ideal value S*(S+1) for S=0.5   :     0.750000
Deviation                       :     0.015493

----------------
ORBITAL ENERGIES
----------------
                 SPIN UP ORBITALS
  NO   OCC          E(Eh)            E(eV) 
   0   1.0000     -10.499451      -285.7046 
   1   1.0000     -10.479560      -285.1633 
   2   1.0000     -10.454849      -284.4909 
   3   1.0000     -10.454805      -284.4897 
   4   1.0000     -10.449658      -284.3497 
   5   1.0000     -10.449614      -284.3485 
   6   1.0000     -10.413150      -283.3562 
   7   1.0000      -1.110221       -30.2107 
   8   1.0000      -1.019364       -27.7383 
   9   1.0000      -0.984865       -26.7995 
  10   1.0000      -0.913763       -24.8648 
  11   1.0000      -0.840286       -22.8654 
  12   1.0000      -0.814441       -22.1621 
  13   1.0000      -0.741127       -20.1671 
  14   1.0000      -0.701224       -19.0813 
  15   1.0000      -0.674054       -18.3419 
  16   1.0000      -0.650805       -17.7093 
  17   1.0000      -0.648582       -17.6488 
  18   1.0000      -0.638887       -17.3850 
  19   1.0000      -0.597967       -16.2715 
  20   1.0000      -0.588850       -16.0234 
  21   1.0000      -0.575039       -15.6476 
  22   1.0000      -0.563589       -15.3360 
  23   1.0000      -0.488092       -13.2817 
  24   1.0000      -0.485883       -13.2216 
  25   0.0000      -0.241813        -6.5801 
  26   0.0000      -0.214355        -5.8329 
  27   0.0000      -0.093196        -2.5360 
  28   0.0000      -0.073952        -2.0123 
  29   0.0000      -0.064387        -1.7521 
  30   0.0000      -0.056972        -1.5503 
  31   0.0000      -0.032273        -0.8782 
  32   0.0000      -0.011061        -0.3010 
  33   0.0000      -0.009381        -0.2553 
  34   0.0000       0.001259         0.0343 
  35   0.0000       0.017301         0.4708 

                 SPIN DOWN ORBITALS
  NO   OCC          E(Eh)            E(eV) 
   0   1.0000     -10.493238      -285.5355 
   1   1.0000     -10.472316      -284.9662 
   2   1.0000     -10.453394      -284.4513 
   3   1.0000     -10.453359      -284.4504 
   4   1.0000     -10.450169      -284.3636 
   5   1.0000     -10.450133      -284.3626 
   6   1.0000     -10.412981      -283.3516 
   7   1.0000      -1.098709       -29.8974 
   8   1.0000      -1.004780       -27.3415 
   9   1.0000      -0.982460       -26.7341 
  10   1.0000      -0.904352       -24.6087 
  11   1.0000      -0.834346       -22.7037 
  12   1.0000      -0.807148       -21.9636 
  13   1.0000      -0.737254       -20.0617 
  14   1.0000      -0.697112       -18.9694 
  15   1.0000      -0.670117       -18.2348 
  16   1.0000      -0.650154       -17.6916 
  17   1.0000      -0.634234       -17.2584 
  18   1.0000      -0.624230       -16.9862 
  19   1.0000      -0.596013       -16.2183 
  20   1.0000      -0.572961       -15.5911 
  21   1.0000      -0.561546       -15.2804 
  22   1.0000      -0.560368       -15.2484 
  23   1.0000      -0.480693       -13.0803 
  24   0.0000      -0.384314       -10.4577 
  25   0.0000      -0.199888        -5.4392 
  26   0.0000      -0.199781        -5.4363 
  27   0.0000      -0.091389        -2.4868 
  28   0.0000      -0.063966        -1.7406 
  29   0.0000      -0.056741        -1.5440 
  30   0.0000      -0.054617        -1.4862 
  31   0.0000      -0.028660        -0.7799 
  32   0.0000      -0.010684        -0.2907 
  33   0.0000      -0.000840        -0.0229 
  34   0.0000       0.002876         0.0783 
*Only the first 10 virtual orbitals were printed.

                    ********************************
                    * MULLIKEN POPULATION ANALYSIS *
                    ********************************

--------------------------------------------
MULLIKEN ATOMIC CHARGES AND SPIN POPULATIONS
--------------------------------------------
   0 C :    0.011697    0.494208
   1 C :   -0.054600   -0.055701
   2 C :   -0.048348    0.083965
   3 C :   -0.002874    0.419812
   4 C :   -0.304278   -0.014885
   5 H :    0.202188    0.008318
   6 H :    0.202460    0.008725
   7 H :    0.229403    0.058305
   8 C :   -0.048468    0.083293
   9 C :   -0.054503   -0.055079
  10 H :    0.175880    0.000925
  11 H :    0.162892   -0.005010
  12 H :    0.162888   -0.005034
  13 H :    0.175874    0.000949
  14 H :    0.189789   -0.022791
Sum of atomic charges         :    1.0000000
Sum of atomic spin populations:    1.0000000

-----------------------------------------------------
MULLIKEN REDUCED ORBITAL CHARGES AND SPIN POPULATIONS
-----------------------------------------------------
CHARGE
  0 C s       :     3.213492  s :     3.213492
      pz      :     0.753406  p :     2.735918
      px      :     0.989734
      py      :     0.992779
      dz2     :     0.003462  d :     0.038892
      dxz     :     0.002485
      dyz     :     0.006947
      dx2y2   :     0.015274
      dxy     :     0.010723

  1 C s       :     3.205855  s :     3.205855
      pz      :     0.901359  p :     2.811851
      px      :     0.968185
      py      :     0.942307
      dz2     :     0.003466  d :     0.036894
      dxz     :     0.004682
      dyz     :     0.002991
      dx2y2   :     0.011428
      dxy     :     0.014327

  2 C s       :     3.238713  s :     3.238713
      pz      :     0.897471  p :     2.773592
      px      :     0.943516
      py      :     0.932605
      dz2     :     0.003470  d :     0.036043
      dxz     :     0.004724
      dyz     :     0.002555
      dx2y2   :     0.010793
      dxy     :     0.014501

  3 C s       :     3.074180  s :     3.074180
      pz      :     0.745602  p :     2.880885
      px      :     1.106937
      py      :     1.028346
      dz2     :     0.003040  d :     0.047809
      dxz     :     0.007499
      dyz     :     0.007146
      dx2y2   :     0.014166
      dxy     :     0.015958

  4 C s       :     3.119558  s :     3.119558
      pz      :     1.099327  p :     3.154432
      px      :     0.933434
      py      :     1.121672
      dz2     :     0.007075  d :     0.030287
      dxz     :     0.003973
      dyz     :     0.004570
      dx2y2   :     0.008664
      dxy     :     0.006006

  5 H s       :     0.797812  s :     0.797812

  6 H s       :     0.797540  s :     0.797540

  7 H s       :     0.770597  s :     0.770597

  8 C s       :     3.238544  s :     3.238544
      pz      :     0.897652  p :     2.773884
      px      :     0.943482
      py      :     0.932750
      dz2     :     0.003470  d :     0.036040
      dxz     :     0.004720
      dyz     :     0.002555
      dx2y2   :     0.010797
      dxy     :     0.014499

  9 C s       :     3.205939  s :     3.205939
      pz      :     0.901099  p :     2.811666
      px      :     0.968278
      py      :     0.942289
      dz2     :     0.003466  d :     0.036898
      dxz     :     0.004684
      dyz     :     0.002992
      dx2y2   :     0.011426
      dxy     :     0.014329

 10 H s       :     0.824120  s :     0.824120

 11 H s       :     0.837108  s :     0.837108

 12 H s       :     0.837112  s :     0.837112

 13 H s       :     0.824126  s :     0.824126

 14 H s       :     0.810211  s :     0.810211


SPIN
  0 C s       :     0.064692  s :     0.064692
      pz      :     0.400032  p :     0.430699
      px      :     0.020517
      py      :     0.010150
      dz2     :    -0.001434  d :    -0.001184
      dxz     :     0.000019
      dyz     :     0.000078
      dx2y2   :     0.000110
      dxy     :     0.000043

  1 C s       :    -0.015399  s :    -0.015399
      pz      :    -0.018708  p :    -0.043212
      px      :    -0.007435
      py      :    -0.017069
      dz2     :    -0.000018  d :     0.002910
      dxz     :     0.001474
      dyz     :     0.001397
      dx2y2   :     0.000002
      dxy     :     0.000055

  2 C s       :     0.003733  s :     0.003733
      pz      :     0.088770  p :     0.078800
      px      :     0.001696
      py      :    -0.011666
      dz2     :    -0.000369  d :     0.001433
      dxz     :     0.000476
      dyz     :     0.001303
      dx2y2   :    -0.000014
      dxy     :     0.000036

  3 C s       :     0.048722  s :     0.048722
      pz      :     0.344163  p :     0.369964
      px      :     0.018458
      py      :     0.007342
      dz2     :    -0.001203  d :     0.001127
      dxz     :     0.001309
      dyz     :     0.000782
      dx2y2   :     0.000094
      dxy     :     0.000144

  4 C s       :    -0.010304  s :    -0.010304
      pz      :     0.012121  p :    -0.007883
      px      :    -0.015834
      py      :    -0.004170
      dz2     :     0.000392  d :     0.003302
      dxz     :     0.002757
      dyz     :     0.000092
      dx2y2   :     0.000093
      dxy     :    -0.000032

  5 H s       :     0.008318  s :     0.008318

  6 H s       :     0.008725  s :     0.008725

  7 H s       :     0.058305  s :     0.058305

  8 C s       :     0.003625  s :     0.003625
      pz      :     0.088286  p :     0.078230
      px      :     0.001642
      py      :    -0.011698
      dz2     :    -0.000368  d :     0.001438
      dxz     :     0.000481
      dyz     :     0.001302
      dx2y2   :    -0.000014
      dxy     :     0.000036

  9 C s       :    -0.015307  s :    -0.015307
      pz      :    -0.018230  p :    -0.042677
      px      :    -0.007393
      py      :    -0.017054
      dz2     :    -0.000020  d :     0.002906
      dxz     :     0.001470
      dyz     :     0.001399
      dx2y2   :     0.000002
      dxy     :     0.000055

 10 H s       :     0.000925  s :     0.000925

 11 H s       :    -0.005010  s :    -0.005010

 12 H s       :    -0.005034  s :    -0.005034

 13 H s       :     0.000949  s :     0.000949

 14 H s       :    -0.022791  s :    -0.022791



                     *******************************
                     * LOEWDIN POPULATION ANALYSIS *
                     *******************************

-------------------------------------------
LOEWDIN ATOMIC CHARGES AND SPIN POPULATIONS
-------------------------------------------
   0 C :    0.045772    0.405074
   1 C :   -0.067753   -0.006898
   2 C :   -0.053094    0.098741
   3 C :    0.103044    0.340060
   4 C :   -0.315037    0.020079
   5 H :    0.170821    0.007886
   6 H :    0.171133    0.008234
   7 H :    0.203901    0.050068
   8 C :   -0.053240    0.098267
   9 C :   -0.067576   -0.006434
  10 H :    0.173005    0.000484
  11 H :    0.169579   -0.002570
  12 H :    0.169574   -0.002583
  13 H :    0.172994    0.000496
  14 H :    0.176877   -0.010905

----------------------------------------------------
LOEWDIN REDUCED ORBITAL CHARGES AND SPIN POPULATIONS
----------------------------------------------------
CHARGE
  0 C s       :     2.920126  s :     2.920126
      pz      :     0.742794  p :     2.942211
      px      :     1.106165
      py      :     1.093252
      dz2     :     0.007065  d :     0.091892
      dxz     :     0.003456
      dyz     :     0.013752
      dx2y2   :     0.038329
      dxy     :     0.029290

  1 C s       :     2.900333  s :     2.900333
      pz      :     0.899969  p :     3.075801
      px      :     1.090090
      py      :     1.085742
      dz2     :     0.007436  d :     0.091619
      dxz     :     0.009167
      dyz     :     0.005007
      dx2y2   :     0.032119
      dxy     :     0.037891

  2 C s       :     2.904462  s :     2.904462
      pz      :     0.899410  p :     3.058952
      px      :     1.086403
      py      :     1.073139
      dz2     :     0.007333  d :     0.089680
      dxz     :     0.008937
      dyz     :     0.004370
      dx2y2   :     0.030497
      dxy     :     0.038543

  3 C s       :     2.877952  s :     2.877952
      pz      :     0.717199  p :     2.905868
      px      :     1.091803
      py      :     1.096866
      dz2     :     0.007120  d :     0.113136
      dxz     :     0.012995
      dyz     :     0.013751
      dx2y2   :     0.038148
      dxy     :     0.041122

  4 C s       :     2.937886  s :     2.937886
      pz      :     1.118378  p :     3.305720
      px      :     1.036126
      py      :     1.151217
      dz2     :     0.014994  d :     0.071432
      dxz     :     0.009594
      dyz     :     0.010248
      dx2y2   :     0.022170
      dxy     :     0.014425

  5 H s       :     0.829179  s :     0.829179

  6 H s       :     0.828867  s :     0.828867

  7 H s       :     0.796099  s :     0.796099

  8 C s       :     2.904443  s :     2.904443
      pz      :     0.899598  p :     3.059120
      px      :     1.086365
      py      :     1.073157
      dz2     :     0.007333  d :     0.089677
      dxz     :     0.008930
      dyz     :     0.004369
      dx2y2   :     0.030507
      dxy     :     0.038537

  9 C s       :     2.900362  s :     2.900362
      pz      :     0.899722  p :     3.075593
      px      :     1.090123
      py      :     1.085748
      dz2     :     0.007435  d :     0.091621
      dxz     :     0.009169
      dyz     :     0.005009
      dx2y2   :     0.032114
      dxy     :     0.037893

 10 H s       :     0.826995  s :     0.826995

 11 H s       :     0.830421  s :     0.830421

 12 H s       :     0.830426  s :     0.830426

 13 H s       :     0.827006  s :     0.827006

 14 H s       :     0.823123  s :     0.823123


SPIN
  0 C s       :     0.014447  s :     0.014447
      pz      :     0.375714  p :     0.393156
      px      :     0.011257
      py      :     0.006185
      dz2     :    -0.001515  d :    -0.002528
      dxz     :    -0.000276
      dyz     :    -0.000355
      dx2y2   :    -0.000063
      dxy     :    -0.000318

  1 C s       :    -0.002377  s :    -0.002377
      pz      :    -0.006632  p :    -0.011605
      px      :    -0.000236
      py      :    -0.004738
      dz2     :     0.000070  d :     0.007084
      dxz     :     0.003581
      dyz     :     0.002809
      dx2y2   :     0.000282
      dxy     :     0.000341

  2 C s       :     0.001686  s :     0.001686
      pz      :     0.091918  p :     0.093245
      px      :     0.003691
      py      :    -0.002364
      dz2     :    -0.000341  d :     0.003810
      dxz     :     0.001466
      dyz     :     0.002469
      dx2y2   :     0.000057
      dxy     :     0.000159

  3 C s       :     0.010889  s :     0.010889
      pz      :     0.314577  p :     0.326925
      px      :     0.009024
      py      :     0.003324
      dz2     :    -0.001218  d :     0.002246
      dxz     :     0.002234
      dyz     :     0.001185
      dx2y2   :     0.000082
      dxy     :    -0.000037

  4 C s       :    -0.001813  s :    -0.001813
      pz      :     0.022059  p :     0.013967
      px      :    -0.006219
      py      :    -0.001873
      dz2     :     0.001001  d :     0.007925
      dxz     :     0.006200
      dyz     :     0.000133
      dx2y2   :     0.000549
      dxy     :     0.000041

  5 H s       :     0.007886  s :     0.007886

  6 H s       :     0.008234  s :     0.008234

  7 H s       :     0.050068  s :     0.050068

  8 C s       :     0.001666  s :     0.001666
      pz      :     0.091478  p :     0.092778
      px      :     0.003675
      py      :    -0.002375
      dz2     :    -0.000339  d :     0.003823
      dxz     :     0.001476
      dyz     :     0.002468
      dx2y2   :     0.000058
      dxy     :     0.000160

  9 C s       :    -0.002360  s :    -0.002360
      pz      :    -0.006202  p :    -0.011148
      px      :    -0.000215
      py      :    -0.004732
      dz2     :     0.000068  d :     0.007074
      dxz     :     0.003572
      dyz     :     0.002812
      dx2y2   :     0.000281
      dxy     :     0.000341

 10 H s       :     0.000484  s :     0.000484

 11 H s       :    -0.002570  s :    -0.002570

 12 H s       :    -0.002583  s :    -0.002583

 13 H s       :     0.000496  s :     0.000496

 14 H s       :    -0.010905  s :    -0.010905



                      *****************************
                      * MAYER POPULATION ANALYSIS *
                      *****************************

  NA   - Mulliken gross atomic population
  ZA   - Total nuclear charge
  QA   - Mulliken gross atomic charge
  VA   - Mayer's total valence
  BVA  - Mayer's bonded valence
  FA   - Mayer's free valence

  ATOM       NA         ZA         QA         VA         BVA        FA
  0 C      5.9883     6.0000     0.0117     3.7490     3.5822     0.1669
  1 C      6.0546     6.0000    -0.0546     3.8391     3.8372     0.0018
  2 C      6.0483     6.0000    -0.0483     3.8246     3.8146     0.0100
  3 C      6.0029     6.0000    -0.0029     3.9070     3.7818     0.1251
  4 C      6.3043     6.0000    -0.3043     3.8576     3.8562     0.0015
  5 H      0.7978     1.0000     0.2022     0.9419     0.9418     0.0001
  6 H      0.7975     1.0000     0.2025     0.9416     0.9416     0.0001
  7 H      0.7706     1.0000     0.2294     0.9251     0.9217     0.0034
  8 C      6.0485     6.0000    -0.0485     3.8251     3.8152     0.0100
  9 C      6.0545     6.0000    -0.0545     3.8389     3.8371     0.0018
 10 H      0.8241     1.0000     0.1759     0.9412     0.9412     0.0000
 11 H      0.8371     1.0000     0.1629     0.9525     0.9524     0.0000
 12 H      0.8371     1.0000     0.1629     0.9524     0.9524     0.0000
 13 H      0.8241     1.0000     0.1759     0.9412     0.9412     0.0000
 14 H      0.8102     1.0000     0.1898     0.9360     0.9354     0.0005

  Mayer bond orders larger than 0.100000
B(  0-C ,  1-C ) :   1.2314 B(  0-C ,  9-C ) :   1.2313 B(  0-C , 14-H ) :   0.9428 
B(  1-C ,  2-C ) :   1.5448 B(  1-C , 13-H ) :   0.9512 B(  2-C ,  3-C ) :   1.1971 
B(  2-C , 12-H ) :   0.9545 B(  3-C ,  4-C ) :   1.1529 B(  3-C ,  8-C ) :   1.1979 
B(  4-C ,  5-H ) :   0.9192 B(  4-C ,  6-H ) :   0.9188 B(  4-C ,  7-H ) :   0.8543 
B(  8-C ,  9-C ) :   1.5447 B(  8-C , 11-H ) :   0.9544 B(  9-C , 10-H ) :   0.9512 


-------
TIMINGS
-------

Total SCF time: 0 days 0 hours 0 min 47 sec 

Total time                  ....      47.221 sec
Sum of individual times     ....      45.724 sec  ( 96.8%)

SCF preparation             ....       0.707 sec  (  1.5%)
Fock matrix formation       ....      29.073 sec  ( 61.6%)
  Startup                   ....       3.023 sec  ( 10.4% of F)
  Split-RI-J                ....       3.496 sec  ( 12.0% of F)
  Chain of spheres X        ....      10.785 sec  ( 37.1% of F)
  XC integration            ....       5.787 sec  ( 19.9% of F)
    XC Preparation          ....       0.000 sec  (  0.0% of XC)
    Basis function eval.    ....       0.849 sec  ( 14.7% of XC)
    Density eval.           ....       0.630 sec  ( 10.9% of XC)
    XC-Functional eval.     ....       0.307 sec  (  5.3% of XC)
    XC-Potential eval.      ....       1.012 sec  ( 17.5% of XC)
Diagonalization             ....       0.000 sec  (  0.0%)
Density matrix formation    ....       5.491 sec  ( 11.6%)
Total Energy calculation    ....       2.189 sec  (  4.6%)
Population analysis         ....       0.529 sec  (  1.1%)
Orbital Transformation      ....       0.553 sec  (  1.2%)
Orbital Orthonormalization  ....       0.000 sec  (  0.0%)
DIIS solution               ....       4.476 sec  (  9.5%)
SOSCF solution              ....       2.707 sec  (  5.7%)
Finished LeanSCF after  47.6 sec

Maximum memory used throughout the entire LEANSCF-calculation: 13.8 MB


           ************************************************************
           *        Program running with 4 parallel MPI-processes     *
           *              working on a common directory               *
           ************************************************************

------------------------------------------------------------------------------
                         ORCA PROPERTY INTEGRAL CALCULATIONS
------------------------------------------------------------------------------

GBWName                                   ... cs_rporg_008_ox_opt_01.gbw
Number of atoms                           ...     15
Number of basis functions                 ...    114
Max core memory                           ...   3000 MB

Dipole integrals                          ... YES
Quadrupole integrals                      ...  NO
Linear momentum integrals                 ...  NO
Angular momentum integrals                ...  NO
Higher moments length integrals           ...  NO
Higher moments velocity integrals         ...  NO
Kinetic energy integrals                  ...  NO
GIAO right hand sides                     ...  NO
GIAO dipole derivative integrals          ...  NO
SOC integrals                             ...  NO
EPR diamagnetic integrals (GIAO)          ...  NO
EPR gauge integrals                       ...  NO
Field gradient integrals                  ...  NO (   0 nuclei)
Spin-dipole/Fermi contact integrals       ...  NO (   0 nuclei)
Contact density integrals                 ...  NO (   0 nuclei)
Nucleus-orbit integrals                   ...  NO (   0 nuclei)
Geometric perturbations                   ...  NO (  15 nuclei)

Choice of electric origin   ... Center of mass
Position of electric origin ... ( -0.0057,  0.0002,  0.0024) 
Choice of magnetic origin   ... GIAO
Position of magnetic origin ... (  0.0000,  0.0000,  0.0000) 

Calculating integrals                     ... Electric Dipole (Length)     done (  0.0 sec)

Property integrals calculated in   0.0 sec

Maximum memory used throughout the entire PROPINT-calculation: 8.1 MB


-------------------------------------------------------------------------------
                          DFT DISPERSION CORRECTION                            
                                                                               
                              DFTD3 V3.1  Rev 1                                
                          USING Becke-Johnson damping                          
-------------------------------------------------------------------------------
The PBE0 functional is recognized
Active option DFTDOPT                   ...         4   

molecular C6(AA) [au] = 2349.757745 


            DFT-D V3
 parameters
 s6 scaling factor         :     1.0000 
 a1 scaling factor         :     0.4145 
 s8 scaling factor         :     1.2177 
 a2 scaling factor         :     4.8593 
 ad hoc parameters k1-k3   :    16.0000     1.3333    -4.0000 

 Edisp/kcal,au: -7.685830310355  -0.012248148926 
 E6   /kcal   :  -4.811148449 
 E8   /kcal   :  -2.874681861 
 % E8         :  37.402359214 

-------------------------   ----------------
Dispersion correction           -0.012248149
-------------------------   ----------------


-------------------------   --------------------
FINAL SINGLE POINT ENERGY      -270.713976200720
-------------------------   --------------------



           ************************************************************
           *        Program running with 4 parallel MPI-processes     *
           *              working on a common directory               *
           ************************************************************
------------------------------------------------------------------------------
                         ORCA SCF GRADIENT CALCULATION
------------------------------------------------------------------------------

Nuc. rep. gradient        (SHARK) ... done (  0.0 sec)
HCore & Overlap gradient  (SHARK) ... done (  0.0 sec)
Split-RIJ-J gradient      (SHARK) ... done (  0.4 sec)
COSX-gradient                     ... done (  5.2 sec)
XC gradient                       ... done (  1.2 sec)
Dispersion correction             ... done (  0.1 sec)

-------------------
DISPERSION GRADIENT
-------------------

   1   C   :    0.000232084   -0.000000025   -0.000005345
   2   C   :    0.000180825   -0.000183606   -0.000003673
   3   C   :    0.000005908   -0.000206574    0.000005661
   4   C   :   -0.000157588    0.000000039    0.000006647
   5   C   :   -0.000274382    0.000000016   -0.000005251
   6   H   :   -0.000136684    0.000043295   -0.000027673
   7   H   :   -0.000136765   -0.000043133   -0.000028099
   8   H   :   -0.000146470   -0.000000295    0.000052479
   9   C   :    0.000006027    0.000206702    0.000005595
  10   C   :    0.000180819    0.000183568   -0.000003733
  11   H   :    0.000084495    0.000131591   -0.000004917
  12   H   :   -0.000037265    0.000163897    0.000005690
  13   H   :   -0.000037300   -0.000163832    0.000005741
  14   H   :    0.000084466   -0.000131622   -0.000004871
  15   H   :    0.000151830   -0.000000023    0.000001750

Difference to translation invariance:
           :    0.0000000000    0.0000000000    0.0000000000

Difference to rotation invariance:
           :   -0.0000000000   -0.0000000000   -0.0000000000

Norm of the Dispersion gradient    ...    0.0007535891
RMS gradient                       ...    0.0001123384
MAX gradient                       ...    0.0002743822

------------------
CARTESIAN GRADIENT
------------------

   1   C   :   -0.002730931    0.000034838   -0.000159540
   2   C   :    0.012480798    0.006495800   -0.003614164
   3   C   :   -0.012766615    0.003296503    0.001496956
   4   C   :    0.005807136   -0.000017262    0.004832904
   5   C   :   -0.001592036    0.000016052   -0.003669541
   6   H   :    0.003052452   -0.005748429    0.003943392
   7   H   :    0.003005555    0.005706157    0.004020215
   8   H   :    0.003838635    0.000014427   -0.007886790
   9   C   :   -0.012755712   -0.003282128    0.001494180
  10   C   :    0.012516638   -0.006520644   -0.003620529
  11   H   :   -0.005302833   -0.009006598   -0.000217859
  12   H   :    0.005138810   -0.008786869    0.000632348
  13   H   :    0.005140853    0.008788723    0.000625230
  14   H   :   -0.005299619    0.009007249   -0.000223019
  15   H   :   -0.010533130    0.000002181    0.002346218

Difference to translation invariance:
           :    0.0000000000    0.0000000000   -0.0000000000

Difference to rotation invariance:
           :    0.0000001030    0.0000309324   -0.0000001748

Norm of the Cartesian gradient     ...    0.0398921017
RMS gradient                       ...    0.0059467634
MAX gradient                       ...    0.0127666150

-------
TIMINGS
-------

Total SCF gradient time     ....        6.830 sec

Densities                   ....       0.000 sec  (  0.0%)
One electron gradient       ....       0.048 sec  (  0.7%)
RI-J Coulomb gradient       ....       0.380 sec  (  5.6%)
COSX gradient               ....       5.163 sec  ( 75.6%)
XC gradient                 ....       1.171 sec  ( 17.1%)

Maximum memory used throughout the entire SCFGRAD-calculation: 27.9 MB
------------------------------------------------------------------------------
                         ORCA GEOMETRY RELAXATION STEP
------------------------------------------------------------------------------

Reading the OPT-File                    .... done
Getting information on internals        .... done
Copying old internal coords+grads       .... done
Making the new internal coordinates     .... (2022 redundants) done
Validating the new internal coordinates .... (2022 redundants) done
Calculating the B-matrix                .... done
Calculating the G,G- and P matrices     .... done
Transforming gradient to internals      .... done
Projecting the internal gradient        .... done
Number of atoms                         ....  15
Number of internal coordinates          ....  68
Current Energy                          ....  -270.713976201 Eh
Current gradient norm                   ....     0.039892102 Eh/bohr
Maximum allowed component of the step   ....  0.300
Current trust radius                    ....  0.300
Evaluating the initial hessian          ....  (Almloef) done
Projecting the Hessian                  .... done
Forming the augmented Hessian           .... done
Diagonalizing the augmented Hessian     .... done
Last element of RFO vector              ....  0.978996581
Lowest eigenvalues of augmented Hessian:
 -0.004687837  0.017104029  0.020679426  0.022372613  0.024757686
Length of the computed step             ....  0.208250642
The final length of the internal step   ....  0.208250642
Converting the step to Cartesian space:
 Initial RMS(Int)=    0.0252540998
Transforming coordinates:
 Iter   0:  RMS(Cart)=    0.0347731345 RMS(Int)=    0.0251828942
done
Storing new coordinates                 .... done

                                .--------------------.
          ----------------------|Geometry convergence|-------------------------
          Item                value                   Tolerance       Converged
          ---------------------------------------------------------------------
          RMS gradient        0.0051034767            0.0001000000      NO
          MAX gradient        0.0160624153            0.0003000000      NO
          RMS step            0.0252540998            0.0020000000      NO
          MAX step            0.0683367496            0.0040000000      NO
          ........................................................
          Max(Bonds)      0.0146      Max(Angles)    0.33
          Max(Dihed)        3.92      Max(Improp)    0.00
          ---------------------------------------------------------------------

The optimization has not yet converged - more geometry cycles are needed


    ---------------------------------------------------------------------------
                         Redundant Internal Coordinates
                            (Angstroem and degrees)

        Definition                    Value    dE/dq     Step     New-Value
    ----------------------------------------------------------------------------
     1. B(C   1,C   0)                1.4038 -0.016019  0.0143    1.4181   
     2. B(C   2,C   1)                1.3726  0.000745 -0.0006    1.3720   
     3. B(C   3,C   2)                1.4206 -0.014723  0.0137    1.4343   
     4. B(C   4,C   3)                1.4609 -0.008036  0.0087    1.4696   
     5. B(H   5,C   4)                1.0907 -0.007550  0.0110    1.1017   
     6. B(H   6,C   4)                1.0909 -0.007538  0.0110    1.1018   
     7. B(H   7,C   4)                1.1041 -0.008739  0.0133    1.1174   
     8. B(C   8,C   3)                1.4206 -0.014688  0.0136    1.4342   
     9. B(C   9,C   8)                1.3727  0.000755 -0.0006    1.3721   
    10. B(C   9,C   0)                1.4038 -0.016062  0.0143    1.4181   
    11. B(H  10,C   9)                1.0792 -0.010439  0.0146    1.0937   
    12. B(H  11,C   8)                1.0799 -0.010145  0.0142    1.0941   
    13. B(H  12,C   2)                1.0799 -0.010147  0.0142    1.0941   
    14. B(H  13,C   1)                1.0792 -0.010438  0.0146    1.0937   
    15. B(H  14,C   0)                1.0811 -0.010322  0.0145    1.0956   
    16. A(C   1,C   0,H  14)          119.47  0.000582   -0.08    119.39   
    17. A(C   9,C   0,H  14)          119.47  0.000581   -0.08    119.39   
    18. A(C   1,C   0,C   9)          120.92 -0.001215    0.26    121.18   
    19. A(C   0,C   1,H  13)          119.92 -0.000610    0.09    120.01   
    20. A(C   2,C   1,H  13)          120.43 -0.000589    0.08    120.51   
    21. A(C   0,C   1,C   2)          119.60  0.001169   -0.11    119.49   
    22. A(C   3,C   2,H  12)          119.27  0.000092   -0.00    119.27   
    23. A(C   1,C   2,H  12)          120.53  0.000133   -0.01    120.52   
    24. A(C   1,C   2,C   3)          120.17 -0.000233    0.02    120.20   
    25. A(C   2,C   3,C   4)          120.35  0.000340    0.03    120.38   
    26. A(C   4,C   3,C   8)          120.37  0.000342    0.03    120.40   
    27. A(C   2,C   3,C   8)          119.16 -0.000768    0.13    119.29   
    28. A(C   3,C   4,H   7)          107.06 -0.001320    0.31    107.37   
    29. A(H   5,C   4,H   6)          111.84  0.000971   -0.33    111.51   
    30. A(C   3,C   4,H   6)          112.82 -0.000178   -0.00    112.82   
    31. A(H   6,C   4,H   7)          105.78  0.000017    0.11    105.89   
    32. A(C   3,C   4,H   5)          112.83 -0.000047   -0.04    112.80   
    33. A(H   5,C   4,H   7)          105.88  0.000478   -0.01    105.87   
    34. A(C   3,C   8,C   9)          120.17 -0.000223    0.02    120.19   
    35. A(C   9,C   8,H  11)          120.53  0.000125   -0.01    120.52   
    36. A(C   3,C   8,H  11)          119.27  0.000089   -0.00    119.27   
    37. A(C   0,C   9,H  10)          119.92 -0.000603    0.08    120.01   
    38. A(C   0,C   9,C   8)          119.60  0.001156   -0.11    119.49   
    39. A(C   8,C   9,H  10)          120.43 -0.000583    0.08    120.51   
    40. D(C   2,C   1,C   0,H  14)    170.54 -0.001805    3.48    174.02   
    41. D(C   2,C   1,C   0,C   9)     -5.02 -0.001060    2.00     -3.02   
    42. D(H  13,C   1,C   0,C   9)    177.52 -0.000273    0.60    178.12   
    43. D(H  13,C   1,C   0,H  14)     -6.93 -0.001018    2.09     -4.84   
    44. D(C   3,C   2,C   1,C   0)      4.98  0.000799   -1.39      3.59   
    45. D(C   3,C   2,C   1,H  13)   -177.57  0.000007    0.01   -177.56   
    46. D(H  12,C   2,C   1,C   0)   -177.04  0.000515   -0.86   -177.90   
    47. D(H  12,C   2,C   1,H  13)      0.41 -0.000277    0.54      0.95   
    48. D(C   8,C   3,C   2,H  12)    177.04 -0.000123    0.25    177.29   
    49. D(C   8,C   3,C   2,C   1)     -4.95 -0.000403    0.78     -4.18   
    50. D(C   4,C   3,C   2,H  12)     -7.02 -0.001490    3.39     -3.63   
    51. D(C   4,C   3,C   2,C   1)    170.98 -0.001770    3.91    174.90   
    52. D(H   6,C   4,C   3,C   2)    -24.22  0.001211   -1.54    -25.76   
    53. D(H   5,C   4,C   3,C   8)     23.71 -0.001371    2.14     25.85   
    54. D(H   5,C   4,C   3,C   2)   -152.18  0.000059   -1.04   -153.22   
    55. D(H   7,C   4,C   3,C   2)     91.74  0.000320   -1.21     90.53   
    56. D(H   6,C   4,C   3,C   8)    151.66 -0.000218    1.64    153.31   
    57. D(H  11,C   8,C   3,C   4)      7.02  0.001493   -3.40      3.63   
    58. D(H  11,C   8,C   3,C   2)   -177.04  0.000125   -0.26   -177.30   
    59. D(C   9,C   8,C   3,C   4)   -170.98  0.001772   -3.92   -174.89   
    60. D(C   9,C   8,C   3,C   2)      4.96  0.000404   -0.78      4.18   
    61. D(H  10,C   9,C   8,H  11)     -0.41  0.000276   -0.54     -0.95   
    62. D(H  10,C   9,C   8,C   3)    177.57 -0.000007   -0.01    177.55   
    63. D(C   0,C   9,C   8,H  11)    177.04 -0.000517    0.86    177.91   
    64. D(C   0,C   9,C   8,C   3)     -4.98 -0.000801    1.39     -3.59   
    65. D(H  10,C   9,C   0,H  14)      6.93  0.001016   -2.09      4.85   
[...]
     29      -0.004273  -0.000036   0.000058   0.000047   0.000243   0.000159
     30       0.189319  -0.000789  -0.000885   0.000075  -0.193844  -0.145303
     31      -0.265814  -0.000125  -0.000999  -0.000013  -0.323318  -0.246444
     32       0.001199  -0.000419   0.000373   0.000516  -0.002629  -0.002112
     33      -0.232451  -0.001470  -0.003709   0.006346  -0.228950  -0.327040
     34      -0.288783   0.001476   0.004404  -0.008059   0.386952   0.551426
     35      -0.000055   0.000298  -0.000427   0.000383  -0.003776  -0.005392
     36      -0.231967  -0.001463  -0.003662  -0.006576  -0.223888   0.327985
     37       0.288642  -0.001480  -0.004362  -0.008374  -0.378508   0.553176
     38       0.000494   0.000291  -0.000423  -0.000407  -0.004434   0.006490
     39       0.189653  -0.000789  -0.000887  -0.000135  -0.191961   0.148756
     40       0.265725   0.000129   0.001006   0.000082   0.320015  -0.252059
     41       0.001727  -0.000428   0.000399  -0.000515  -0.001979   0.001668
     42       0.143020  -0.001227   0.000330   0.000020   0.561639  -0.007243
     43      -0.000357  -0.000001  -0.000001   0.000144   0.000040   0.001596
     44       0.006315   0.000263  -0.000217   0.000002   0.008468  -0.000109
                 42         43         44    
      0       0.063293   0.000093   0.036779
      1       0.000015  -0.004648   0.000007
      2       0.000981  -0.000003   0.000559
      3      -0.005404  -0.031606   0.028407
      4       0.000662   0.048517  -0.046704
      5      -0.000061  -0.000324   0.000278
      6       0.022732   0.016861  -0.014770
      7       0.037088   0.021217  -0.019075
      8       0.000408   0.000296  -0.000239
      9       0.001204   0.000000  -0.001275
     10      -0.000015  -0.001562   0.000004
     11       0.000050  -0.000002  -0.000064
     12       0.000277   0.000003  -0.000025
     13       0.000016   0.000639  -0.000003
     14       0.000275   0.000002  -0.000079
     15      -0.003015   0.001747   0.001238
     16       0.002606  -0.003406  -0.000702
     17      -0.001667   0.001678   0.000424
     18      -0.003113  -0.001781   0.001261
     19      -0.002806  -0.003480   0.000748
     20      -0.001735  -0.001681   0.000439
     21      -0.001049   0.000006   0.000467
     22       0.000001   0.000330   0.000000
     23       0.000120  -0.000015   0.000212
     24       0.022508  -0.016853  -0.014690
     25      -0.036681   0.021178   0.018955
     26       0.000332  -0.000254  -0.000201
     27      -0.005553   0.031687   0.028316
     28      -0.000950   0.048685   0.046585
     29      -0.000065   0.000419   0.000368
     30       0.022607  -0.331173  -0.304920
     31       0.030886  -0.552046  -0.510750
     32       0.000192  -0.004327  -0.004034
     33      -0.246633   0.148348   0.128271
     34       0.414340  -0.246137  -0.212578
     35      -0.004002   0.002400   0.002094
     36      -0.249289  -0.148556   0.129059
     37      -0.418925  -0.246553   0.213943
     38      -0.004865  -0.002886   0.002526
     39       0.020695   0.330213  -0.305843
     40      -0.027646  -0.550238   0.512116
     41       0.000111   0.003245  -0.003051
     42      -0.720541  -0.001014  -0.397158
     43      -0.000051   0.004505  -0.000027
     44      -0.011026  -0.000011  -0.006022


-----------
IR SPECTRUM
-----------

 Mode   freq       eps      Int      T**2         TX        TY        TZ
       cm**-1   L/(mol*cm) km/mol    a.u.
----------------------------------------------------------------------------
  6:     54.50   0.000743    3.75  0.004253  (-0.000101 -0.065208  0.001143)
  7:    150.36   0.000355    1.79  0.000737  (-0.004404 -0.000083 -0.026790)
  8:    351.02   0.000044    0.22  0.000039  (-0.000013 -0.006246 -0.000035)
  9:    356.75   0.000001    0.00  0.000001  (-0.000007 -0.000812  0.000079)
 10:    390.84   0.000003    0.02  0.000003  ( 0.000903 -0.000018 -0.001406)
 11:    507.09   0.000090    0.46  0.000055  (-0.000073 -0.007449  0.000036)
 12:    516.08   0.000089    0.45  0.000054  ( 0.001337 -0.000055 -0.007230)
 13:    583.02   0.005277   26.67  0.002825  (-0.010211 -0.000037  0.052157)
 14:    741.97   0.006426   32.48  0.002703  ( 0.014096 -0.000072  0.050041)
 15:    793.24   0.000793    4.01  0.000312  ( 0.003813 -0.000061 -0.017245)
 16:    802.89   0.000015    0.07  0.000006  ( 0.000014 -0.002382  0.000182)
 17:    937.48   0.002158   10.91  0.000718  (-0.023126  0.000005  0.013547)
 18:    983.54   0.000114    0.57  0.000036  (-0.000682  0.005960  0.000207)
 19:    995.06   0.005978   30.21  0.001875  (-0.029228 -0.000065  0.031943)
 20:   1001.25   0.003144   15.89  0.000980  (-0.029146  0.000021  0.011424)
 21:   1007.46   0.001576    7.96  0.000488  ( 0.015626 -0.000032  0.015618)
 22:   1026.13   0.000002    0.01  0.000001  (-0.000027  0.000788  0.000059)
 23:   1041.89   0.000039    0.20  0.000012  (-0.002407  0.000008 -0.002401)
 24:   1098.91   0.002723   13.76  0.000773  (-0.000027 -0.027809 -0.000030)
 25:   1159.04   0.000275    1.39  0.000074  (-0.000240  0.008601  0.000011)
 26:   1207.08   0.000203    1.03  0.000053  ( 0.007204 -0.000014 -0.000777)
 27:   1280.00   0.001321    6.68  0.000322  (-0.017907  0.000011  0.001187)
 28:   1306.84   0.001088    5.50  0.000260  ( 0.000962 -0.016088 -0.000148)
 29:   1343.56   0.024851  125.59  0.005772  (-0.071469  0.000307  0.025772)
 30:   1386.27   0.002433   12.30  0.000548  (-0.000162 -0.023401  0.000343)
 31:   1413.50   0.003186   16.10  0.000703  ( 0.000058 -0.026521  0.000271)
 32:   1450.68   0.001264    6.39  0.000272  ( 0.000151 -0.016488 -0.000303)
 33:   1464.17   0.011007   55.62  0.002346  ( 0.045874 -0.000044 -0.015539)
 34:   1485.42   0.030009  151.65  0.006304  ( 0.078813  0.000031  0.009634)
 35:   1560.93   0.010217   51.63  0.002043  (-0.000066  0.045195  0.000045)
 36:   1720.83   0.000105    0.53  0.000019  (-0.004317 -0.000002  0.000680)
 37:   2959.72   0.025164  127.17  0.002653  ( 0.049427 -0.000084 -0.014497)
 38:   3101.60   0.001112    5.62  0.000112  ( 0.000314 -0.000113  0.010572)
 39:   3168.78   0.000517    2.61  0.000051  (-0.000257  0.007129  0.000047)
 40:   3220.86   0.000000    0.00  0.000000  (-0.000034  0.000048 -0.000149)
 41:   3223.42   0.000323    1.63  0.000031  (-0.000035  0.005592  0.000006)
 42:   3227.95   0.000719    3.64  0.000070  (-0.008337 -0.000015 -0.000213)
 43:   3238.79   0.003018   15.25  0.000291  (-0.000021 -0.017054 -0.000017)
 44:   3242.39   0.000900    4.55  0.000087  (-0.009305  0.000029 -0.000059)

* The epsilon (eps) is given for a Dirac delta lineshape.
** The dipole moment derivative (T) already includes vibrational overlap.

The first frequency considered to be a vibration is 6
The total number of vibrations considered is 39


--------------------------
THERMOCHEMISTRY AT 298.15K
--------------------------

Temperature         ...   298.15 K
Pressure            ...     1.00 atm
Total Mass          ...    92.14 AMU
Quasi RRHO          ...     True
Cut-Off Frequency   ...     1.00 cm^-1

Throughout the following assumptions are being made:
  (1) The electronic state is orbitally nondegenerate
      but the spin degeneracy is treated
  (2) There are no thermally accessible electronically excited states
  (3) Hindered rotations indicated by low frequency modes are not
      treated as such but are treated as vibrations and this may
      cause some error
  (4) All equations used are the standard statistical mechanics
      equations for an ideal gas
  (5) All vibrations are strictly harmonic

freq.      54.50  E(vib)   ...       0.52 
freq.     150.36  E(vib)   ...       0.40 
freq.     351.02  E(vib)   ...       0.23 
freq.     356.75  E(vib)   ...       0.22 
freq.     390.84  E(vib)   ...       0.20 
freq.     507.09  E(vib)   ...       0.14 
freq.     516.08  E(vib)   ...       0.13 
freq.     583.02  E(vib)   ...       0.11 
freq.     741.97  E(vib)   ...       0.06 
freq.     793.24  E(vib)   ...       0.05 
freq.     802.89  E(vib)   ...       0.05 
freq.     937.48  E(vib)   ...       0.03 
freq.     983.54  E(vib)   ...       0.02 
freq.     995.06  E(vib)   ...       0.02 
freq.    1001.25  E(vib)   ...       0.02 
freq.    1007.46  E(vib)   ...       0.02 
freq.    1026.13  E(vib)   ...       0.02 
freq.    1041.89  E(vib)   ...       0.02 
freq.    1098.91  E(vib)   ...       0.02 
freq.    1159.04  E(vib)   ...       0.01 
freq.    1207.08  E(vib)   ...       0.01 
freq.    1280.00  E(vib)   ...       0.01 
freq.    1306.84  E(vib)   ...       0.01 
freq.    1343.56  E(vib)   ...       0.01 
freq.    1386.27  E(vib)   ...       0.00 
freq.    1413.50  E(vib)   ...       0.00 
freq.    1450.68  E(vib)   ...       0.00 
freq.    1464.17  E(vib)   ...       0.00 
freq.    1485.42  E(vib)   ...       0.00 
freq.    1560.93  E(vib)   ...       0.00 
freq.    1720.83  E(vib)   ...       0.00 
freq.    2959.72  E(vib)   ...       0.00 
freq.    3101.60  E(vib)   ...       0.00 
freq.    3168.78  E(vib)   ...       0.00 
freq.    3220.86  E(vib)   ...       0.00 
freq.    3223.42  E(vib)   ...       0.00 
freq.    3227.95  E(vib)   ...       0.00 
freq.    3238.79  E(vib)   ...       0.00 
freq.    3242.39  E(vib)   ...       0.00 

------------
INNER ENERGY
------------

The inner energy is: U= E(el) + E(ZPE) + E(vib) + E(rot) + E(trans)
    E(el)   - is the total energy from the electronic structure calculation
              = E(kin-el) + E(nuc-el) + E(el-el) + E(nuc-nuc)
    E(ZPE)  - the the zero temperature vibrational energy from the frequency calculation
    E(vib)  - the the finite temperature correction to E(ZPE) due to population
              of excited vibrational states
    E(rot)  - is the rotational thermal energy
    E(trans)- is the translational thermal energy

Summary of contributions to the inner energy U:
Electronic energy                ...   -270.71736149 Eh
Zero point energy                ...      0.12644129 Eh      79.34 kcal/mol
Thermal vibrational correction   ...      0.00374838 Eh       2.35 kcal/mol
Thermal rotational correction    ...      0.00141627 Eh       0.89 kcal/mol
Thermal translational correction ...      0.00141627 Eh       0.89 kcal/mol
-----------------------------------------------------------------------
Total thermal energy                   -270.58433928 Eh


Summary of corrections to the electronic energy:
(perhaps to be used in another calculation)
Total thermal correction                  0.00658092 Eh       4.13 kcal/mol
Non-thermal (ZPE) correction              0.12644129 Eh      79.34 kcal/mol
-----------------------------------------------------------------------
Total correction                          0.13302221 Eh      83.47 kcal/mol


--------
ENTHALPY
--------

The enthalpy is H = U + kB*T
                kB is Boltzmann's constant
Total thermal energy              ...   -270.58433928 Eh 
Thermal Enthalpy correction       ...      0.00094421 Eh       0.59 kcal/mol
-----------------------------------------------------------------------
Total Enthalpy                    ...   -270.58339507 Eh


Note: Only C1 symmetry has been detected, increase convergence thresholds 
      if your molecule has a higher symmetry. Symmetry factor of 1.0 is   
      used for the rotational entropy correction. 
 

Note: Rotational entropy computed according to Herzberg 
Infrared and Raman Spectra, Chapter V,1, Van Nostrand Reinhold, 1945 
Point Group:  C1, Symmetry Number:   1  
Rotational constants in cm-1:     0.175281     0.085805     0.058230 

Vibrational entropy computed according to the QRRHO of S. Grimme
Chem.Eur.J. 2012 18 9955 using a reference frequency of 100.0 cm-1


-------
ENTROPY
-------

The entropy contributions are T*S = T*(S(el)+S(vib)+S(rot)+S(trans))
     S(el)   - electronic entropy
     S(vib)  - vibrational entropy
     S(rot)  - rotational entropy
     S(trans)- translational entropy
The entropies will be listed as multiplied by the temperature to get
units of energy

Electronic entropy                ...      0.00065446 Eh      0.41 kcal/mol
Vibrational entropy               ...      0.00612566 Eh      3.84 kcal/mol
Rotational entropy                ...      0.01283451 Eh      8.05 kcal/mol
Translational entropy             ...      0.01875532 Eh     11.77 kcal/mol
-----------------------------------------------------------------------
Final entropy term                ...      0.03836995 Eh     24.08 kcal/mol

In case the symmetry of your molecule has not been determined correctly
or in case you have a reason to use a different symmetry number we print 
out the resulting rotational entropy values for sn=1,12:

 non-linear molecules -----------------------------------
|  sn= 1 | S(rot)=       0.01283451 Eh      8.05 kcal/mol|
|  sn= 2 | S(rot)=       0.01218006 Eh      7.64 kcal/mol|
|  sn= 3 | S(rot)=       0.01179722 Eh      7.40 kcal/mol|
|  sn= 4 | S(rot)=       0.01152560 Eh      7.23 kcal/mol|
|  sn= 5 | S(rot)=       0.01131491 Eh      7.10 kcal/mol|
|  sn= 6 | S(rot)=       0.01114277 Eh      6.99 kcal/mol|
|  sn= 7 | S(rot)=       0.01099722 Eh      6.90 kcal/mol|
|  sn= 8 | S(rot)=       0.01087114 Eh      6.82 kcal/mol|
|  sn= 9 | S(rot)=       0.01075993 Eh      6.75 kcal/mol|
|  sn=10 | S(rot)=       0.01066045 Eh      6.69 kcal/mol|
|  sn=11 | S(rot)=       0.01057046 Eh      6.63 kcal/mol|
|  sn=12 | S(rot)=       0.01048831 Eh      6.58 kcal/mol|
 linear molecules ---------------------------------------
|  Dinfh | S(rot)=       0.00801045 Eh      5.03 kcal/mol|
|  Cinfv | S(rot)=       0.00866490 Eh      5.44 kcal/mol|
 --------------------------------------------------------


-------------------
GIBBS FREE ENERGY
-------------------

The Gibbs free energy is G = H - T*S

Total enthalpy                    ...   -270.58339507 Eh 
Total entropy correction          ...     -0.03836995 Eh    -24.08 kcal/mol
-----------------------------------------------------------------------
Final Gibbs free energy         ...   -270.62176502 Eh

For completeness - the Gibbs free energy minus the electronic energy
G-E(el)                           ...      0.09559647 Eh     59.99 kcal/mol


Maximum memory used throughout the entire PROP-calculation: 55.5 MB

--------------------------------
SUGGESTED CITATIONS FOR THIS RUN
--------------------------------

Below you find a list of papers that are relevant to this ORCA run
We neither can nor want to force you to cite these papers, but we appreciate if you do
You receive ORCA, which is the product of decades of hard work by many enthusiastic individuals, for free
The only thing we kindly ask in return is that you cite our papers,
We deeply appreciate it, if you show your appreciation for ORCA by not just citing the generic ORCA reference.

Please note that relegating all ORCA citations to the supporting information does *not* help us.
SI sections are not indexed - citations you put there will not count into any citation statistics
But we need these citations in order to attract the funding resources that allow us to do what we are doing

Therefore, if you are a happy ORCA user, please consider citing a few of the papers listed below in the main body of your paper

In addition to the list printed below, the program has created the file cs_rporg_008_ox_opt_01.bibtex that contains the list in bibtex format
You can import this file easily into all common literature databanks and citation aid programs


List of essential papers. We consider these as the minimum necessary citations

  1. Neese,F.
     Software update: the ORCA program system, version 5.0
     WIRES Comput. Molec. Sci., 2022 12(1)e1606
     doi.org/10.1002/wcms.1606

List of papers to cite with high priority. The work reported in these papers was absolutely
necessary for this run to complete.
Our perspective: the developers of density functionals and basis sets usually get cited in chemistry papers
Good! But without the algorithms to do something with them, the functionals or basis sets would not do anything.
Hence, in our opinion, the algorithm design and method developments papers are equally worthy of getting cited

  1. Neese,F.
     An improvement of the resolution of the identity approximation for the formation of the Coulomb matrix
     J. Comp. Chem., 2003 24(14)1740-1747
     doi.org/10.1002/jcc.10318
  2. Neese,F.; Wennmohs,F.; Hansen,A.; Becker,U.
     Efficient, approximate and parallel Hartree-Fock and hybrid DFT calculations. A 'chain-of-spheres' algorithm for the Hartree-Fock exchange
     Chem. Phys., 2009 356(1-3)98-109
     doi.org/10.1016/j.chemphys.2008.10.036
  3. Bykov,D.; Petrenko,T.; Izsak,R.; Kossmann,S.; Becker,U.; Valeev,E.; Neese,F.
     Efficient implementation of the analytic second derivatives of Hartree-Fock and hybrid DFT energies: a detailed analysis of different approximations
     Molec. Phys., 2015 113 1961-1977
     doi.org/10.1080/00268976.2015.1025114
  4. Helmich-Paris,B.; de Souza,B.; Neese,F.; Izsák,R.
     An improved chain of spheres for exchange algorithm
     J. Chem. Phys., 2021 155 104109
     doi.org/doi: 10.1063/5.0058766.
  5. Neese,F.
     The SHARK Integral Generation and Digestion System
     J. Comp. Chem., 2022  1-16
     doi.org/10.1002/jcc.26942
  6. Grimme,S.; Antony,J.; Ehrlich,S.; Krieg,H.
     A consistent and accurate ab initio parametrization of density functional dispersion correction (DFT-D) for the 94 elements H-Pu
     J. Chem. Phys., 2010 132 154104-XXXX
     doi.org/10.1063/1.3382344
  7. Grimme,S.; Ehrlich,S.; Goerigk,L.
     Effect of the damping function in dispersion corrected density functional theory
     J. Comput. Chem., 2011 32(7)1456-1465
     doi.org/10.1002/jcc.21759

List of suggested additional citations. These are papers that are important in the 'surrounding' of 
of this run, or papers that preceded the highly important papers. If you like your results we are grateful for a citation.

  1. Izsak,R.; Neese,F.
     An overlap fitted chain of spheres exchange method
     J. Chem. Phys., 2011 135 144105
     doi.org/10.1063/1.3646921
  2. Izsak,R.; Hansen,A.; Neese,F.
     The resolution of identity and chain of spheres approximations for the LPNO-CCSD singles Fock term
     Molec. Phys., 2012 110 2413-2417
     doi.org/10.1080/00268976.2012.687466
  3. Neese,F.
     The ORCA program system
     WIRES Comput. Molec. Sci., 2012 2(1)73-78
     doi.org/10.1002/wcms.81
  4. Izsak,R.; Neese,F.; Klopper,W.
     Robust fitting techniques in the chain of spheres approximation to the Fock exchange: The role of the complementary space
     J. Chem. Phys., 2013 139 
     doi.org/10.1063/1.4819264
  5. Neese,F.
     Software update: the ORCA program system, version 4.0
     WIRES Comput. Molec. Sci., 2018 8(1)1-6
     doi.org/10.1002/wcms.1327
  6. Neese,F.; Wennmohs,F.; Becker,U.; Riplinger,C.
     The ORCA quantum chemistry program package
     J. Chem. Phys., 2020 152 Art. No. L224108
     doi.org/10.1063/5.0004608

List of optional additional citations

  1. Neese,F.
     Approximate second-order SCF convergence for spin unrestricted wavefunctions
     Chem. Phys. Lett., 2000 325(1-3)93-98
     doi.org/10.1016/s0009-2614(00)00662-x

Timings for individual modules:

Sum of individual times          ...      423.832 sec (=   7.064 min)
Startup calculation              ...       22.529 sec (=   0.375 min)   5.3 %
SCF iterations                   ...      178.987 sec (=   2.983 min)  42.2 %
Property integrals               ...       35.204 sec (=   0.587 min)   8.3 %
SCF Response                     ...       90.954 sec (=   1.516 min)  21.5 %
Property calculations            ...       54.956 sec (=   0.916 min)  13.0 %
SCF Gradient evaluation          ...       40.844 sec (=   0.681 min)   9.6 %
Geometry relaxation              ...        0.358 sec (=   0.006 min)   0.1 %
                             ****ORCA TERMINATED NORMALLY****
TOTAL RUN TIME: 0 days 0 hours 7 minutes 23 seconds 126 msec
