
                                 *****************
                                 * O   R   C   A *
                                 *****************

                                            #,                                       
                                            ###                                      
                                            ####                                     
                                            #####                                    
                                            ######                                   
                                           ########,                                 
                                     ,,################,,,,,                         
                               ,,#################################,,                 
                          ,,##########################################,,             
                       ,#########################################, ''#####,          
                    ,#############################################,,   '####,        
                  ,##################################################,,,,####,       
                ,###########''''           ''''###############################       
              ,#####''   ,,,,##########,,,,          '''####'''          '####       
            ,##' ,,,,###########################,,,                        '##       
           ' ,,###''''                  '''############,,,                           
         ,,##''                                '''############,,,,        ,,,,,,###''
      ,#''                                            '''#######################'''  
     '                                                          ''''####''''         
             ,#######,   #######,   ,#######,      ##                                
            ,#'     '#,  ##    ##  ,#'     '#,    #''#        ,####,   ,####,        
            ##       ##  ##   ,#'  ##            #'  '#       #'       #'  '#        
            ##       ##  #######   ##           ,######,      #####,   #    #        
            '#,     ,#'  ##    ##  '#,     ,#' ,#      #,     #,   #   #,  ,#        
             '#######'   ##     ##  '#######'  #'      '#     '####' # '####'        



                #########################################################
                #                        -***-                          #
                #          Department of theory and spectroscopy        #
                #                                                       #
                #                      Frank Neese                      #
                #                                                       #
                #     Directorship, Architecture, Infrastructure        #
                #                    SHARK, DRIVERS                     #
                #        Core code/Algorithms in most modules           #
                #                                                       #
                #        Max Planck Institute fuer Kohlenforschung      #
                #                Kaiser Wilhelm Platz 1                 #
                #                 D-45470 Muelheim/Ruhr                 #
                #                      Germany                          #
                #                                                       #
                #                  All rights reserved                  #
                #                        -***-                          #
                #########################################################


                         Program Version 6.0.0  -   RELEASE  -


 With contributions from (in alphabetic order):
   Daniel Aravena         : Magnetic Suceptibility
   Michael Atanasov       : Ab Initio Ligand Field Theory (pilot matlab implementation)
   Alexander A. Auer      : GIAO ZORA, VPT2 properties, NMR spectrum
   Ute Becker             : All parallelization in ORCA, NUMFREQ, NUMCALC
   Giovanni Bistoni       : ED, misc. LED, open-shell LED, HFLD
   Martin Brehm           : Molecular dynamics
   Dmytro Bykov           : pre 5.0 version of the SCF Hessian
   Marcos Casanova-Páez   : Triplet and SCS-CIS(D). UHF-(DLPNO)-IP/EA/STEOM-CCSD. UHF-CVS-IP/STEOM-CCSD
   Vijay G. Chilkuri      : MRCI spin determinant printing, contributions to CSF-ICE
   Pauline Colinet        : FMM embedding
   Dipayan Datta          : RHF DLPNO-CCSD density
   Achintya Kumar Dutta   : EOM-CC, STEOM-CC
   Nicolas Foglia         : Exact transition moments, OPA infrastructure, MCD improvements
   Dmitry Ganyushin       : Spin-Orbit,Spin-Spin,Magnetic field MRCI
   Miquel Garcia          : C-PCM and meta-GGA Hessian, CCSD/C-PCM, Gaussian charge scheme
   Tiago L. C. Gouveia    : GS-ROHF, GS-ROCIS
   Yang Guo               : DLPNO-NEVPT2, F12-NEVPT2, CIM, IAO-localization
   Andreas Hansen         : Spin unrestricted coupled pair/coupled cluster methods
   Ingolf Harden          : AUTO-CI MPn and infrastructure 
   Benjamin Helmich-Paris : MC-RPA, TRAH-(SCF,CASSCF), AVAS, COSX integrals, SCF dyn. polar.
   Lee Huntington         : MR-EOM, pCC
   Robert Izsak           : Overlap fitted RIJCOSX, COSX-SCS-MP3, EOM
   Riya Kayal             : Wick's Theorem for AUTO-CI, AUTO-CI UHF-CCSDT
   Emily Kempfer          : AUTO-CI, RHF CISDT and CCSDT
   Christian Kollmar      : KDIIS, OOCD, Brueckner-CCSD(T), CCSD density, CASPT2, CASPT2-K, improved NEVPT2
   Axel Koslowski         : Symmetry handling
   Simone Kossmann        : Meta GGA functionals, TD-DFT gradient, OOMP2, (MP2 Hessian; deprecated post 5.0)
   Lucas Lang             : DCDCAS
   Marvin Lechner         : AUTO-CI (C++ implementation), FIC-MRCC
   Spencer Leger          : CASSCF response
   Dagmar Lenk            : GEPOL surface, SMD, ORCA-2-JSON
   Dimitrios Liakos       : Extrapolation schemes; Compound Job, initial MDCI parallelization
   Dimitrios Manganas     : Further ROCIS development; embedding schemes. LFT, Crystal Embedding
   Dimitrios Pantazis     : SARC Basis sets
   Anastasios Papadopoulos: AUTO-CI, single reference methods and gradients
   Taras Petrenko         : pre 6.0 DFT Hessian and TD-DFT gradient, (ASA, deprecated), ECA, 1-Electron XAS/XES, NRVS
   Peter Pinski           : DLPNO-MP2, DLPNO-MP2 Gradient
   Christoph Reimann      : Effective Core Potentials
   Marius Retegan         : Local ZFS, SOC
   Christoph Riplinger    : Optimizer, TS searches, QM/MM, DLPNO-CCSD(T), (RO)-DLPNO pert. Triples
   Michael Roemelt        : Original ROCIS implementation
   Masaaki Saitow         : Open-shell DLPNO-CCSD energy and density
   Barbara Sandhoefer     : DKH picture change effects
   Kantharuban Sivalingam : CASSCF convergence/infrastructure, NEVPT2 and variants, FIC-MRCI
   Bernardo de Souza      : ESD, SOC TD-DFT
   Georgi Stoychev        : AutoAux, RI-MP2 NMR, DLPNO-MP2 response, X2C
   Van Anh Tran           : RI-MP2 g-tensors
   Willem Van den Heuvel  : Paramagnetic NMR
   Zikuan Wang            : NOTCH, Electric field optimization 
   Frank Wennmohs         : Technical directorship and infrastructure
   Hang Xu                : AUTO-CI-Response properties 


 We gratefully acknowledge several colleagues who have allowed us to
 interface, adapt or use parts of their codes:
   Stefan Grimme, W. Hujo, H. Kruse, P. Pracht,  : VdW corrections, initial TS optimization,
                  C. Bannwarth, S. Ehlert,         DFT functionals, gCP, sTDA/sTD-DF
                  L. Wittmann, M. Mueller
   Ed Valeev, F. Pavosevic, A. Kumar             : LibInt (2-el integral package), F12 methods
   Garnet Chan, S. Sharma, J. Yang, R. Olivares  : DMRG
   Ulf Ekstrom                                   : XCFun DFT Library
   Mihaly Kallay                                 : mrcc  (arbitrary order and MRCC methods)
   Frank Weinhold                                : gennbo (NPA and NBO analysis)
   Simon Mueller                                 : openCOSMO-RS
   Christopher J. Cramer and Donald G. Truhlar   : smd solvation model
   Lars Goerigk                                  : TD-DFT with DH, B97 family of functionals
   V. Asgeirsson, H. Jonsson                     : NEB implementation
   FAccTs GmbH                                   : IRC, NEB, NEB-TS, DLPNO-Multilevel, CI-OPT
                                                   MM, QMMM, 2- and 3-layer-ONIOM, Crystal-QMMM,
                                                   LR-CPCM, SF, NACMEs, symmetry and pop. for TD-DFT,
                                                   nearIR, NL-DFT gradient (VV10), updates on ESD,
                                                   ML-optimized integration grids, MBIS, APM,
                                                   GOAT, DOCKER, SOLVATOR, interface openCOSMO-RS
   S Lehtola, MJT Oliveira, MAL Marques          : LibXC Library
   Liviu Ungur et al                             : ANISO software


 Your calculation uses the libint2 library for the computation of 2-el integrals
 For citations please refer to: http://libint.valeyev.net

 Your ORCA version has been built with support for libXC version: 6.2.2
 For citations please refer to: https://libxc.gitlab.io

 This ORCA versions uses:
   CBLAS   interface :  Fast vector & matrix operations
   LAPACKE interface :  Fast linear algebra routines
   SCALAPACK package :  Parallel linear algebra routines
   Shared memory     :  Shared parallel matrices
   BLAS/LAPACK       :  OpenBLAS 0.3.27  USE64BITINT DYNAMIC_ARCH NO_AFFINITY SkylakeX SINGLE_THREADED
        Core in use  :  SkylakeX
   Copyright (c) 2011-2014, The OpenBLAS Project


NOTE: MaxCore=3000 MB was set to SCF,MP2,MDCI,CIPSI,MRCI and CIS
      => If you want to overwrite this, your respective input block should be placed after the MaxCore statement
Your calculation utilizes the atom-pairwise dispersion correction
with the Becke-Johnson damping scheme (D3BJ)


Warning: RI is on but no J-basis has been assigned. Assigning Def2/J (nothing to worry about!)
================================================================================

----- Orbital basis set information -----
Your calculation utilizes the basis: def2-SV(P)
   F. Weigend and R. Ahlrichs, Phys. Chem. Chem. Phys. 7, 3297 (2005).

----- AuxJ basis set information -----
Your calculation utilizes the auxiliary basis: def2/J
   F. Weigend, Phys. Chem. Chem. Phys. 8, 1057 (2006).

================================================================================
                                        WARNINGS
                       Please study these warnings very carefully!
================================================================================


WARNING: your system is open-shell and RHF/RKS was chosen
  ===> : WILL SWITCH to UHF/UKS


WARNING: Geometry Optimization
  ===> : Switching off AutoStart
         For restart on a previous wavefunction, please use MOREAD

================================================================================
                                       INPUT FILE
================================================================================
NAME = cs_rporg_063_ox_opt_01.inp
|  1> !PBE0 def2-SV(p) Opt Freq d3 TightSCF SlowConv RIJCOSX defgrid2
|  2>  
|  3> %pal
|  4> nprocs 4
|  5> end
|  6>  
|  7> %scf
|  8> MaxIter 1500
|  9> end
| 10>  
| 11> %maxcore 3000
| 12>  
| 13> 
| 14>  
| 15> * xyz 1 2
| 16> C     1.1063517   -1.2850242    0.0114603 
| 17> C     0.3880564    0.0307230    0.0099642 
| 18> C     1.1022009    1.2147981   -0.0127088 
| 19> C     2.5668702    1.2877764   -0.0942397 
| 20> C     3.2410622   -0.0482832   -0.3828695 
| 21> C     2.5674041   -1.1386930    0.4393757 
| 22> H     3.0778069   -2.0912354    0.3008427 
| 23> H     2.6174512   -0.8815870    1.4986703 
| 24> H     4.3023611    0.0101960   -0.1443976 
| 25> H     3.1505557   -0.2831938   -1.4451948 
| 26> H     2.8509139    2.0473271   -0.8310988 
| 27> H     2.9286974    1.6876467    0.8653661 
| 28> H     0.5835313    2.1605461    0.0202661 
| 29> N    -0.9510145    0.0231182    0.0060256 
| 30> C    -1.7905371    1.2044033    0.0696855 
| 31> C    -3.2031495    0.6598779    0.2787171 
| 32> C    -3.1488108   -0.6825557   -0.4455148 
| 33> C    -1.7455621   -1.1795721   -0.1044473 
| 34> H    -1.3370376   -1.8525777   -0.8613012 
| 35> H    -1.7484126   -1.7053615    0.8593828 
| 36> H    -3.9210634   -1.3718692   -0.1158831 
| 37> H    -3.2456476   -0.5378885   -1.5218676 
| 38> H    -3.9615535    1.3255341   -0.1239607 
| 39> H    -3.3988764    0.5099616    1.3406348 
| 40> H    -1.4745847    1.8639400    0.8804986 
| 41> H    -1.7253569    1.7514670   -0.8781643 
| 42> H     0.6025669   -1.9867159    0.6790752 
| 43> H     1.0692578   -1.7072461   -0.9989531
| 44> *
| 45> 
| 46>                          ****END OF INPUT****
================================================================================

                       *****************************
                       * Geometry Optimization Run *
                       *****************************

Geometry optimization settings:
Update method            Update   .... BFGS
Choice of coordinates    CoordSys .... (2022) Redundant Internals
Initial Hessian          InHess   .... Almloef's Model
Max. no of cycles        MaxIter  .... 84

Convergence Tolerances:
Energy Change            TolE     ....  5.0000e-06 Eh
Max. Gradient            TolMAXG  ....  3.0000e-04 Eh/bohr
RMS Gradient             TolRMSG  ....  1.0000e-04 Eh/bohr
Max. Displacement        TolMAXD  ....  4.0000e-03 bohr
RMS Displacement         TolRMSD  ....  2.0000e-03 bohr
Strict Convergence                .... False

------------------------------------------------------------------------------
                        ORCA OPTIMIZATION COORDINATE SETUP
------------------------------------------------------------------------------

The optimization will be done in redundant internal coordinates (2022)
Making redundant internal coordinates   ...  (2022 redundants) done
Evaluating the initial hessian          ...  (Almloef) done
Evaluating the coordinates              ...  done
Calculating the B-matrix                .... done
Calculating the G-matrix                .... done
Diagonalizing the G-matrix              .... done
Small eigenvalue found = 1.210e-02
The first mode is                       ....   72
The number of degrees of freedom        ....   78

    -----------------------------------------------------------------
                    Redundant Internal Coordinates


    -----------------------------------------------------------------
         Definition                    Initial Value    Approx d2E/dq
    -----------------------------------------------------------------
      1. B(C   1,C   0)                  1.4990         0.418564   
      2. B(C   2,C   1)                  1.3829         0.641190   
      3. B(C   3,C   2)                  1.4688         0.467839   
      4. B(C   4,C   3)                  1.5241         0.381753   
      5. B(C   5,C   4)                  1.5228         0.383599   
      6. B(C   5,C   0)                  1.5294         0.374339   
      7. B(H   6,C   5)                  1.0895         0.360744   
      8. B(H   7,C   5)                  1.0912         0.358519   
      9. B(H   8,C   4)                  1.0893         0.360985   
     10. B(H   9,C   4)                  1.0917         0.357798   
     11. B(H  10,C   3)                  1.0957         0.352637   
     12. B(H  11,C   3)                  1.1008         0.346152   
     13. B(H  12,C   2)                  1.0791         0.374756   
     14. B(N  13,C   1)                  1.3391         0.674661   
     15. B(C  14,N  13)                  1.4506         0.447886   
     16. B(C  15,C  14)                  1.5283         0.375926   
     17. B(C  16,C  15)                  1.5263         0.378687   
     18. B(C  17,C  16)                  1.5272         0.377383   
     19. B(C  17,N  13)                  1.4457         0.456090   
     20. B(H  18,C  17)                  1.0921         0.357348   
     21. B(H  19,C  17)                  1.0979         0.349772   
     22. B(H  20,C  16)                  1.0864         0.364944   
     23. B(H  21,C  16)                  1.0903         0.359651   
     24. B(H  22,C  15)                  1.0865         0.364796   
     25. B(H  23,C  15)                  1.0902         0.359886   
     26. B(H  24,C  14)                  1.0919         0.357603   
     27. B(H  25,C  14)                  1.0963         0.351819   
     28. B(H  26,C   0)                  1.0917         0.357815   
     29. B(H  27,C   0)                  1.0957         0.352624   
     30. A(C   1,C   0,H  26)          110.0986         0.330106   
     31. A(H  26,C   0,H  27)          107.4949         0.289594   
     32. A(C   1,C   0,C   5)          111.9652         0.370634   
     33. A(C   5,C   0,H  26)          109.3428         0.324089   
     34. A(C   5,C   0,H  27)          109.0997         0.323312   
     35. A(C   1,C   0,H  27)          108.7283         0.329310   
     36. A(C   0,C   1,N  13)          118.3057         0.408153   
     37. A(C   2,C   1,N  13)          121.4125         0.440498   
     38. A(C   0,C   1,C   2)          120.2703         0.407116   
     39. A(C   3,C   2,H  12)          115.9411         0.338859   
     40. A(C   1,C   2,C   3)          123.9459         0.415231   
     41. A(C   1,C   2,H  12)          120.1102         0.357336   
     42. A(C   2,C   3,C   4)          114.0842         0.379104   
     43. A(C   4,C   3,H  11)          109.7634         0.323370   
     44. A(C   4,C   3,H  10)          111.4477         0.324357   
     45. A(C   2,C   3,H  10)          109.2863         0.335443   
     46. A(H  10,C   3,H  11)          104.4321         0.288097   
     47. A(C   2,C   3,H  11)          107.3047         0.334409   
     48. A(C   5,C   4,H   9)          109.5518         0.325390   
     49. A(C   3,C   4,H   9)          109.6470         0.325132   
     50. A(C   3,C   4,H   8)          110.0263         0.325606   
     51. A(C   3,C   4,C   5)          109.2546         0.366357   
     52. A(H   8,C   4,H   9)          107.7783         0.290659   
     53. A(C   5,C   4,H   8)          110.5628         0.325865   
     54. A(C   0,C   5,H   6)          109.1655         0.324523   
     55. A(C   0,C   5,C   4)          109.8793         0.365128   
     56. A(H   6,C   5,H   7)          107.9354         0.290720   
     57. A(C   4,C   5,H   7)          109.5826         0.325498   
     58. A(C   0,C   5,H   7)          109.7527         0.324193   
     59. A(C   4,C   5,H   6)          110.4958         0.325829   
     60. A(C  14,N  13,C  17)          111.2687         0.383158   
     61. A(C   1,N  13,C  17)          123.6791         0.411738   
     62. A(C   1,N  13,C  14)          125.0275         0.410415   
     63. A(N  13,C  14,C  15)          104.5241         0.372902   
     64. A(H  24,C  14,H  25)          108.8682         0.289463   
     65. A(N  13,C  14,H  25)          109.5117         0.330888   
     66. A(C  15,C  14,H  24)          112.4023         0.324282   
     67. A(N  13,C  14,H  24)          110.9164         0.331783   
     68. A(C  15,C  14,H  25)          110.5481         0.323416   
     69. A(C  14,C  15,C  16)          102.4489         0.364588   
     70. A(H  22,C  15,H  23)          108.6601         0.291405   
     71. A(C  16,C  15,H  23)          110.3436         0.325012   
     72. A(C  14,C  15,H  23)          110.3759         0.324622   
     73. A(C  16,C  15,H  22)          112.8212         0.325737   
     74. A(C  14,C  15,H  22)          112.0997         0.325345   
     75. A(C  15,C  16,C  17)          102.2968         0.364829   
     76. A(H  20,C  16,H  21)          108.6985         0.291394   
     77. A(C  17,C  16,H  21)          110.1964         0.324793   
     78. A(C  15,C  16,H  21)          110.3990         0.324977   
     79. A(C  17,C  16,H  20)          112.2652         0.325574   
     80. A(C  15,C  16,H  20)          112.8794         0.325759   
     81. A(H  18,C  17,H  19)          108.3150         0.289167   
     82. A(C  16,C  17,H  19)          110.4575         0.323311   
     83. A(N  13,C  17,H  19)          109.4356         0.331563   
     84. A(C  16,C  17,H  18)          112.9226         0.324450   
     85. A(N  13,C  17,H  18)          111.1028         0.332743   
     86. A(N  13,C  17,C  16)          104.5552         0.374321   
     87. D(N  13,C   1,C   0,H  26)    -40.7632         0.012957   
     88. D(C   2,C   1,C   0,H  27)   -102.0275         0.012957   
     89. D(C   2,C   1,C   0,H  26)    140.4517         0.012957   
     90. D(C   2,C   1,C   0,C   5)     18.5889         0.012957   
     91. D(N  13,C   1,C   0,C   5)   -162.6260         0.012957   
     92. D(C   3,C   2,C   1,C   0)      2.7216         0.028572   
     93. D(C   3,C   2,C   1,N  13)   -176.0250         0.028572   
     94. D(H  12,C   2,C   1,N  13)      3.3411         0.028572   
     95. D(H  12,C   2,C   1,C   0)   -177.9123         0.028572   
     96. D(H  10,C   3,C   2,H  12)    -44.3584         0.016136   
     97. D(H  10,C   3,C   2,C   1)    135.0318         0.016136   
     98. D(C   4,C   3,C   2,H  12)   -169.8614         0.016136   
     99. D(C   4,C   3,C   2,C   1)      9.5288         0.016136   
    100. D(H  11,C   3,C   2,C   1)   -112.2878         0.016136   
    101. D(H   8,C   4,C   3,H  11)    -43.0254         0.011610   
    102. D(C   5,C   4,C   3,C   2)    -41.9228         0.011610   
    103. D(H   8,C   4,C   3,H  10)     72.1689         0.011610   
    104. D(H   8,C   4,C   3,C   2)   -163.4772         0.011610   
    105. D(C   5,C   4,C   3,H  11)     78.5290         0.011610   
    106. D(C   5,C   4,C   3,H  10)   -166.2768         0.011610   
    107. D(H   6,C   5,C   4,H   8)    -54.8734         0.011716   
    108. D(C   0,C   5,C   4,H   8)   -175.3943         0.011716   
    109. D(H   6,C   5,C   4,C   3)   -176.1026         0.011716   
    110. D(C   0,C   5,C   4,C   3)     63.3765         0.011716   
    111. D(H   6,C   5,C   0,H  27)    -52.3099         0.011187   
    112. D(H   6,C   5,C   0,H  26)     64.9947         0.011187   
    113. D(H   6,C   5,C   0,C   1)   -172.7103         0.011187   
    114. D(C   0,C   5,C   4,H   9)    -56.7552         0.011716   
    115. D(C   4,C   5,C   0,H  27)     69.0120         0.011187   
    116. D(C   4,C   5,C   0,H  26)   -173.6834         0.011187   
    117. D(C   4,C   5,C   0,C   1)    -51.3884         0.011187   
    118. D(H   6,C   5,C   4,H   9)     63.7657         0.011716   
    119. D(C  17,N  13,C   1,C   2)    173.6402         0.037397   
    120. D(C  17,N  13,C   1,C   0)     -5.1303         0.037397   
    121. D(C  14,N  13,C   1,C   2)     -4.3940         0.037397   
    122. D(C  14,N  13,C   1,C   0)    176.8355         0.037397   
    123. D(H  25,C  14,N  13,C   1)     70.9876         0.017111   
    124. D(H  24,C  14,N  13,C  17)    132.5622         0.017111   
    125. D(H  24,C  14,N  13,C   1)    -49.1931         0.017111   
    126. D(C  15,C  14,N  13,C  17)     11.1981         0.017111   
    127. D(C  15,C  14,N  13,C   1)   -170.5572         0.017111   
    128. D(H  22,C  15,C  14,H  24)     87.5747         0.011276   
    129. D(H  22,C  15,C  14,N  13)   -152.0483         0.011276   
    130. D(C  16,C  15,C  14,H  25)     86.9197         0.011276   
    131. D(C  16,C  15,C  14,H  24)   -151.2049         0.011276   
    132. D(H  22,C  15,C  14,H  25)    -34.3007         0.011276   
    133. D(C  16,C  15,C  14,N  13)    -30.8279         0.011276   
    134. D(H  20,C  16,C  15,H  23)     41.6377         0.011433   
    135. D(H  20,C  16,C  15,H  22)    -80.1141         0.011433   
    136. D(H  20,C  16,C  15,C  14)    159.1625         0.011433   
    137. D(C  17,C  16,C  15,H  23)    -79.2188         0.011433   
    138. D(C  17,C  16,C  15,H  22)    159.0294         0.011433   
    139. D(C  17,C  16,C  15,C  14)     38.3060         0.011433   
    140. D(H  18,C  17,C  16,C  15)   -152.9177         0.011359   
    141. D(N  13,C  17,C  16,H  21)     85.3973         0.011359   
    142. D(N  13,C  17,C  16,H  20)   -153.2892         0.011359   
    143. D(N  13,C  17,C  16,C  15)    -32.0089         0.011359   
    144. D(H  19,C  17,N  13,C   1)     76.6054         0.017752   
    145. D(H  18,C  17,N  13,C  14)    135.3165         0.017752   
    146. D(H  18,C  17,N  13,C   1)    -42.9562         0.017752   
    147. D(C  16,C  17,N  13,C  14)     13.2074         0.017752   
    148. D(H  18,C  17,C  16,H  20)     85.8019         0.011359   
    149. D(C  16,C  17,N  13,C   1)   -165.0653         0.017752   
    150. D(H  18,C  17,C  16,H  21)    -35.5116         0.011359   
    -----------------------------------------------------------------

Number of atoms                         .... 28
Number of degrees of freedom            .... 150


         *************************************************************
         *                GEOMETRY OPTIMIZATION CYCLE   1            *
         *************************************************************
---------------------------------
CARTESIAN COORDINATES (ANGSTROEM)
---------------------------------
  C      1.106352   -1.285024    0.011460
  C      0.388056    0.030723    0.009964
  C      1.102201    1.214798   -0.012709
  C      2.566870    1.287776   -0.094240
  C      3.241062   -0.048283   -0.382869
  C      2.567404   -1.138693    0.439376
  H      3.077807   -2.091235    0.300843
  H      2.617451   -0.881587    1.498670
  H      4.302361    0.010196   -0.144398
  H      3.150556   -0.283194   -1.445195
  H      2.850914    2.047327   -0.831099
  H      2.928697    1.687647    0.865366
  H      0.583531    2.160546    0.020266
  N     -0.951014    0.023118    0.006026
  C     -1.790537    1.204403    0.069685
  C     -3.203149    0.659878    0.278717
  C     -3.148811   -0.682556   -0.445515
  C     -1.745562   -1.179572   -0.104447
  H     -1.337038   -1.852578   -0.861301
  H     -1.748413   -1.705361    0.859383
  H     -3.921063   -1.371869   -0.115883
  H     -3.245648   -0.537888   -1.521868
  H     -3.961553    1.325534   -0.123961
  H     -3.398876    0.509962    1.340635
  H     -1.474585    1.863940    0.880499
  H     -1.725357    1.751467   -0.878164
  H      0.602567   -1.986716    0.679075
  H      1.069258   -1.707246   -0.998953

----------------------------
CARTESIAN COORDINATES (A.U.)
----------------------------
  NO LB      ZA    FRAG     MASS         X           Y           Z
   0 C     6.0000    0    12.011    2.090702   -2.428344    0.021657
   1 C     6.0000    0    12.011    0.733320    0.058058    0.018830
   2 C     6.0000    0    12.011    2.082858    2.295636   -0.024016
   3 C     6.0000    0    12.011    4.850682    2.433545   -0.178087
   4 C     6.0000    0    12.011    6.124720   -0.091242   -0.723519
   5 C     6.0000    0    12.011    4.851691   -2.151818    0.830300
   6 H     1.0000    0     1.008    5.816212   -3.951862    0.568510
   7 H     1.0000    0     1.008    4.946266   -1.665958    2.832076
   8 H     1.0000    0     1.008    8.130284    0.019268   -0.272872
   9 H     1.0000    0     1.008    5.953687   -0.535159   -2.731022
  10 H     1.0000    0     1.008    5.387447    3.868888   -1.570549
  11 H     1.0000    0     1.008    5.534436    3.189190    1.635305
  12 H     1.0000    0     1.008    1.102714    4.082840    0.038297
  13 N     7.0000    0    14.007   -1.797157    0.043687    0.011387
  14 C     6.0000    0    12.011   -3.383625    2.275992    0.131687
  15 C     6.0000    0    12.011   -6.053075    1.246989    0.526699
  16 C     6.0000    0    12.011   -5.950390   -1.289843   -0.841901
  17 C     6.0000    0    12.011   -3.298634   -2.229068   -0.197377
  18 H     1.0000    0     1.008   -2.526635   -3.500864   -1.627623
  19 H     1.0000    0     1.008   -3.304021   -3.222666    1.623998
  20 H     1.0000    0     1.008   -7.409736   -2.592457   -0.218987
  21 H     1.0000    0     1.008   -6.133385   -1.016462   -2.875913
  22 H     1.0000    0     1.008   -7.486251    2.504896   -0.234252
  23 H     1.0000    0     1.008   -6.422946    0.963688    2.533433
  24 H     1.0000    0     1.008   -2.786561    3.522336    1.663901
  25 H     1.0000    0     1.008   -3.260452    3.309793   -1.659490
  26 H     1.0000    0     1.008    1.138686   -3.754349    1.283266
  27 H     1.0000    0     1.008    2.020604   -3.226228   -1.887748

--------------------------------
INTERNAL COORDINATES (ANGSTROEM)
--------------------------------
 C      0   0   0     0.000000000000     0.00000000     0.00000000
 C      1   0   0     1.499046720628     0.00000000     0.00000000
 C      2   1   0     1.382949845168   120.27027706     0.00000000
 C      3   2   1     1.468750924523   123.94585954     2.72162430
 C      4   3   2     1.524105399592   114.08420733     9.52875538
 C      5   4   3     1.522792151462   109.25458914   318.07718694
 H      6   5   4     1.089513393279   110.49581803   183.89743075
 H      6   5   4     1.091198083321   109.58262488   302.70800003
 H      5   4   3     1.089331914094   110.02630524   196.52283198
 H      5   4   3     1.091746060013   109.64696048    78.15045503
 H      4   3   2     1.095700425588   109.28631251   135.03180520
 H      4   3   2     1.100753592261   107.30466928   247.71220154
 H      3   2   1     1.079140758890   120.11023281   182.08769666
 N      2   1   3     1.339098286452   118.30574967   178.78506902
 C     14   2   1     1.450615478430   125.02752550   176.83546725
 C     15  14   2     1.528291828702   104.52412846   189.44275282
 C     16  15  14     1.526300268527   102.44888933   329.17210827
 C     14   2   1     1.445674274522   123.67914163   354.86971098
 H     18  14   2     1.092088197298   111.10282633   317.04376922
 H     18  14   2     1.097921254084   109.43564492    76.60543127
 H     17  16  15     1.086362847825   112.87944533   159.16251858
 H     17  16  15     1.090339999568   110.39897644   281.04478986
 H     16  15  14     1.086473292091   112.09966036   207.95174762
 H     16  15  14     1.090161968683   110.37589455    86.67390493
 H     15  14   2     1.091893978756   110.91642367   310.80693936
 H     15  14   2     1.096333158164   109.51167884    70.98760739
 H      1   2   3     1.091732577723   110.09859764   140.45172938
 H      1   2   3     1.095710969716   108.72826181   257.97254491

---------------------------
INTERNAL COORDINATES (A.U.)
---------------------------
 C      0   0   0     0.000000000000     0.00000000     0.00000000
 C      1   0   0     2.832787763939     0.00000000     0.00000000
 C      2   1   0     2.613396464316   120.27027706     0.00000000
 C      3   2   1     2.775537006293   123.94585954     2.72162430
 C      4   3   2     2.880141804459   114.08420733     9.52875538
 C      5   4   3     2.877660125148   109.25458914   318.07718694
 H      6   5   4     2.058881932537   110.49581803   183.89743075
 H      6   5   4     2.062065535337   109.58262488   302.70800003
 H      5   4   3     2.058538986578   110.02630524   196.52283198
 H      5   4   3     2.063101061213   109.64696048    78.15045503
 H      4   3   2     2.070573729182   109.28631251   135.03180520
 H      4   3   2     2.080122830303   107.30466928   247.71220154
 H      3   2   1     2.039280494254   120.11023281   182.08769666
 N      2   1   3     2.530529027798   118.30574967   178.78506902
 C     14   2   1     2.741265979860   125.02752550   176.83546725
 C     15  14   2     2.888053008957   104.52412846   189.44275282
 C     16  15  14     2.884289505646   102.44888933   329.17210827
 C     14   2   1     2.731928457702   123.67914163   354.86971098
 H     18  14   2     2.063747606980   111.10282633   317.04376922
 H     18  14   2     2.074770486829   109.43564492    76.60543127
 H     17  16  15     2.052928264456   112.87944533   159.16251858
 H     17  16  15     2.060443992043   110.39897644   281.04478986
 H     16  15  14     2.053136973872   112.09966036   207.95174762
 H     16  15  14     2.060107562427   110.37589455    86.67390493
 H     15  14   2     2.063380587127   110.91642367   310.80693936
 H     15  14   2     2.071769420467   109.51167884    70.98760739
 H      1   2   3     2.063075583377   110.09859764   140.45172938
 H      1   2   3     2.070593654697   108.72826181   257.97254491

---------------------
BASIS SET INFORMATION
---------------------
There are 3 groups of distinct atoms

 Group   1 Type C   : 7s4p1d contracted to 3s2p1d pattern {511/31/1}
 Group   2 Type H   : 4s contracted to 2s pattern {31}
 Group   3 Type N   : 7s4p1d contracted to 3s2p1d pattern {511/31/1}

Atom   0C    basis set group =>   1
Atom   1C    basis set group =>   1
Atom   2C    basis set group =>   1
Atom   3C    basis set group =>   1
Atom   4C    basis set group =>   1
Atom   5C    basis set group =>   1
Atom   6H    basis set group =>   2
Atom   7H    basis set group =>   2
Atom   8H    basis set group =>   2
Atom   9H    basis set group =>   2
Atom  10H    basis set group =>   2
Atom  11H    basis set group =>   2
Atom  12H    basis set group =>   2
Atom  13N    basis set group =>   3
Atom  14C    basis set group =>   1
Atom  15C    basis set group =>   1
Atom  16C    basis set group =>   1
Atom  17C    basis set group =>   1
Atom  18H    basis set group =>   2
Atom  19H    basis set group =>   2
Atom  20H    basis set group =>   2
Atom  21H    basis set group =>   2
Atom  22H    basis set group =>   2
Atom  23H    basis set group =>   2
Atom  24H    basis set group =>   2
Atom  25H    basis set group =>   2
Atom  26H    basis set group =>   2
Atom  27H    basis set group =>   2
---------------------------------
AUXILIARY/J BASIS SET INFORMATION
---------------------------------
There are 3 groups of distinct atoms

 Group   1 Type C   : 12s5p4d2f1g contracted to 6s4p3d1f1g pattern {711111/2111/211/2/1}
 Group   2 Type H   : 5s2p1d contracted to 3s1p1d pattern {311/2/1}
 Group   3 Type N   : 12s5p4d2f1g contracted to 6s4p3d1f1g pattern {711111/2111/211/2/1}

Atom   0C    basis set group =>   1
Atom   1C    basis set group =>   1
Atom   2C    basis set group =>   1
Atom   3C    basis set group =>   1
Atom   4C    basis set group =>   1
Atom   5C    basis set group =>   1
Atom   6H    basis set group =>   2
Atom   7H    basis set group =>   2
Atom   8H    basis set group =>   2
Atom   9H    basis set group =>   2
Atom  10H    basis set group =>   2
Atom  11H    basis set group =>   2
Atom  12H    basis set group =>   2
Atom  13N    basis set group =>   3
Atom  14C    basis set group =>   1
Atom  15C    basis set group =>   1
Atom  16C    basis set group =>   1
Atom  17C    basis set group =>   1
Atom  18H    basis set group =>   2
Atom  19H    basis set group =>   2
Atom  20H    basis set group =>   2
Atom  21H    basis set group =>   2
Atom  22H    basis set group =>   2
Atom  23H    basis set group =>   2
Atom  24H    basis set group =>   2
Atom  25H    basis set group =>   2
Atom  26H    basis set group =>   2
Atom  27H    basis set group =>   2


           ************************************************************
           *        Program running with 4 parallel MPI-processes     *
           *              working on a common directory               *
           ************************************************************
------------------------------------------------------------------------------
                             ORCA STARTUP CALCULATIONS
                           -- RI-GTO INTEGRALS CHOSEN --
------------------------------------------------------------------------------
------------------------------------------------------------------------------
                   ___                                                        
                  /   \      - P O W E R E D   B Y -                         
                 /     \                                                     
                 |  |  |   _    _      __       _____    __    __             
                 |  |  |  | |  | |    /  \     |  _  \  |  |  /  |          
                  \  \/   | |  | |   /    \    | | | |  |  | /  /          
                 / \  \   | |__| |  /  /\  \   | |_| |  |  |/  /          
                |  |  |   |  __  | /  /__\  \  |    /   |      \           
                |  |  |   | |  | | |   __   |  |    \   |  |\   \          
                \     /   | |  | | |  |  |  |  | |\  \  |  | \   \       
                 \___/    |_|  |_| |__|  |__|  |_| \__\ |__|  \__/        
                                                                              
                      - O R C A' S   B I G   F R I E N D -                    
                                      &                                       
                       - I N T E G R A L  F E E D E R -                       
                                                                              
 v1 FN, 2020, v2 2021, v3 2022-2024                                           
------------------------------------------------------------------------------


----------------------
SHARK INTEGRAL PACKAGE
----------------------

Number of atoms                             ...     28
Number of basis functions                   ...    188
Number of shells                            ...    100
Maximum angular momentum                    ...      2
Integral batch strategy                     ... SHARK/LIBINT Hybrid
RI-J (if used) integral strategy            ... SPLIT-RIJ (Revised 2003 algorithm where possible)
Printlevel                                  ...      1
Contraction scheme used                     ... SEGMENTED contraction
Prescreening option                         ... SCHWARTZ
   Thresh                                   ... 2.500e-11
   Tcut                                     ... 2.500e-12
   Tpresel                                  ... 2.500e-12 
Coulomb Range Separation                    ... NOT USED
Exchange Range Separation                   ... NOT USED
Multipole approximations                    ... NOT USED
Finite Nucleus Model                        ... NOT USED
CABS basis                                  ... NOT available
Auxiliary Coulomb fitting basis             ... AVAILABLE
   # of basis functions in Aux-J            ...    726
   # of shells in Aux-J                     ...    250
   Maximum angular momentum in Aux-J        ...      4
Auxiliary J/K fitting basis                 ... NOT available
Auxiliary Correlation fitting basis         ... NOT available
Auxiliary 'external' fitting basis          ... NOT available

Checking pre-screening integrals            ... done (  0.0 sec) Dimension = 100
Check shell pair data                       ... done (  0.0 sec)
Shell pair information
Shell pair cut-off parameter TPreSel        ...   2.5e-12
Total number of shell pairs                 ...      5050
Shell pairs after pre-screening             ...      4659
Total number of primitive shell pairs       ...     20294
Primitive shell pairs kept                  ...     12976
          la=0 lb=0:   2082 shell pairs
          la=1 lb=0:   1399 shell pairs
          la=1 lb=1:    247 shell pairs
          la=2 lb=0:    645 shell pairs
          la=2 lb=1:    230 shell pairs
          la=2 lb=2:     56 shell pairs

Calculating one electron integrals          ... done (  0.0 sec)
Calculating RI/J V-Matrix + Cholesky decomp.... done (  0.1 sec)
Calculating Nuclear repulsion               ... done (  0.0 sec) ENN=    643.404249837287 Eh

Diagonalization of the overlap matrix:
Smallest eigenvalue                        ... 9.810e-04
Time for diagonalization                   ...    0.003 sec
Threshold for overlap eigenvalues          ... 1.000e-07
Number of eigenvalues below threshold      ... 0
Time for construction of square roots      ...    0.020 sec
Total time needed                          ...    0.071 sec

-------------------
DFT GRID GENERATION
-------------------

General Integration Accuracy     IntAcc      ... 4.388
Radial Grid Type                 RadialGrid  ... OptM3 with GC (2021)
Angular Grid (max. ang.)         AngularGrid ... 4 (Lebedev-302)
Angular grid pruning method      GridPruning ... 4 (adaptive)
Weight generation scheme         WeightScheme... mBecke (2022)
Basis function cutoff            BFCut       ... 1.0000e-11
Integration weight cutoff        WCut        ... 1.0000e-14
Partially contracted basis set               ... off
Rotationally invariant grid construction     ... off
Angular grids for H and He will be reduced by one unit

Total number of grid points                  ...   119577
Total number of batches                      ...     1882
Average number of points per batch           ...       63
Average number of grid points per atom       ...     4271

--------------------
COSX GRID GENERATION
--------------------

GRIDX 1
-------
General Integration Accuracy     IntAcc      ... 3.816
Radial Grid Type                 RadialGrid  ... OptM3 with GC (2021)
Angular Grid (max. ang.)         AngularGrid ... 1 (Lebedev-50)
Angular grid pruning method      GridPruning ... 4 (adaptive)
Weight generation scheme         WeightScheme... mBecke (2022)
Basis function cutoff            BFCut       ... 1.0000e-11
Integration weight cutoff        WCut        ... 1.0000e-14
Partially contracted basis set               ... on
Rotationally invariant grid construction     ... off
Angular grids for H and He will be reduced by one unit

Total number of grid points                  ...    15330
Total number of batches                      ...      142
Average number of points per batch           ...      107
Average number of grid points per atom       ...      548
UseSFitting                                  ... on

GRIDX 2
-------
General Integration Accuracy     IntAcc      ... 4.020
Radial Grid Type                 RadialGrid  ... OptM3 with GC (2021)
Angular Grid (max. ang.)         AngularGrid ... 2 (Lebedev-110)
Angular grid pruning method      GridPruning ... 4 (adaptive)
Weight generation scheme         WeightScheme... mBecke (2022)
Basis function cutoff            BFCut       ... 1.0000e-11
Integration weight cutoff        WCut        ... 1.0000e-14
Partially contracted basis set               ... on
Rotationally invariant grid construction     ... off
Angular grids for H and He will be reduced by one unit

Total number of grid points                  ...    31960
Total number of batches                      ...      264
Average number of points per batch           ...      121
Average number of grid points per atom       ...     1141
UseSFitting                                  ... on

GRIDX 3
-------
General Integration Accuracy     IntAcc      ... 4.338
Radial Grid Type                 RadialGrid  ... OptM3 with GC (2021)
Angular Grid (max. ang.)         AngularGrid ... 3 (Lebedev-194)
Angular grid pruning method      GridPruning ... 4 (adaptive)
Weight generation scheme         WeightScheme... mBecke (2022)
Basis function cutoff            BFCut       ... 1.0000e-11
Integration weight cutoff        WCut        ... 1.0000e-14
Partially contracted basis set               ... on
Rotationally invariant grid construction     ... off
Angular grids for H and He will be reduced by one unit

Total number of grid points                  ...    69516
Total number of batches                      ...      559
Average number of points per batch           ...      124
Average number of grid points per atom       ...     2483
UseSFitting                                  ... on
Initializing property integral containers    ... done (  0.1 sec)

SHARK setup successfully completed in   3.0 seconds

Maximum memory used throughout the entire STARTUP-calculation: 32.6 MB


           ************************************************************
           *        Program running with 4 parallel MPI-processes     *
           *              working on a common directory               *
           ************************************************************
-------------------------------------------------------------------------------
                                 ORCA GUESS
                   Start orbitals & Density for SCF / CASSCF
-------------------------------------------------------------------------------

------------
SCF SETTINGS
------------
Hamiltonian:
 Density Functional     Method          .... DFT(GTOs)
 Exchange Functional    Exchange        .... PBE
   PBE kappa parameter   XKappa         ....  0.804000
   PBE mue parameter    XMuePBE         ....  0.219520
 Correlation Functional Correlation     .... PBE
   PBE beta parameter  CBetaPBE         ....  0.066725
 LDA part of GGA corr.  LDAOpt          .... PW91-LDA
 Gradients option       PostSCFGGA      .... off
 Hybrid DFT is turned on
   Fraction HF Exchange ScalHFX         ....  0.250000
   Scaling of DF-GGA-X  ScalDFX         ....  0.750000
   Scaling of DF-GGA-C  ScalDFC         ....  1.000000
   Scaling of DF-LDA-C  ScalLDAC        ....  1.000000
   Perturbative correction              ....  0.000000
   NL short-range parameter             ....  6.900000
 RI-approximation to the Coulomb term is turned on
   Number of AuxJ basis functions       .... 726
   RIJ-COSX (HFX calculated with COS-X)).... on


General Settings:
 Integral files         IntName         .... cs_rporg_063_ox_opt_01
 Hartree-Fock type      HFTyp           .... UHF
 Total Charge           Charge          ....    1
 Multiplicity           Mult            ....    2
 Number of Electrons    NEL             ....   83
 Basis Dimension        Dim             ....  188
 Nuclear Repulsion      ENuc            ....    643.4042498373 Eh

Convergence Acceleration:
 AO-DIIS                CNVDIIS         .... on
   Start iteration      DIISMaxIt       ....     0
   Startup error        DIISStart       ....  0.200000
   # of expansion vecs  DIISMaxEq       ....     5
   Bias factor          DIISBfac        ....   1.050
   Max. coefficient     DIISMaxC        ....  10.000
 MO-DIIS                CNVKDIIS        .... off
 Trust-Rad. Augm. Hess. CNVTRAH         .... auto
   Auto Start mean grad. ratio tolernc. ....  1.125000
   Auto Start start iteration           ....    50
   Auto Start num. interpolation iter.  ....    10
   Max. Number of Micro iterations      ....    24
   Max. Number of Macro iterations      .... Maxiter - #DIIS iter
   Number of Davidson start vectors     ....     2
   Converg. threshold    (grad. norm)   ....   1.000e-05
   Grad. Scal. Fac. for Micro threshold ....   0.100
   Minimum threshold for Micro iter.    ....   1.000e-02
   NR start threshold (gradient norm)   ....   1.000e-04
   Initial trust radius                 ....   0.400
   Minimum AH scaling param. (alpha)    ....   1.000
   Maximum AH scaling param. (alpha)    .... 1000.000
   Quad. conv. algorithm                .... NR
   White noise on init. David. guess    .... on
   Maximum white noise                  ....   0.010
   Pseudo random numbers                .... off
   Inactive MOs                         .... canonical
   Orbital update algorithm             .... Taylor
   Preconditioner                       .... Diag
   Full preconditioner red. dimension   ....   250
 SOSCF                  CNVSOSCF        .... on
   Start iteration      SOSCFMaxIt      ....   150
   Startup grad/error   SOSCFStart      ....  0.001000
   Hessian update       SOSCFHessUp     .... L-BFGS
 Level Shifting         CNVShift        .... on
   Level shift para.    LevelShift      ....    0.2500
   Turn off err/grad.   ShiftErr        ....    0.0000
 Zerner damping         CNVZerner       .... off
 Static damping         CNVDamp         .... on
   Fraction old density DampFac         ....    0.8500
   Max. Damping (<1)    DampMax         ....    0.9800
   Min. Damping (>=0)   DampMin         ....    0.0000
   Turn off err/grad.   DampErr         ....    0.0300

SCF Procedure:
 Maximum # iterations   MaxIter         ....  1500
 SCF integral mode      SCFMode         .... Direct
   Integral package                     .... SHARK and LIBINT hybrid scheme
 Reset frequency        DirectResetFreq ....    20
 Integral Threshold     Thresh          ....  2.500e-11 Eh
 Primitive CutOff       TCut            ....  2.500e-12 Eh

Convergence Tolerance:
 Convergence Check Mode ConvCheckMode   .... Total+1el-Energy
 Convergence forced     ConvForced      .... 0
 Energy Change          TolE            ....  1.000e-08 Eh
 1-El. energy change                    ....  1.000e-05 Eh
 Orbital Gradient       TolG            ....  1.000e-05
 Orbital Rotation angle TolX            ....  1.000e-05
 DIIS Error             TolErr          ....  5.000e-07

------------------------------
INITIAL GUESS: MODEL POTENTIAL
------------------------------
Loading Hartree-Fock densities                     ... done
Calculating cut-offs                               ... done
Initializing the effective Hamiltonian             ... done
Setting up the integral package (SHARK)            ... done
Starting the Coulomb interaction                   ... done (   0.1 sec)
Making the grid                                    ... done (   0.3 sec)
Mapping shells                                     ... done
Starting the XC term evaluation                    ... done (   0.1 sec)
  promolecular density results
     # of electrons  =     83.995759469
     EX              =    -62.814037771
     EC              =     -2.799928865
     EX+EC           =    -65.613966636
Transforming the Hamiltonian                       ... done (   0.0 sec)
Diagonalizing the Hamiltonian                      ... done (   0.0 sec)
Back transforming the eigenvectors                 ... done (   0.1 sec)
Now organizing SCF variables                       ... done
                      ------------------
                      INITIAL GUESS DONE (   1.2 sec)
                      ------------------
             **** ENERGY FILE WAS UPDATED (cs_rporg_063_ox_opt_01.en.tmp) ****
Finished Guess after   2.5 sec
Maximum memory used throughout the entire GUESS-calculation: 17.0 MB


           ************************************************************
           *        Program running with 4 parallel MPI-processes     *
           *              working on a common directory               *
           ************************************************************

-------------------------------------------------------------------------------------------
                                      ORCA LEAN-SCF
                              memory conserving SCF solver
-------------------------------------------------------------------------------------------

----------------------------------------D-I-I-S--------------------------------------------
Iteration    Energy (Eh)           Delta-E    RMSDP     MaxDP     DIISErr   Damp  Time(sec)
-------------------------------------------------------------------------------------------
               ***  Starting incremental Fock matrix formation  ***
    1    -444.7301916331188067     0.00e+00  7.51e-04  1.64e-02  6.27e-02  0.850   6.1
    2    -444.7765094017987622    -4.63e-02  7.13e-04  1.46e-02  4.85e-02  0.850   6.3
                               ***Turning on AO-DIIS***
    3    -444.8083976189503801    -3.19e-02  4.63e-04  7.74e-03  3.48e-02  0.850   3.9
    4    -444.8298168153409051    -2.14e-02  3.55e-04  5.76e-03  2.78e-02  0.850   4.0
    5    -444.8455503475371415    -1.57e-02  1.93e-03  3.17e-02  2.31e-02  0.000   3.9
    6    -444.9189055949740350    -7.34e-02  1.34e-04  3.63e-03  3.19e-03  0.000   4.2
    7    -444.9191681899086461    -2.63e-04  5.59e-05  2.57e-03  2.82e-03  0.000   3.9
    8    -444.9192436719321222    -7.55e-05  4.22e-05  1.82e-03  1.45e-03  0.000   3.7
    9    -444.9192795870022792    -3.59e-05  3.20e-05  1.61e-03  1.21e-03  0.000   3.6
                              *** Initializing SOSCF ***
---------------------------------------S-O-S-C-F--------------------------------------
Iteration    Energy (Eh)           Delta-E    RMSDP     MaxDP     MaxGrad    Time(sec)
--------------------------------------------------------------------------------------
   10    -444.9192986625558888    -1.91e-05  1.85e-05  1.04e-03  6.67e-04     3.1
               *** Restarting incremental Fock matrix formation ***
   11    -444.9192842095629885     1.45e-05  1.50e-05  5.98e-04  3.65e-04     3.8
   12    -444.9192859526566508    -1.74e-06  1.50e-05  6.86e-04  1.44e-04     2.9
   13    -444.9192861614091044    -2.09e-07  6.17e-06  1.48e-04  1.41e-04     3.0
   14    -444.9192865525843672    -3.91e-07  2.95e-06  1.15e-04  4.62e-05     2.6
   15    -444.9192865548974396    -2.31e-09  1.60e-06  6.98e-05  4.05e-05     3.2
                 **** Energy Check signals convergence ****

               *****************************************************
               *                     SUCCESS                       *
               *           SCF CONVERGED AFTER  15 CYCLES          *
               *****************************************************

Recomputing exchange energy using gridx3       ... done (    3.421 sec)
Old exchange energy                            :    -16.067341277 Eh
New exchange energy                            :    -16.067331945 Eh
Exchange energy change after final integration :      0.000009332 Eh
Total energy after final integration           :   -444.919277222 Eh
             **** ENERGY FILE WAS UPDATED (cs_rporg_063_ox_opt_01.en.tmp) ****

----------------
TOTAL SCF ENERGY
----------------

Total Energy       :       -444.91927722245930 Eh          -12106.86903 eV

Components:
Nuclear Repulsion  :        643.40424983728747 Eh           17507.91972 eV
Electronic Energy  :      -1088.32353639218491 Eh          -29614.78901 eV
One Electron Energy:      -1861.29395879018307 Eh          -50648.38353 eV
Two Electron Energy:        772.97042239799816 Eh           21033.59452 eV

Virial components:
Potential Energy   :       -885.69429681374800 Eh          -24100.96709 eV
Kinetic Energy     :        440.77501959128864 Eh           11994.09805 eV
Virial Ratio       :          2.00940220622079

DFT components:
N(Alpha)           :       41.999997220043 electrons
N(Beta)            :       40.999999330682 electrons
N(Total)           :       82.999996550726 electrons
E(X)               :      -47.954604615643 Eh       
E(C)               :       -2.767992742371 Eh       
E(XC)              :      -50.722597358014 Eh       

---------------
SCF CONVERGENCE
---------------

  Last Energy change         ...    2.3131e-09  Tolerance :   1.0000e-08
  Last MAX-Density change    ...    6.9761e-05  Tolerance :   1.0000e-07
  Last RMS-Density change    ...    1.6032e-06  Tolerance :   5.0000e-09
  Last DIIS Error            ...    6.6677e-04  Tolerance :   5.0000e-07
  Last Orbital Gradient      ...    4.0538e-05  Tolerance :   1.0000e-05
  Last Orbital Rotation      ...    1.2421e-04  Tolerance :   1.0000e-05


----------------------
UHF SPIN CONTAMINATION
----------------------

Warning: in a DFT calculation there is little theoretical justification to 
         calculate <S**2> as in Hartree-Fock theory. We will do it anyways
         but you should keep in mind that the values have only limited relevance

Expectation value of <S**2>     :     0.768202
Ideal value S*(S+1) for S=0.5   :     0.750000
Deviation                       :     0.018202

----------------
ORBITAL ENERGIES
----------------
                 SPIN UP ORBITALS
  NO   OCC          E(Eh)            E(eV) 
   0   1.0000     -14.650294      -398.6548 
   1   1.0000     -10.472424      -284.9692 
   2   1.0000     -10.435916      -283.9757 
   3   1.0000     -10.428999      -283.7875 
   4   1.0000     -10.428933      -283.7857 
   5   1.0000     -10.392780      -282.8019 
   6   1.0000     -10.383237      -282.5423 
   7   1.0000     -10.378044      -282.4009 
   8   1.0000     -10.377919      -282.3975 
   9   1.0000     -10.365616      -282.0627 
  10   1.0000     -10.361087      -281.9395 
  11   1.0000      -1.200468       -32.6664 
  12   1.0000      -1.042083       -28.3565 
  13   1.0000      -0.983118       -26.7520 
  14   1.0000      -0.950213       -25.8566 
  15   1.0000      -0.921445       -25.0738 
  16   1.0000      -0.908070       -24.7098 
  17   1.0000      -0.824147       -22.4262 
  18   1.0000      -0.809887       -22.0381 
  19   1.0000      -0.762695       -20.7540 
  20   1.0000      -0.755430       -20.5563 
  21   1.0000      -0.733446       -19.9581 
  22   1.0000      -0.704485       -19.1700 
  23   1.0000      -0.692677       -18.8487 
  24   1.0000      -0.646748       -17.5989 
  25   1.0000      -0.634708       -17.2713 
  26   1.0000      -0.615701       -16.7541 
  27   1.0000      -0.608107       -16.5474 
  28   1.0000      -0.606485       -16.5033 
  29   1.0000      -0.593584       -16.1522 
  30   1.0000      -0.583545       -15.8791 
  31   1.0000      -0.568918       -15.4811 
  32   1.0000      -0.568091       -15.4586 
  33   1.0000      -0.555333       -15.1114 
  34   1.0000      -0.521466       -14.1898 
  35   1.0000      -0.518526       -14.1098 
  36   1.0000      -0.500977       -13.6323 
  37   1.0000      -0.496926       -13.5221 
  38   1.0000      -0.490191       -13.3388 
  39   1.0000      -0.488296       -13.2872 
  40   1.0000      -0.481316       -13.0973 
  41   1.0000      -0.413916       -11.2632 
  42   0.0000      -0.160223        -4.3599 
  43   0.0000      -0.087035        -2.3683 
  44   0.0000      -0.064307        -1.7499 
  45   0.0000      -0.055013        -1.4970 
  46   0.0000      -0.052795        -1.4366 
  47   0.0000      -0.029056        -0.7906 
  48   0.0000      -0.023094        -0.6284 
  49   0.0000      -0.018921        -0.5149 
  50   0.0000      -0.014529        -0.3954 
  51   0.0000      -0.013391        -0.3644 
  52   0.0000      -0.004170        -0.1135 

                 SPIN DOWN ORBITALS
  NO   OCC          E(Eh)            E(eV) 
   0   1.0000     -14.640488      -398.3879 
   1   1.0000     -10.474032      -285.0129 
   2   1.0000     -10.429507      -283.8013 
   3   1.0000     -10.429354      -283.7971 
   4   1.0000     -10.426214      -283.7117 
   5   1.0000     -10.392681      -282.7992 
   6   1.0000     -10.383664      -282.5539 
   7   1.0000     -10.377998      -282.3997 
   8   1.0000     -10.377861      -282.3960 
   9   1.0000     -10.365615      -282.0627 
  10   1.0000     -10.361035      -281.9381 
  11   1.0000      -1.185791       -32.2670 
  12   1.0000      -1.034771       -28.1575 
  13   1.0000      -0.980538       -26.6818 
  14   1.0000      -0.945231       -25.7210 
  15   1.0000      -0.917559       -24.9681 
  16   1.0000      -0.901823       -24.5399 
  17   1.0000      -0.821992       -22.3675 
  18   1.0000      -0.804945       -21.9037 
  19   1.0000      -0.759114       -20.6565 
  20   1.0000      -0.751949       -20.4616 
  21   1.0000      -0.729014       -19.8375 
  22   1.0000      -0.690712       -18.7952 
  23   1.0000      -0.688245       -18.7281 
  24   1.0000      -0.639562       -17.4034 
  25   1.0000      -0.630926       -17.1684 
  26   1.0000      -0.611081       -16.6284 
  27   1.0000      -0.605340       -16.4721 
  28   1.0000      -0.601138       -16.3578 
  29   1.0000      -0.584806       -15.9134 
  30   1.0000      -0.579879       -15.7793 
  31   1.0000      -0.566530       -15.4161 
  32   1.0000      -0.565342       -15.3837 
  33   1.0000      -0.547119       -14.8879 
  34   1.0000      -0.520754       -14.1704 
  35   1.0000      -0.517881       -14.0922 
  36   1.0000      -0.498762       -13.5720 
  37   1.0000      -0.489557       -13.3215 
  38   1.0000      -0.486387       -13.2353 
  39   1.0000      -0.480655       -13.0793 
  40   1.0000      -0.474669       -12.9164 
  41   0.0000      -0.294079        -8.0023 
  42   0.0000      -0.126249        -3.4354 
  43   0.0000      -0.085546        -2.3278 
  44   0.0000      -0.062561        -1.7024 
  45   0.0000      -0.053571        -1.4577 
  46   0.0000      -0.051165        -1.3923 
  47   0.0000      -0.026550        -0.7225 
  48   0.0000      -0.021337        -0.5806 
  49   0.0000      -0.016544        -0.4502 
  50   0.0000      -0.012494        -0.3400 
  51   0.0000      -0.010265        -0.2793 
*Only the first 10 virtual orbitals were printed.

                    ********************************
                    * MULLIKEN POPULATION ANALYSIS *
                    ********************************

--------------------------------------------
MULLIKEN ATOMIC CHARGES AND SPIN POPULATIONS
--------------------------------------------
   0 C :   -0.218212    0.004614
   1 C :    0.086296   -0.099030
   2 C :   -0.156943    0.661947
   3 C :   -0.185515   -0.059713
   4 C :   -0.222076    0.005097
   5 C :   -0.213046    0.000918
   6 H :    0.158892    0.000655
   7 H :    0.144632   -0.000311
   8 H :    0.162205   -0.000574
   9 H :    0.142441    0.000987
  10 H :    0.180020    0.025591
  11 H :    0.181161    0.049518
  12 H :    0.158518   -0.032091
  13 N :   -0.275916    0.397340
  14 C :   -0.108147   -0.029938
  15 C :   -0.240237    0.002396
  16 C :   -0.239202    0.003719
  17 C :   -0.111073   -0.026952
  18 H :    0.185497    0.016575
  19 H :    0.185648    0.035336
  20 H :    0.176993   -0.000318
  21 H :    0.159455   -0.000086
  22 H :    0.176831   -0.000249
  23 H :    0.159346   -0.000472
  24 H :    0.182442    0.017881
  25 H :    0.179687    0.028968
  26 H :    0.173954   -0.001771
  27 H :    0.176347   -0.000036
Sum of atomic charges         :    1.0000000
Sum of atomic spin populations:    1.0000000

-----------------------------------------------------
MULLIKEN REDUCED ORBITAL CHARGES AND SPIN POPULATIONS
-----------------------------------------------------
CHARGE
  0 C s       :     3.039329  s :     3.039329
      pz      :     1.104757  p :     3.140416
      px      :     1.044765
      py      :     0.990893
      dz2     :     0.008454  d :     0.038467
      dxz     :     0.006306
      dyz     :     0.007305
      dx2y2   :     0.005834
      dxy     :     0.010568

  1 C s       :     3.036989  s :     3.036989
      pz      :     0.896141  p :     2.815088
      px      :     0.874432
      py      :     1.044515
      dz2     :     0.004145  d :     0.061627
      dxz     :     0.012592
      dyz     :     0.007731
      dx2y2   :     0.021556
      dxy     :     0.015603

  2 C s       :     3.268225  s :     3.268225
      pz      :     0.853768  p :     2.851879
      px      :     1.049411
      py      :     0.948700
      dz2     :     0.003626  d :     0.036839
      dxz     :     0.006028
      dyz     :     0.003573
      dx2y2   :     0.009024
      dxy     :     0.014589

  3 C s       :     3.021622  s :     3.021622
      pz      :     1.092592  p :     3.123732
      px      :     0.943196
      py      :     1.087944
      dz2     :     0.007014  d :     0.040161
      dxz     :     0.005120
      dyz     :     0.010288
      dx2y2   :     0.010632
      dxy     :     0.007107

  4 C s       :     3.105348  s :     3.105348
      pz      :     1.052049  p :     3.077214
      px      :     1.076735
      py      :     0.948430
      dz2     :     0.012006  d :     0.039514
      dxz     :     0.003168
      dyz     :     0.006931
      dx2y2   :     0.010857
      dxy     :     0.006551

  5 C s       :     3.105757  s :     3.105757
      pz      :     1.049370  p :     3.067603
      px      :     0.956265
      py      :     1.061969
      dz2     :     0.012380  d :     0.039685
      dxz     :     0.005013
      dyz     :     0.004936
      dx2y2   :     0.008665
      dxy     :     0.008691

  6 H s       :     0.841108  s :     0.841108

  7 H s       :     0.855368  s :     0.855368

  8 H s       :     0.837795  s :     0.837795

  9 H s       :     0.857559  s :     0.857559

 10 H s       :     0.819980  s :     0.819980

 11 H s       :     0.818839  s :     0.818839

 12 H s       :     0.841482  s :     0.841482

 13 N s       :     3.474544  s :     3.474544
      pz      :     1.402155  p :     3.769902
      px      :     1.150622
      py      :     1.217125
      dz2     :     0.002304  d :     0.031470
      dxz     :     0.005648
      dyz     :     0.004137
      dx2y2   :     0.009563
      dxy     :     0.009819

 14 C s       :     3.090635  s :     3.090635
      pz      :     1.108278  p :     2.966269
      px      :     0.975029
      py      :     0.882961
      dz2     :     0.008847  d :     0.051244
      dxz     :     0.006577
      dyz     :     0.012776
      dx2y2   :     0.007487
      dxy     :     0.015557

 15 C s       :     3.122316  s :     3.122316
      pz      :     1.084017  p :     3.079424
      px      :     0.995753
      py      :     0.999654
      dz2     :     0.011352  d :     0.038497
      dxz     :     0.004768
      dyz     :     0.006208
      dx2y2   :     0.006395
      dxy     :     0.009774

 16 C s       :     3.123652  s :     3.123652
      pz      :     1.078451  p :     3.077049
      px      :     0.993519
      py      :     1.005079
      dz2     :     0.012037  d :     0.038500
      dxz     :     0.004241
      dyz     :     0.005949
      dx2y2   :     0.006504
      dxy     :     0.009769

 17 C s       :     3.093058  s :     3.093058
      pz      :     1.111036  p :     2.966325
      px      :     0.983469
      py      :     0.871820
      dz2     :     0.009096  d :     0.051690
      dxz     :     0.006900
      dyz     :     0.012342
      dx2y2   :     0.007676
      dxy     :     0.015675

 18 H s       :     0.814503  s :     0.814503

 19 H s       :     0.814352  s :     0.814352

 20 H s       :     0.823007  s :     0.823007

 21 H s       :     0.840545  s :     0.840545

 22 H s       :     0.823169  s :     0.823169

 23 H s       :     0.840654  s :     0.840654

 24 H s       :     0.817558  s :     0.817558

 25 H s       :     0.820313  s :     0.820313

 26 H s       :     0.826046  s :     0.826046

 27 H s       :     0.823653  s :     0.823653


SPIN
  0 C s       :     0.000255  s :     0.000255
      pz      :     0.001779  p :     0.004523
      px      :     0.002084
      py      :     0.000659
      dz2     :    -0.000005  d :    -0.000163
      dxz     :    -0.000048
      dyz     :    -0.000044
      dx2y2   :    -0.000051
      dxy     :    -0.000015

  1 C s       :    -0.020587  s :    -0.020587
      pz      :    -0.043648  p :    -0.086959
      px      :    -0.018304
      py      :    -0.025007
      dz2     :     0.000093  d :     0.008516
      dxz     :     0.004968
      dyz     :     0.003295
      dx2y2   :    -0.000058
      dxy     :     0.000219

  2 C s       :     0.086520  s :     0.086520
      pz      :     0.534926  p :     0.576049
      px      :     0.024262
      py      :     0.016861
      dz2     :    -0.001827  d :    -0.000621
      dxz     :     0.000608
      dyz     :     0.000645
      dx2y2   :    -0.000106
      dxy     :     0.000059

  3 C s       :    -0.021385  s :    -0.021385
      pz      :    -0.007230  p :    -0.042916
      px      :    -0.027875
      py      :    -0.007811
      dz2     :     0.000142  d :     0.004588
      dxz     :     0.003592
      dyz     :     0.000796
      dx2y2   :     0.000020
      dxy     :     0.000037

  4 C s       :     0.001865  s :     0.001865
      pz      :     0.000461  p :     0.003200
      px      :     0.000859
      py      :     0.001881
      dz2     :     0.000008  d :     0.000032
      dxz     :    -0.000004
      dyz     :     0.000066
      dx2y2   :    -0.000027
      dxy     :    -0.000011

  5 C s       :     0.000223  s :     0.000223
      pz      :     0.000250  p :     0.000653
      px      :     0.000676
      py      :    -0.000274
      dz2     :     0.000009  d :     0.000042
      dxz     :    -0.000006
      dyz     :    -0.000010
      dx2y2   :     0.000024
      dxy     :     0.000026

  6 H s       :     0.000655  s :     0.000655

  7 H s       :    -0.000311  s :    -0.000311

  8 H s       :    -0.000574  s :    -0.000574

  9 H s       :     0.000987  s :     0.000987

 10 H s       :     0.025591  s :     0.025591

 11 H s       :     0.049518  s :     0.049518

 12 H s       :    -0.032091  s :    -0.032091

 13 N s       :     0.021815  s :     0.021815
      pz      :     0.345458  p :     0.376942
      px      :     0.014995
      py      :     0.016489
      dz2     :    -0.000703  d :    -0.001417
      dxz     :    -0.000578
      dyz     :     0.000010
      dx2y2   :    -0.000068
      dxy     :    -0.000079

 14 C s       :    -0.007046  s :    -0.007046
      pz      :    -0.008975  p :    -0.025927
      px      :    -0.006609
      py      :    -0.010342
      dz2     :     0.000010  d :     0.003035
      dxz     :     0.000237
      dyz     :     0.002777
      dx2y2   :     0.000056
      dxy     :    -0.000045

 15 C s       :     0.000082  s :     0.000082
      pz      :     0.000451  p :     0.002352
      px      :     0.000862
      py      :     0.001039
      dz2     :    -0.000011  d :    -0.000038
      dxz     :    -0.000031
      dyz     :     0.000022
      dx2y2   :    -0.000035
      dxy     :     0.000016

 16 C s       :     0.000468  s :     0.000468
      pz      :     0.000495  p :     0.003260
      px      :     0.001620
      py      :     0.001145
      dz2     :    -0.000015  d :    -0.000009
      dxz     :    -0.000022
      dyz     :     0.000035
      dx2y2   :    -0.000033
      dxy     :     0.000026

 17 C s       :    -0.007719  s :    -0.007719
      pz      :    -0.005332  p :    -0.022848
      px      :    -0.006084
      py      :    -0.011431
      dz2     :     0.000049  d :     0.003615
      dxz     :     0.000333
      dyz     :     0.003159
      dx2y2   :     0.000056
      dxy     :     0.000017

 18 H s       :     0.016575  s :     0.016575

 19 H s       :     0.035336  s :     0.035336

 20 H s       :    -0.000318  s :    -0.000318

 21 H s       :    -0.000086  s :    -0.000086

 22 H s       :    -0.000249  s :    -0.000249

 23 H s       :    -0.000472  s :    -0.000472

 24 H s       :     0.017881  s :     0.017881

 25 H s       :     0.028968  s :     0.028968

 26 H s       :    -0.001771  s :    -0.001771

 27 H s       :    -0.000036  s :    -0.000036



                     *******************************
                     * LOEWDIN POPULATION ANALYSIS *
                     *******************************

-------------------------------------------
LOEWDIN ATOMIC CHARGES AND SPIN POPULATIONS
-------------------------------------------
   0 C :   -0.228461    0.003824
   1 C :    0.037097   -0.026323
   2 C :   -0.029964    0.539157
   3 C :   -0.228249   -0.001286
   4 C :   -0.228368    0.002443
   5 C :   -0.222744    0.000644
   6 H :    0.146810    0.000695
   7 H :    0.134053   -0.000143
   8 H :    0.146799   -0.000512
   9 H :    0.134137    0.000757
  10 H :    0.164354    0.023335
  11 H :    0.170724    0.043340
  12 H :    0.154345   -0.015315
  13 N :    0.093519    0.365291
  14 C :   -0.149749   -0.009967
  15 C :   -0.228619    0.001791
  16 C :   -0.228464    0.002766
  17 C :   -0.146826   -0.005688
  18 H :    0.150840    0.013431
  19 H :    0.153988    0.027936
  20 H :    0.153557   -0.000245
  21 H :    0.143036   -0.000062
  22 H :    0.153356   -0.000170
  23 H :    0.143069   -0.000335
  24 H :    0.149181    0.013587
  25 H :    0.151119    0.022289
  26 H :    0.152421   -0.001262
  27 H :    0.159039    0.000021

----------------------------------------------------
LOEWDIN REDUCED ORBITAL CHARGES AND SPIN POPULATIONS
----------------------------------------------------
CHARGE
  0 C s       :     2.901304  s :     2.901304
      pz      :     1.118605  p :     3.237677
      px      :     1.078568
      py      :     1.040504
      dz2     :     0.018448  d :     0.089480
      dxz     :     0.012703
      dyz     :     0.016913
      dx2y2   :     0.016143
      dxy     :     0.025272

  1 C s       :     2.842928  s :     2.842928
      pz      :     0.893293  p :     2.970309
      px      :     0.966134
      py      :     1.110881
      dz2     :     0.009968  d :     0.149667
      dxz     :     0.025846
      dyz     :     0.014152
      dx2y2   :     0.056430
      dxy     :     0.043271

  2 C s       :     2.922549  s :     2.922549
      pz      :     0.842258  p :     3.019806
      px      :     1.094848
      py      :     1.082700
      dz2     :     0.007056  d :     0.087609
      dxz     :     0.011314
      dyz     :     0.006321
      dx2y2   :     0.026237
      dxy     :     0.036681

  3 C s       :     2.893733  s :     2.893733
      pz      :     1.107697  p :     3.240336
      px      :     1.039233
      py      :     1.093406
      dz2     :     0.015695  d :     0.094180
      dxz     :     0.011826
      dyz     :     0.021546
      dx2y2   :     0.027608
      dxy     :     0.017506

  4 C s       :     2.903538  s :     2.903538
      pz      :     1.102558  p :     3.234173
      px      :     1.096882
      py      :     1.034733
      dz2     :     0.026498  d :     0.090658
      dxz     :     0.006572
      dyz     :     0.016373
      dx2y2   :     0.024463
      dxy     :     0.016751

  5 C s       :     2.903609  s :     2.903609
      pz      :     1.100734  p :     3.228324
      px      :     1.029810
      py      :     1.097779
      dz2     :     0.027188  d :     0.090811
      dxz     :     0.011543
      dyz     :     0.011360
      dx2y2   :     0.021028
      dxy     :     0.019691

  6 H s       :     0.853190  s :     0.853190

  7 H s       :     0.865947  s :     0.865947

  8 H s       :     0.853201  s :     0.853201

  9 H s       :     0.865863  s :     0.865863

 10 H s       :     0.835646  s :     0.835646

 11 H s       :     0.829276  s :     0.829276

 12 H s       :     0.845655  s :     0.845655

 13 N s       :     3.081782  s :     3.081782
      pz      :     1.343036  p :     3.752884
      px      :     1.191286
      py      :     1.218563
      dz2     :     0.004356  d :     0.071816
      dxz     :     0.010419
      dyz     :     0.006937
      dx2y2   :     0.023280
      dxy     :     0.026824

 14 C s       :     2.910950  s :     2.910950
      pz      :     1.136501  p :     3.124041
      px      :     1.015401
      py      :     0.972139
      dz2     :     0.018838  d :     0.114758
      dxz     :     0.012162
      dyz     :     0.029737
      dx2y2   :     0.017739
      dxy     :     0.036282

 15 C s       :     2.910984  s :     2.910984
      pz      :     1.119836  p :     3.228475
      px      :     1.046754
      py      :     1.061885
      dz2     :     0.024930  d :     0.089159
      dxz     :     0.010046
      dyz     :     0.014098
      dx2y2   :     0.017551
      dxy     :     0.022533

 16 C s       :     2.910959  s :     2.910959
      pz      :     1.116203  p :     3.228262
      px      :     1.047380
      py      :     1.064679
      dz2     :     0.026712  d :     0.089244
      dxz     :     0.008870
      dyz     :     0.013594
      dx2y2   :     0.017820
      dxy     :     0.022248

 17 C s       :     2.909818  s :     2.909818
      pz      :     1.131818  p :     3.121182
      px      :     1.024052
      py      :     0.965312
      dz2     :     0.019133  d :     0.115826
      dxz     :     0.013325
      dyz     :     0.028915
      dx2y2   :     0.018351
      dxy     :     0.036102

 18 H s       :     0.849160  s :     0.849160

 19 H s       :     0.846012  s :     0.846012

 20 H s       :     0.846443  s :     0.846443

 21 H s       :     0.856964  s :     0.856964

 22 H s       :     0.846644  s :     0.846644

 23 H s       :     0.856931  s :     0.856931

 24 H s       :     0.850819  s :     0.850819

 25 H s       :     0.848881  s :     0.848881

 26 H s       :     0.847579  s :     0.847579

 27 H s       :     0.840961  s :     0.840961


SPIN
  0 C s       :     0.000240  s :     0.000240
      pz      :     0.002255  p :     0.004165
      px      :     0.000881
      py      :     0.001028
      dz2     :    -0.000055  d :    -0.000581
      dxz     :    -0.000125
      dyz     :    -0.000179
      dx2y2   :    -0.000108
      dxy     :    -0.000114

  1 C s       :    -0.005327  s :    -0.005327
      pz      :    -0.027711  p :    -0.041875
      px      :    -0.007742
      py      :    -0.006423
      dz2     :     0.000263  d :     0.020879
      dxz     :     0.012288
      dyz     :     0.006630
      dx2y2   :     0.000776
      dxy     :     0.000923

  2 C s       :     0.019408  s :     0.019408
      pz      :     0.498444  p :     0.521783
      px      :     0.013266
      py      :     0.010074
      dz2     :    -0.001950  d :    -0.002034
      dxz     :     0.000974
      dyz     :     0.000065
      dx2y2   :    -0.000599
      dxy     :    -0.000524

  3 C s       :    -0.003545  s :    -0.003545
      pz      :     0.006123  p :    -0.008973
      px      :    -0.011524
      py      :    -0.003573
      dz2     :     0.000486  d :     0.011232
      dxz     :     0.008105
      dyz     :     0.001825
      dx2y2   :     0.000613
      dxy     :     0.000202

  4 C s       :     0.000266  s :     0.000266
      pz      :    -0.000070  p :     0.002030
      px      :     0.000394
      py      :     0.001706
      dz2     :     0.000038  d :     0.000147
      dxz     :    -0.000017
      dyz     :     0.000219
      dx2y2   :    -0.000036
      dxy     :    -0.000057

  5 C s       :    -0.000271  s :    -0.000271
      pz      :     0.000157  p :     0.000786
      px      :     0.000685
      py      :    -0.000056
      dz2     :     0.000012  d :     0.000129
      dxz     :    -0.000019
      dyz     :    -0.000002
      dx2y2   :     0.000064
      dxy     :     0.000073

  6 H s       :     0.000695  s :     0.000695

  7 H s       :    -0.000143  s :    -0.000143

  8 H s       :    -0.000512  s :    -0.000512

  9 H s       :     0.000757  s :     0.000757

 10 H s       :     0.023335  s :     0.023335

 11 H s       :     0.043340  s :     0.043340

 12 H s       :    -0.015315  s :    -0.015315

 13 N s       :     0.013137  s :     0.013137
      pz      :     0.335084  p :     0.354613
      px      :     0.008654
      py      :     0.010875
      dz2     :    -0.000554  d :    -0.002460
      dxz     :    -0.001018
      dyz     :    -0.000052
      dx2y2   :    -0.000379
      dxy     :    -0.000457

 14 C s       :    -0.002615  s :    -0.002615
      pz      :    -0.004049  p :    -0.015521
      px      :    -0.004132
      py      :    -0.007340
      dz2     :     0.000199  d :     0.008169
      dxz     :     0.000715
      dyz     :     0.006676
      dx2y2   :     0.000236
      dxy     :     0.000343

 15 C s       :     0.000049  s :     0.000049
      pz      :     0.000071  p :     0.001853
      px      :     0.001003
      py      :     0.000778
      dz2     :    -0.000026  d :    -0.000111
      dxz     :    -0.000093
      dyz     :     0.000067
      dx2y2   :    -0.000085
      dxy     :     0.000026

 16 C s       :     0.000206  s :     0.000206
      pz      :     0.000124  p :     0.002590
      px      :     0.001680
      py      :     0.000786
      dz2     :    -0.000030  d :    -0.000030
      dxz     :    -0.000074
      dyz     :     0.000115
      dx2y2   :    -0.000089
      dxy     :     0.000048

[...]
 21:    731.42   0.002072   10.47  0.000884  ( 0.017445 -0.001982  0.023992)
 22:    766.68   0.000046    0.23  0.000019  (-0.000360  0.004112  0.001261)
 23:    839.64   0.001149    5.81  0.000427  (-0.012008  0.010284  0.013310)
 24:    861.12   0.000780    3.94  0.000283  (-0.016610 -0.001930  0.001759)
 25:    877.91   0.000274    1.38  0.000097  ( 0.008943 -0.002231 -0.003526)
 26:    887.96   0.000381    1.92  0.000134  ( 0.002667  0.001889 -0.011093)
 27:    894.68   0.000113    0.57  0.000039  ( 0.002978  0.004913 -0.002507)
 28:    934.47   0.000381    1.93  0.000127  ( 0.010933 -0.002208 -0.001730)
 29:    940.77   0.000082    0.42  0.000027  (-0.001822 -0.004444 -0.002057)
 30:    956.59   0.000217    1.10  0.000071  (-0.008198 -0.001797 -0.000602)
 31:    966.87   0.002245   11.34  0.000724  (-0.018301 -0.018922  0.005611)
 32:   1004.94   0.000654    3.30  0.000203  (-0.008445 -0.005799 -0.009904)
 33:   1006.51   0.000617    3.12  0.000191  (-0.003305  0.012970  0.003494)
 34:   1072.92   0.000476    2.40  0.000138  ( 0.008660  0.007416 -0.002891)
 35:   1078.11   0.000687    3.47  0.000199  ( 0.012950  0.004220 -0.003642)
 36:   1091.41   0.001470    7.43  0.000420  (-0.015520 -0.012755 -0.004092)
 37:   1107.45   0.000055    0.28  0.000015  (-0.003055  0.002454  0.000308)
 38:   1111.45   0.000712    3.60  0.000200  (-0.013760 -0.002673 -0.001874)
 39:   1148.36   0.000179    0.91  0.000049  (-0.000946 -0.002465  0.006458)
 40:   1174.60   0.002289   11.57  0.000608  ( 0.010988  0.022076 -0.000241)
 41:   1206.38   0.000660    3.34  0.000171  ( 0.003250 -0.001854  0.012519)
 42:   1212.66   0.000764    3.86  0.000197  (-0.013987 -0.000809 -0.000620)
 43:   1229.32   0.000571    2.88  0.000145  ( 0.010351  0.006121 -0.000515)
 44:   1254.96   0.001332    6.73  0.000331  (-0.018058 -0.002145  0.000742)
 45:   1260.22   0.000036    0.18  0.000009  (-0.001125  0.000777  0.002667)
 46:   1286.14   0.001756    8.87  0.000426  (-0.004083 -0.013696 -0.014893)
 47:   1298.90   0.001102    5.57  0.000265  ( 0.002184 -0.010369  0.012348)
 48:   1324.56   0.000027    0.13  0.000006  ( 0.002274 -0.000699  0.000786)
 49:   1337.78   0.000233    1.18  0.000054  (-0.005476  0.004533  0.001956)
 50:   1366.06   0.001039    5.25  0.000237  ( 0.015096  0.002796 -0.001271)
 51:   1369.17   0.000610    3.08  0.000139  ( 0.007113  0.009381 -0.000698)
 52:   1376.45   0.000717    3.62  0.000163  ( 0.012243 -0.003468 -0.000760)
 53:   1382.08   0.001079    5.45  0.000244  ( 0.011901  0.010090 -0.000516)
 54:   1391.77   0.005783   29.23  0.001297  (-0.034418 -0.010210 -0.002807)
 55:   1400.52   0.003875   19.58  0.000863  (-0.018900 -0.021330 -0.007158)
 56:   1404.21   0.002514   12.70  0.000559  ( 0.022182  0.008093  0.001048)
 57:   1416.74   0.000952    4.81  0.000210  (-0.012645 -0.007052 -0.000172)
 58:   1435.83   0.002930   14.81  0.000637  (-0.013024 -0.020817 -0.005816)
 59:   1465.05   0.002348   11.87  0.000500  ( 0.019699 -0.010580 -0.000390)
 60:   1473.49   0.001945    9.83  0.000412  ( 0.013797  0.014751 -0.001974)
 61:   1475.81   0.002860   14.45  0.000605  ( 0.006700  0.020285 -0.012179)
 62:   1475.91   0.004548   22.99  0.000962  ( 0.003815 -0.007563 -0.029832)
 63:   1481.83   0.002200   11.12  0.000463  (-0.018952  0.009982  0.002143)
 64:   1497.26   0.000750    3.79  0.000156  (-0.012274  0.002080 -0.001151)
 65:   1518.76   0.012573   63.54  0.002583  ( 0.048274 -0.015885  0.000795)
 66:   1550.61   0.000934    4.72  0.000188  (-0.008895 -0.010360 -0.001241)
 67:   2977.70   0.003776   19.08  0.000396  ( 0.019891 -0.000213  0.000052)
 68:   3025.96   0.001267    6.40  0.000131  (-0.011206  0.001941 -0.001150)
 69:   3044.11   0.001350    6.82  0.000138  ( 0.011518 -0.000065  0.002402)
 70:   3054.33   0.001249    6.31  0.000128  ( 0.010225 -0.004777 -0.000438)
 71:   3059.69   0.000427    2.16  0.000044  (-0.005984 -0.001834  0.002086)
 72:   3061.73   0.002790   14.10  0.000284  (-0.001557 -0.001275  0.016743)
 73:   3070.31   0.000459    2.32  0.000047  (-0.000965  0.001976 -0.006463)
 74:   3079.74   0.000451    2.28  0.000046  (-0.006668 -0.000428 -0.001007)
 75:   3086.10   0.001579    7.98  0.000160  (-0.000785  0.002591  0.012342)
 76:   3107.23   0.000322    1.62  0.000032  (-0.003487 -0.002801  0.003506)
 77:   3132.03   0.000816    4.12  0.000081  ( 0.005864 -0.005964 -0.003366)
 78:   3135.32   0.000832    4.20  0.000083  ( 0.006316  0.002485  0.006061)
 79:   3139.30   0.000047    0.24  0.000005  (-0.000454  0.001894  0.000957)
 80:   3143.15   0.000152    0.77  0.000015  (-0.000187 -0.002814 -0.002680)
 81:   3157.89   0.000038    0.19  0.000004  (-0.001897 -0.000281 -0.000184)
 82:   3162.85   0.000208    1.05  0.000020  ( 0.000037  0.001648 -0.004215)
 83:   3220.45   0.000743    3.75  0.000072  (-0.007332 -0.004265  0.000111)

* The epsilon (eps) is given for a Dirac delta lineshape.
** The dipole moment derivative (T) already includes vibrational overlap.

The first frequency considered to be a vibration is 6
The total number of vibrations considered is 78


--------------------------
THERMOCHEMISTRY AT 298.15K
--------------------------

Temperature         ...   298.15 K
Pressure            ...     1.00 atm
Total Mass          ...   151.25 AMU
Quasi RRHO          ...     True
Cut-Off Frequency   ...     1.00 cm^-1

Throughout the following assumptions are being made:
  (1) The electronic state is orbitally nondegenerate
      but the spin degeneracy is treated
  (2) There are no thermally accessible electronically excited states
  (3) Hindered rotations indicated by low frequency modes are not
      treated as such but are treated as vibrations and this may
      cause some error
  (4) All equations used are the standard statistical mechanics
      equations for an ideal gas
  (5) All vibrations are strictly harmonic

freq.      69.17  E(vib)   ...       0.50 
freq.      98.50  E(vib)   ...       0.46 
freq.     130.02  E(vib)   ...       0.43 
freq.     188.51  E(vib)   ...       0.36 
freq.     198.74  E(vib)   ...       0.35 
freq.     264.12  E(vib)   ...       0.29 
freq.     284.63  E(vib)   ...       0.28 
freq.     324.22  E(vib)   ...       0.25 
freq.     341.12  E(vib)   ...       0.23 
freq.     454.88  E(vib)   ...       0.16 
freq.     464.11  E(vib)   ...       0.16 
freq.     530.94  E(vib)   ...       0.13 
freq.     537.89  E(vib)   ...       0.12 
freq.     593.39  E(vib)   ...       0.10 
freq.     687.24  E(vib)   ...       0.07 
freq.     731.42  E(vib)   ...       0.06 
freq.     766.68  E(vib)   ...       0.06 
freq.     839.64  E(vib)   ...       0.04 
freq.     861.12  E(vib)   ...       0.04 
freq.     877.91  E(vib)   ...       0.04 
freq.     887.96  E(vib)   ...       0.04 
freq.     894.68  E(vib)   ...       0.03 
freq.     934.47  E(vib)   ...       0.03 
freq.     940.77  E(vib)   ...       0.03 
freq.     956.59  E(vib)   ...       0.03 
freq.     966.87  E(vib)   ...       0.03 
freq.    1004.94  E(vib)   ...       0.02 
freq.    1006.51  E(vib)   ...       0.02 
freq.    1072.92  E(vib)   ...       0.02 
freq.    1078.11  E(vib)   ...       0.02 
freq.    1091.41  E(vib)   ...       0.02 
freq.    1107.45  E(vib)   ...       0.02 
freq.    1111.45  E(vib)   ...       0.01 
freq.    1148.36  E(vib)   ...       0.01 
freq.    1174.60  E(vib)   ...       0.01 
freq.    1206.38  E(vib)   ...       0.01 
freq.    1212.66  E(vib)   ...       0.01 
freq.    1229.32  E(vib)   ...       0.01 
freq.    1254.96  E(vib)   ...       0.01 
freq.    1260.22  E(vib)   ...       0.01 
freq.    1286.14  E(vib)   ...       0.01 
freq.    1298.90  E(vib)   ...       0.01 
freq.    1324.56  E(vib)   ...       0.01 
freq.    1337.78  E(vib)   ...       0.01 
freq.    1366.06  E(vib)   ...       0.01 
freq.    1369.17  E(vib)   ...       0.01 
freq.    1376.45  E(vib)   ...       0.01 
freq.    1382.08  E(vib)   ...       0.01 
freq.    1391.77  E(vib)   ...       0.00 
freq.    1400.52  E(vib)   ...       0.00 
freq.    1404.21  E(vib)   ...       0.00 
freq.    1416.74  E(vib)   ...       0.00 
freq.    1435.83  E(vib)   ...       0.00 
freq.    1465.05  E(vib)   ...       0.00 
freq.    1473.49  E(vib)   ...       0.00 
freq.    1475.81  E(vib)   ...       0.00 
freq.    1475.91  E(vib)   ...       0.00 
freq.    1481.83  E(vib)   ...       0.00 
freq.    1497.26  E(vib)   ...       0.00 
freq.    1518.76  E(vib)   ...       0.00 
freq.    1550.61  E(vib)   ...       0.00 
freq.    2977.70  E(vib)   ...       0.00 
freq.    3025.96  E(vib)   ...       0.00 
freq.    3044.11  E(vib)   ...       0.00 
freq.    3054.33  E(vib)   ...       0.00 
freq.    3059.69  E(vib)   ...       0.00 
freq.    3061.73  E(vib)   ...       0.00 
freq.    3070.31  E(vib)   ...       0.00 
freq.    3079.74  E(vib)   ...       0.00 
freq.    3086.10  E(vib)   ...       0.00 
freq.    3107.23  E(vib)   ...       0.00 
freq.    3132.03  E(vib)   ...       0.00 
freq.    3135.32  E(vib)   ...       0.00 
freq.    3139.30  E(vib)   ...       0.00 
freq.    3143.15  E(vib)   ...       0.00 
freq.    3157.89  E(vib)   ...       0.00 
freq.    3162.85  E(vib)   ...       0.00 
freq.    3220.45  E(vib)   ...       0.00 

------------
INNER ENERGY
------------

The inner energy is: U= E(el) + E(ZPE) + E(vib) + E(rot) + E(trans)
    E(el)   - is the total energy from the electronic structure calculation
              = E(kin-el) + E(nuc-el) + E(el-el) + E(nuc-nuc)
    E(ZPE)  - the the zero temperature vibrational energy from the frequency calculation
    E(vib)  - the the finite temperature correction to E(ZPE) due to population
              of excited vibrational states
    E(rot)  - is the rotational thermal energy
    E(trans)- is the translational thermal energy

Summary of contributions to the inner energy U:
Electronic energy                ...   -444.94836725 Eh
Zero point energy                ...      0.25782414 Eh     161.79 kcal/mol
Thermal vibrational correction   ...      0.00735041 Eh       4.61 kcal/mol
Thermal rotational correction    ...      0.00141627 Eh       0.89 kcal/mol
Thermal translational correction ...      0.00141627 Eh       0.89 kcal/mol
-----------------------------------------------------------------------
Total thermal energy                   -444.68036016 Eh


Summary of corrections to the electronic energy:
(perhaps to be used in another calculation)
Total thermal correction                  0.01018295 Eh       6.39 kcal/mol
Non-thermal (ZPE) correction              0.25782414 Eh     161.79 kcal/mol
-----------------------------------------------------------------------
Total correction                          0.26800709 Eh     168.18 kcal/mol


--------
ENTHALPY
--------

The enthalpy is H = U + kB*T
                kB is Boltzmann's constant
Total thermal energy              ...   -444.68036016 Eh 
Thermal Enthalpy correction       ...      0.00094421 Eh       0.59 kcal/mol
-----------------------------------------------------------------------
Total Enthalpy                    ...   -444.67941595 Eh


Note: Only C1 symmetry has been detected, increase convergence thresholds 
      if your molecule has a higher symmetry. Symmetry factor of 1.0 is   
      used for the rotational entropy correction. 
 

Note: Rotational entropy computed according to Herzberg 
Infrared and Raman Spectra, Chapter V,1, Van Nostrand Reinhold, 1945 
Point Group:  C1, Symmetry Number:   1  
Rotational constants in cm-1:     0.091390     0.021094     0.017904 

Vibrational entropy computed according to the QRRHO of S. Grimme
Chem.Eur.J. 2012 18 9955 using a reference frequency of 100.0 cm-1


-------
ENTROPY
-------

The entropy contributions are T*S = T*(S(el)+S(vib)+S(rot)+S(trans))
     S(el)   - electronic entropy
     S(vib)  - vibrational entropy
     S(rot)  - rotational entropy
     S(trans)- translational entropy
The entropies will be listed as multiplied by the temperature to get
units of energy

Electronic entropy                ...      0.00065446 Eh      0.41 kcal/mol
Vibrational entropy               ...      0.01227808 Eh      7.70 kcal/mol
Rotational entropy                ...      0.01436112 Eh      9.01 kcal/mol
Translational entropy             ...      0.01945727 Eh     12.21 kcal/mol
-----------------------------------------------------------------------
Final entropy term                ...      0.04675093 Eh     29.34 kcal/mol

In case the symmetry of your molecule has not been determined correctly
or in case you have a reason to use a different symmetry number we print 
out the resulting rotational entropy values for sn=1,12:

 non-linear molecules -----------------------------------
|  sn= 1 | S(rot)=       0.01436112 Eh      9.01 kcal/mol|
|  sn= 2 | S(rot)=       0.01370667 Eh      8.60 kcal/mol|
|  sn= 3 | S(rot)=       0.01332383 Eh      8.36 kcal/mol|
|  sn= 4 | S(rot)=       0.01305221 Eh      8.19 kcal/mol|
|  sn= 5 | S(rot)=       0.01284152 Eh      8.06 kcal/mol|
|  sn= 6 | S(rot)=       0.01266938 Eh      7.95 kcal/mol|
|  sn= 7 | S(rot)=       0.01252383 Eh      7.86 kcal/mol|
|  sn= 8 | S(rot)=       0.01239775 Eh      7.78 kcal/mol|
|  sn= 9 | S(rot)=       0.01228654 Eh      7.71 kcal/mol|
|  sn=10 | S(rot)=       0.01218707 Eh      7.65 kcal/mol|
|  sn=11 | S(rot)=       0.01209708 Eh      7.59 kcal/mol|
|  sn=12 | S(rot)=       0.01201492 Eh      7.54 kcal/mol|
 linear molecules ---------------------------------------
|  Dinfh | S(rot)=       0.00912399 Eh      5.73 kcal/mol|
|  Cinfv | S(rot)=       0.00977844 Eh      6.14 kcal/mol|
 --------------------------------------------------------


-------------------
GIBBS FREE ENERGY
-------------------

The Gibbs free energy is G = H - T*S

Total enthalpy                    ...   -444.67941595 Eh 
Total entropy correction          ...     -0.04675093 Eh    -29.34 kcal/mol
-----------------------------------------------------------------------
Final Gibbs free energy         ...   -444.72616688 Eh

For completeness - the Gibbs free energy minus the electronic energy
G-E(el)                           ...      0.22220037 Eh    139.43 kcal/mol


Maximum memory used throughout the entire PROP-calculation: 152.0 MB

--------------------------------
SUGGESTED CITATIONS FOR THIS RUN
--------------------------------

Below you find a list of papers that are relevant to this ORCA run
We neither can nor want to force you to cite these papers, but we appreciate if you do
You receive ORCA, which is the product of decades of hard work by many enthusiastic individuals, for free
The only thing we kindly ask in return is that you cite our papers,
We deeply appreciate it, if you show your appreciation for ORCA by not just citing the generic ORCA reference.

Please note that relegating all ORCA citations to the supporting information does *not* help us.
SI sections are not indexed - citations you put there will not count into any citation statistics
But we need these citations in order to attract the funding resources that allow us to do what we are doing

Therefore, if you are a happy ORCA user, please consider citing a few of the papers listed below in the main body of your paper

In addition to the list printed below, the program has created the file cs_rporg_063_ox_opt_01.bibtex that contains the list in bibtex format
You can import this file easily into all common literature databanks and citation aid programs


List of essential papers. We consider these as the minimum necessary citations

  1. Neese,F.
     Software update: the ORCA program system, version 5.0
     WIRES Comput. Molec. Sci., 2022 12(1)e1606
     doi.org/10.1002/wcms.1606

List of papers to cite with high priority. The work reported in these papers was absolutely
necessary for this run to complete.
Our perspective: the developers of density functionals and basis sets usually get cited in chemistry papers
Good! But without the algorithms to do something with them, the functionals or basis sets would not do anything.
Hence, in our opinion, the algorithm design and method developments papers are equally worthy of getting cited

  1. Neese,F.
     An improvement of the resolution of the identity approximation for the formation of the Coulomb matrix
     J. Comp. Chem., 2003 24(14)1740-1747
     doi.org/10.1002/jcc.10318
  2. Neese,F.; Wennmohs,F.; Hansen,A.; Becker,U.
     Efficient, approximate and parallel Hartree-Fock and hybrid DFT calculations. A 'chain-of-spheres' algorithm for the Hartree-Fock exchange
     Chem. Phys., 2009 356(1-3)98-109
     doi.org/10.1016/j.chemphys.2008.10.036
  3. Bykov,D.; Petrenko,T.; Izsak,R.; Kossmann,S.; Becker,U.; Valeev,E.; Neese,F.
     Efficient implementation of the analytic second derivatives of Hartree-Fock and hybrid DFT energies: a detailed analysis of different approximations
     Molec. Phys., 2015 113 1961-1977
     doi.org/10.1080/00268976.2015.1025114
  4. Helmich-Paris,B.; de Souza,B.; Neese,F.; Izsák,R.
     An improved chain of spheres for exchange algorithm
     J. Chem. Phys., 2021 155 104109
     doi.org/doi: 10.1063/5.0058766.
  5. Neese,F.
     The SHARK Integral Generation and Digestion System
     J. Comp. Chem., 2022  1-16
     doi.org/10.1002/jcc.26942
  6. Grimme,S.; Antony,J.; Ehrlich,S.; Krieg,H.
     A consistent and accurate ab initio parametrization of density functional dispersion correction (DFT-D) for the 94 elements H-Pu
     J. Chem. Phys., 2010 132 154104-XXXX
     doi.org/10.1063/1.3382344
  7. Grimme,S.; Ehrlich,S.; Goerigk,L.
     Effect of the damping function in dispersion corrected density functional theory
     J. Comput. Chem., 2011 32(7)1456-1465
     doi.org/10.1002/jcc.21759

List of suggested additional citations. These are papers that are important in the 'surrounding' of 
of this run, or papers that preceded the highly important papers. If you like your results we are grateful for a citation.

  1. Izsak,R.; Neese,F.
     An overlap fitted chain of spheres exchange method
     J. Chem. Phys., 2011 135 144105
     doi.org/10.1063/1.3646921
  2. Izsak,R.; Hansen,A.; Neese,F.
     The resolution of identity and chain of spheres approximations for the LPNO-CCSD singles Fock term
     Molec. Phys., 2012 110 2413-2417
     doi.org/10.1080/00268976.2012.687466
  3. Neese,F.
     The ORCA program system
     WIRES Comput. Molec. Sci., 2012 2(1)73-78
     doi.org/10.1002/wcms.81
  4. Izsak,R.; Neese,F.; Klopper,W.
     Robust fitting techniques in the chain of spheres approximation to the Fock exchange: The role of the complementary space
     J. Chem. Phys., 2013 139 
     doi.org/10.1063/1.4819264
  5. Neese,F.
     Software update: the ORCA program system, version 4.0
     WIRES Comput. Molec. Sci., 2018 8(1)1-6
     doi.org/10.1002/wcms.1327
  6. Neese,F.; Wennmohs,F.; Becker,U.; Riplinger,C.
     The ORCA quantum chemistry program package
     J. Chem. Phys., 2020 152 Art. No. L224108
     doi.org/10.1063/5.0004608

List of optional additional citations

  1. Neese,F.
     Approximate second-order SCF convergence for spin unrestricted wavefunctions
     Chem. Phys. Lett., 2000 325(1-3)93-98
     doi.org/10.1016/s0009-2614(00)00662-x

Timings for individual modules:

Sum of individual times          ...      917.888 sec (=  15.298 min)
Startup calculation              ...       34.262 sec (=   0.571 min)   3.7 %
SCF iterations                   ...      306.555 sec (=   5.109 min)  33.4 %
Property integrals               ...      115.668 sec (=   1.928 min)  12.6 %
SCF Response                     ...      175.465 sec (=   2.924 min)  19.1 %
Property calculations            ...      163.385 sec (=   2.723 min)  17.8 %
SCF Gradient evaluation          ...      121.812 sec (=   2.030 min)  13.3 %
Geometry relaxation              ...        0.741 sec (=   0.012 min)   0.1 %
                             ****ORCA TERMINATED NORMALLY****
TOTAL RUN TIME: 0 days 0 hours 15 minutes 45 seconds 900 msec
