
                                 *****************
                                 * O   R   C   A *
                                 *****************

                                            #,                                       
                                            ###                                      
                                            ####                                     
                                            #####                                    
                                            ######                                   
                                           ########,                                 
                                     ,,################,,,,,                         
                               ,,#################################,,                 
                          ,,##########################################,,             
                       ,#########################################, ''#####,          
                    ,#############################################,,   '####,        
                  ,##################################################,,,,####,       
                ,###########''''           ''''###############################       
              ,#####''   ,,,,##########,,,,          '''####'''          '####       
            ,##' ,,,,###########################,,,                        '##       
           ' ,,###''''                  '''############,,,                           
         ,,##''                                '''############,,,,        ,,,,,,###''
      ,#''                                            '''#######################'''  
     '                                                          ''''####''''         
             ,#######,   #######,   ,#######,      ##                                
            ,#'     '#,  ##    ##  ,#'     '#,    #''#        ,####,   ,####,        
            ##       ##  ##   ,#'  ##            #'  '#       #'       #'  '#        
            ##       ##  #######   ##           ,######,      #####,   #    #        
            '#,     ,#'  ##    ##  '#,     ,#' ,#      #,     #,   #   #,  ,#        
             '#######'   ##     ##  '#######'  #'      '#     '####' # '####'        



                #########################################################
                #                        -***-                          #
                #          Department of theory and spectroscopy        #
                #                                                       #
                #                      Frank Neese                      #
                #                                                       #
                #     Directorship, Architecture, Infrastructure        #
                #                    SHARK, DRIVERS                     #
                #        Core code/Algorithms in most modules           #
                #                                                       #
                #        Max Planck Institute fuer Kohlenforschung      #
                #                Kaiser Wilhelm Platz 1                 #
                #                 D-45470 Muelheim/Ruhr                 #
                #                      Germany                          #
                #                                                       #
                #                  All rights reserved                  #
                #                        -***-                          #
                #########################################################


                         Program Version 6.0.0  -   RELEASE  -


 With contributions from (in alphabetic order):
   Daniel Aravena         : Magnetic Suceptibility
   Michael Atanasov       : Ab Initio Ligand Field Theory (pilot matlab implementation)
   Alexander A. Auer      : GIAO ZORA, VPT2 properties, NMR spectrum
   Ute Becker             : All parallelization in ORCA, NUMFREQ, NUMCALC
   Giovanni Bistoni       : ED, misc. LED, open-shell LED, HFLD
   Martin Brehm           : Molecular dynamics
   Dmytro Bykov           : pre 5.0 version of the SCF Hessian
   Marcos Casanova-Páez   : Triplet and SCS-CIS(D). UHF-(DLPNO)-IP/EA/STEOM-CCSD. UHF-CVS-IP/STEOM-CCSD
   Vijay G. Chilkuri      : MRCI spin determinant printing, contributions to CSF-ICE
   Pauline Colinet        : FMM embedding
   Dipayan Datta          : RHF DLPNO-CCSD density
   Achintya Kumar Dutta   : EOM-CC, STEOM-CC
   Nicolas Foglia         : Exact transition moments, OPA infrastructure, MCD improvements
   Dmitry Ganyushin       : Spin-Orbit,Spin-Spin,Magnetic field MRCI
   Miquel Garcia          : C-PCM and meta-GGA Hessian, CCSD/C-PCM, Gaussian charge scheme
   Tiago L. C. Gouveia    : GS-ROHF, GS-ROCIS
   Yang Guo               : DLPNO-NEVPT2, F12-NEVPT2, CIM, IAO-localization
   Andreas Hansen         : Spin unrestricted coupled pair/coupled cluster methods
   Ingolf Harden          : AUTO-CI MPn and infrastructure 
   Benjamin Helmich-Paris : MC-RPA, TRAH-(SCF,CASSCF), AVAS, COSX integrals, SCF dyn. polar.
   Lee Huntington         : MR-EOM, pCC
   Robert Izsak           : Overlap fitted RIJCOSX, COSX-SCS-MP3, EOM
   Riya Kayal             : Wick's Theorem for AUTO-CI, AUTO-CI UHF-CCSDT
   Emily Kempfer          : AUTO-CI, RHF CISDT and CCSDT
   Christian Kollmar      : KDIIS, OOCD, Brueckner-CCSD(T), CCSD density, CASPT2, CASPT2-K, improved NEVPT2
   Axel Koslowski         : Symmetry handling
   Simone Kossmann        : Meta GGA functionals, TD-DFT gradient, OOMP2, (MP2 Hessian; deprecated post 5.0)
   Lucas Lang             : DCDCAS
   Marvin Lechner         : AUTO-CI (C++ implementation), FIC-MRCC
   Spencer Leger          : CASSCF response
   Dagmar Lenk            : GEPOL surface, SMD, ORCA-2-JSON
   Dimitrios Liakos       : Extrapolation schemes; Compound Job, initial MDCI parallelization
   Dimitrios Manganas     : Further ROCIS development; embedding schemes. LFT, Crystal Embedding
   Dimitrios Pantazis     : SARC Basis sets
   Anastasios Papadopoulos: AUTO-CI, single reference methods and gradients
   Taras Petrenko         : pre 6.0 DFT Hessian and TD-DFT gradient, (ASA, deprecated), ECA, 1-Electron XAS/XES, NRVS
   Peter Pinski           : DLPNO-MP2, DLPNO-MP2 Gradient
   Christoph Reimann      : Effective Core Potentials
   Marius Retegan         : Local ZFS, SOC
   Christoph Riplinger    : Optimizer, TS searches, QM/MM, DLPNO-CCSD(T), (RO)-DLPNO pert. Triples
   Michael Roemelt        : Original ROCIS implementation
   Masaaki Saitow         : Open-shell DLPNO-CCSD energy and density
   Barbara Sandhoefer     : DKH picture change effects
   Kantharuban Sivalingam : CASSCF convergence/infrastructure, NEVPT2 and variants, FIC-MRCI
   Bernardo de Souza      : ESD, SOC TD-DFT
   Georgi Stoychev        : AutoAux, RI-MP2 NMR, DLPNO-MP2 response, X2C
   Van Anh Tran           : RI-MP2 g-tensors
   Willem Van den Heuvel  : Paramagnetic NMR
   Zikuan Wang            : NOTCH, Electric field optimization 
   Frank Wennmohs         : Technical directorship and infrastructure
   Hang Xu                : AUTO-CI-Response properties 


 We gratefully acknowledge several colleagues who have allowed us to
 interface, adapt or use parts of their codes:
   Stefan Grimme, W. Hujo, H. Kruse, P. Pracht,  : VdW corrections, initial TS optimization,
                  C. Bannwarth, S. Ehlert,         DFT functionals, gCP, sTDA/sTD-DF
                  L. Wittmann, M. Mueller
   Ed Valeev, F. Pavosevic, A. Kumar             : LibInt (2-el integral package), F12 methods
   Garnet Chan, S. Sharma, J. Yang, R. Olivares  : DMRG
   Ulf Ekstrom                                   : XCFun DFT Library
   Mihaly Kallay                                 : mrcc  (arbitrary order and MRCC methods)
   Frank Weinhold                                : gennbo (NPA and NBO analysis)
   Simon Mueller                                 : openCOSMO-RS
   Christopher J. Cramer and Donald G. Truhlar   : smd solvation model
   Lars Goerigk                                  : TD-DFT with DH, B97 family of functionals
   V. Asgeirsson, H. Jonsson                     : NEB implementation
   FAccTs GmbH                                   : IRC, NEB, NEB-TS, DLPNO-Multilevel, CI-OPT
                                                   MM, QMMM, 2- and 3-layer-ONIOM, Crystal-QMMM,
                                                   LR-CPCM, SF, NACMEs, symmetry and pop. for TD-DFT,
                                                   nearIR, NL-DFT gradient (VV10), updates on ESD,
                                                   ML-optimized integration grids, MBIS, APM,
                                                   GOAT, DOCKER, SOLVATOR, interface openCOSMO-RS
   S Lehtola, MJT Oliveira, MAL Marques          : LibXC Library
   Liviu Ungur et al                             : ANISO software


 Your calculation uses the libint2 library for the computation of 2-el integrals
 For citations please refer to: http://libint.valeyev.net

 Your ORCA version has been built with support for libXC version: 6.2.2
 For citations please refer to: https://libxc.gitlab.io

 This ORCA versions uses:
   CBLAS   interface :  Fast vector & matrix operations
   LAPACKE interface :  Fast linear algebra routines
   SCALAPACK package :  Parallel linear algebra routines
   Shared memory     :  Shared parallel matrices
   BLAS/LAPACK       :  OpenBLAS 0.3.27  USE64BITINT DYNAMIC_ARCH NO_AFFINITY Sandybridge SINGLE_THREADED
        Core in use  :  Sandybridge
   Copyright (c) 2011-2014, The OpenBLAS Project


NOTE: MaxCore=5000 MB was set to SCF,MP2,MDCI,CIPSI,MRCI and CIS
      => If you want to overwrite this, your respective input block should be placed after the MaxCore statement
Your calculation utilizes the atom-pairwise dispersion correction
with the Becke-Johnson damping scheme (D3BJ)


Your calculation utilizes the SMD solvation module
Please cite in your paper:
A.V. Marenich, C.J. Cramer, D.G. Truhlar J. Phys. Chem. B, 113, (2009), 6378 

Warning: RI is on but no J-basis has been assigned. Assigning Def2/J (nothing to worry about!)
================================================================================

----- Orbital basis set information -----
Your calculation utilizes the basis: aug-cc-pVTZ 
    H, B-Ne : Obtained from the ccRepo (grant-hill.group.shef.ac.uk/ccrepo) Feb. 2017
              R. A. Kendall, T. H. Dunning, Jr., R. J. Harrison, J. Chem. Phys. 96, 6796 (1992)
         He : Obtained from the ccRepo (grant-hill.group.shef.ac.uk/ccrepo) Feb. 2017
              D. E. Woon, T. H. Dunning, Jr., J. Chem. Phys. 100, 2975 (1994)
  Li-Be, Na : Obtained from the ccRepo (grant-hill.group.shef.ac.uk/ccrepo) Feb. 2017
              B. P. Prascher, D. E. Woon, K. A. Peterson, T. H. Dunning, Jr., A. K. Wilson, Theor. Chem. Acc. 128, 69 (2011)
         Mg : Obtained from the Peterson Research Group Website (tyr0.chem.wsu.edu/~kipeters) Feb. 2017
              B. P. Prascher, D. E. Woon, K. A. Peterson, T. H. Dunning, Jr., A. K. Wilson, Theor. Chem. Acc. 128, 69 (2011)
      Al-Ar : Obtained from the ccRepo (grant-hill.group.shef.ac.uk/ccrepo) Feb. 2017
              D. E. Woon, T. H. Dunning, Jr., J. Chem. Phys. 98, 1358 (1993)
      Sc-Zn : Obtained from the ccRepo (grant-hill.group.shef.ac.uk/ccrepo) Feb. 2017
              N. B. Balabanov, K. A. Peterson, J. Chem. Phys. 123, 064107 (2005)
              N. B. Balabanov, K. A. Peterson, J. Chem. Phys. 125, 074110 (2006)
      Ga-Kr : Obtained from the ccRepo (grant-hill.group.shef.ac.uk/ccrepo) Feb. 2017
              A. K. Wilson, D. E. Woon, K. A. Peterson, T. H. Dunning, Jr., J. Chem. Phys. 110, 7667 (1999)
     Ag, Au : Obtained from the Peterson Research Group Website (tyr0.chem.wsu.edu/~kipeters) Feb. 2017
              K. A. Peterson, C. Puzzarini, Theor. Chem. Acc. 114, 283 (2005)

----- AuxJ basis set information -----
Your calculation utilizes the auxiliary basis: def2/J
   F. Weigend, Phys. Chem. Chem. Phys. 8, 1057 (2006).

================================================================================
                                        WARNINGS
                       Please study these warnings very carefully!
================================================================================

Using LibXC functional ID 497 : Re-regularized SCAN exchange by Furness et al
[ 1]  J. W. Furness, A. D. Kaplan, J. Ning, J. P. Perdew, and J. Sun.,  J. Phys. Chem. Lett. 11, 8208-8215 (2020)
[ 2]  J. W. Furness, A. D. Kaplan, J. Ning, J. P. Perdew, and J. Sun.,  J. Phys. Chem. Lett. 11, 9248-9248 (2020)
Using LibXC functional ID 498 : Re-regularized SCAN correlation by Furness et al
[ 1]  J. W. Furness, A. D. Kaplan, J. Ning, J. P. Perdew, and J. Sun.,  J. Phys. Chem. Lett. 11, 8208-8215 (2020)
[ 2]  J. W. Furness, A. D. Kaplan, J. Ning, J. P. Perdew, and J. Sun.,  J. Phys. Chem. Lett. 11, 9248-9248 (2020)
Using LibXC functional ID 497 : Re-regularized SCAN exchange by Furness et al
[ 1]  J. W. Furness, A. D. Kaplan, J. Ning, J. P. Perdew, and J. Sun.,  J. Phys. Chem. Lett. 11, 8208-8215 (2020)
[ 2]  J. W. Furness, A. D. Kaplan, J. Ning, J. P. Perdew, and J. Sun.,  J. Phys. Chem. Lett. 11, 9248-9248 (2020)
Using LibXC functional ID 498 : Re-regularized SCAN correlation by Furness et al
[ 1]  J. W. Furness, A. D. Kaplan, J. Ning, J. P. Perdew, and J. Sun.,  J. Phys. Chem. Lett. 11, 8208-8215 (2020)
[ 2]  J. W. Furness, A. D. Kaplan, J. Ning, J. P. Perdew, and J. Sun.,  J. Phys. Chem. Lett. 11, 9248-9248 (2020)

WARNING: your system is open-shell and RHF/RKS was chosen
  ===> : WILL SWITCH to UHF/UKS


================================================================================
                                       INPUT FILE
================================================================================
NAME = cs_rporg_075_ox_freq_07.inp
|  1> !r2SCANh freq aug-cc-pVTZ d3 TightSCF SlowConv RIJCOSX defgrid2
|  2> 
|  3> %pal
|  4> nprocs 12
|  5> end
|  6> 
|  7> %scf
|  8> MaxIter 1500
|  9> end
| 10> 
| 11> %maxcore 5000
| 12> 
| 13> !CPCM
| 14> %cpcm smd true
| 15> SMDsolvent "MeCN"
| 16> surfacetype gepol_ses
| 17> rsolv 2.19
| 18> end 
| 19> 
| 20> * xyz 1 2
| 21> C          -0.22399642270064     -1.23718661443115     -0.03912800535607
| 22> C           1.14126676954659     -1.22168962309004      0.00222337769903
| 23> C           1.83401750028814     -0.00003911773010      0.02318012405605
| 24> C           1.14130994145843      1.22163673294070      0.00222799813539
| 25> C          -0.22395215378644      1.23718059997669     -0.03913531478612
| 26> C          -0.93180734604038      0.00000902891271     -0.05980084503908
| 27> N          -2.25078206624055      0.00003085258265     -0.09805402548754
| 28> H          -2.77388696694565      0.86352388498415     -0.11458464132867
| 29> H          -2.77391607787280     -0.86344516850113     -0.11457505052765
| 30> H          -0.78418090174284      2.16118721512492     -0.05638526787170
| 31> H           1.69204260751496      2.15041632009284      0.01869246812679
| 32> H           2.91374623148226     -0.00006021708029      0.05514256963886
| 33> H           1.69196568705163     -2.15048953253659      0.01868288600748
| 34> H          -0.78425850201272     -2.16117436124535     -0.05636147326678
| 35> *
| 36> 
| 37>                          ****END OF INPUT****
================================================================================

                       ****************************
                       * Single Point Calculation *
                       ****************************

---------------------------------
CARTESIAN COORDINATES (ANGSTROEM)
---------------------------------
  C     -0.223996   -1.237187   -0.039128
  C      1.141267   -1.221690    0.002223
  C      1.834018   -0.000039    0.023180
  C      1.141310    1.221637    0.002228
  C     -0.223952    1.237181   -0.039135
  C     -0.931807    0.000009   -0.059801
  N     -2.250782    0.000031   -0.098054
  H     -2.773887    0.863524   -0.114585
  H     -2.773916   -0.863445   -0.114575
  H     -0.784181    2.161187   -0.056385
  H      1.692043    2.150416    0.018692
  H      2.913746   -0.000060    0.055143
  H      1.691966   -2.150490    0.018683
  H     -0.784259   -2.161174   -0.056361

----------------------------
CARTESIAN COORDINATES (A.U.)
----------------------------
  NO LB      ZA    FRAG     MASS         X           Y           Z
   0 C     6.0000    0    12.011   -0.423292   -2.337944   -0.073941
   1 C     6.0000    0    12.011    2.156682   -2.308659    0.004202
   2 C     6.0000    0    12.011    3.465791   -0.000074    0.043804
   3 C     6.0000    0    12.011    2.156763    2.308559    0.004210
   4 C     6.0000    0    12.011   -0.423208    2.337933   -0.073955
   5 C     6.0000    0    12.011   -1.760861    0.000017   -0.113007
   6 N     7.0000    0    14.007   -4.253362    0.000058   -0.185295
   7 H     1.0000    0     1.008   -5.241887    1.631824   -0.216534
   8 H     1.0000    0     1.008   -5.241942   -1.631675   -0.216515
   9 H     1.0000    0     1.008   -1.481887    4.084052   -0.106553
  10 H     1.0000    0     1.008    3.197497    4.063698    0.035324
  11 H     1.0000    0     1.008    5.506182   -0.000114    0.104204
  12 H     1.0000    0     1.008    3.197352   -4.063836    0.035306
  13 H     1.0000    0     1.008   -1.482034   -4.084028   -0.106508

--------------------------------
INTERNAL COORDINATES (ANGSTROEM)
--------------------------------
 C      0   0   0     0.000000000000     0.00000000     0.00000000
 C      1   0   0     1.365977187850     0.00000000     0.00000000
 C      2   1   0     1.404554277131   120.21717392     0.00000000
 C      3   2   1     1.404554960745   120.86776578     0.00000000
 C      4   3   2     1.365976985227   120.21709412     0.00000000
 C      1   2   3     1.425509287731   119.13474473   359.96359185
 N      6   1   2     1.319529317150   119.78574441   180.08436320
 H      7   6   1     1.009718879396   121.22102480   180.08346387
 H      7   6   1     1.009719256715   121.22102897   359.90382589
 H      5   4   3     1.080713669644   121.89262629   180.01891399
 H      4   3   2     1.079911602745   119.75727212   180.01197058
 H      3   2   1     1.080201708635   119.56601423   180.04515908
 H      2   1   3     1.079911794983   120.02550230   180.01468642
 H      1   2   3     1.080714553522   121.89266623   179.98231426

---------------------------
INTERNAL COORDINATES (A.U.)
---------------------------
 C      0   0   0     0.000000000000     0.00000000     0.00000000
 C      1   0   0     2.581322790220     0.00000000     0.00000000
 C      2   1   0     2.654222924005   120.21717392     0.00000000
 C      3   2   1     2.654224215848   120.86776578     0.00000000
 C      4   3   2     2.581322407319   120.21709412     0.00000000
 C      1   2   3     2.693822155174   119.13474473   359.96359185
 N      6   1   2     2.493549035093   119.78574441   180.08436320
 H      7   6   1     1.908092154307   121.22102480   180.08346387
 H      7   6   1     1.908092867338   121.22102897   359.90382589
 H      5   4   3     2.042252864813   121.89262629   180.01891399
 H      4   3   2     2.040737178033   119.75727212   180.01197058
 H      3   2   1     2.041285398715   119.56601423   180.04515908
 H      2   1   3     2.040737541309   120.02550230   180.01468642
 H      1   2   3     2.042254535099   121.89266623   179.98231426

---------------------
BASIS SET INFORMATION
---------------------
There are 3 groups of distinct atoms

 Group   1 Type C   : 19s6p3d2f contracted to 5s4p3d2f pattern {88111/3111/111/11}
 Group   2 Type N   : 19s6p3d2f contracted to 5s4p3d2f pattern {88111/3111/111/11}
 Group   3 Type H   : 6s3p2d contracted to 4s3p2d pattern {3111/111/11}

Atom   0C    basis set group =>   1
Atom   1C    basis set group =>   1
Atom   2C    basis set group =>   1
Atom   3C    basis set group =>   1
Atom   4C    basis set group =>   1
Atom   5C    basis set group =>   1
Atom   6N    basis set group =>   2
Atom   7H    basis set group =>   3
Atom   8H    basis set group =>   3
Atom   9H    basis set group =>   3
Atom  10H    basis set group =>   3
Atom  11H    basis set group =>   3
Atom  12H    basis set group =>   3
Atom  13H    basis set group =>   3
---------------------------------
AUXILIARY/J BASIS SET INFORMATION
---------------------------------
There are 3 groups of distinct atoms

 Group   1 Type C   : 12s5p4d2f1g contracted to 6s4p3d1f1g pattern {711111/2111/211/2/1}
 Group   2 Type N   : 12s5p4d2f1g contracted to 6s4p3d1f1g pattern {711111/2111/211/2/1}
 Group   3 Type H   : 5s2p1d contracted to 3s1p1d pattern {311/2/1}

Atom   0C    basis set group =>   1
Atom   1C    basis set group =>   1
Atom   2C    basis set group =>   1
Atom   3C    basis set group =>   1
Atom   4C    basis set group =>   1
Atom   5C    basis set group =>   1
Atom   6N    basis set group =>   2
Atom   7H    basis set group =>   3
Atom   8H    basis set group =>   3
Atom   9H    basis set group =>   3
Atom  10H    basis set group =>   3
Atom  11H    basis set group =>   3
Atom  12H    basis set group =>   3
Atom  13H    basis set group =>   3


           ************************************************************
           *        Program running with 12 parallel MPI-processes    *
           *              working on a common directory               *
           ************************************************************
------------------------------------------------------------------------------
                             ORCA STARTUP CALCULATIONS
                           -- RI-GTO INTEGRALS CHOSEN --
------------------------------------------------------------------------------
------------------------------------------------------------------------------
                   ___                                                        
                  /   \      - P O W E R E D   B Y -                         
                 /     \                                                     
                 |  |  |   _    _      __       _____    __    __             
                 |  |  |  | |  | |    /  \     |  _  \  |  |  /  |          
                  \  \/   | |  | |   /    \    | | | |  |  | /  /          
                 / \  \   | |__| |  /  /\  \   | |_| |  |  |/  /          
                |  |  |   |  __  | /  /__\  \  |    /   |      \           
                |  |  |   | |  | | |   __   |  |    \   |  |\   \          
                \     /   | |  | | |  |  |  |  | |\  \  |  | \   \       
                 \___/    |_|  |_| |__|  |__|  |_| \__\ |__|  \__/        
                                                                              
                      - O R C A' S   B I G   F R I E N D -                    
                                      &                                       
                       - I N T E G R A L  F E E D E R -                       
                                                                              
 v1 FN, 2020, v2 2021, v3 2022-2024                                           
------------------------------------------------------------------------------


----------------------
SHARK INTEGRAL PACKAGE
----------------------

Number of atoms                             ...     14
Number of basis functions                   ...    525
Number of shells                            ...    203
Maximum angular momentum                    ...      3
Integral batch strategy                     ... SHARK/LIBINT Hybrid
RI-J (if used) integral strategy            ... SPLIT-RIJ (Revised 2003 algorithm where possible)
Printlevel                                  ...      1
Contraction scheme used                     ... PARTIAL GENERAL contraction
Prescreening option                         ... SCHWARTZ
   Thresh                                   ... 2.500e-11
   Tcut                                     ... 2.500e-12
   Tpresel                                  ... 2.500e-12 
Coulomb Range Separation                    ... NOT USED
Exchange Range Separation                   ... NOT USED
Multipole approximations                    ... NOT USED
Finite Nucleus Model                        ... NOT USED
CABS basis                                  ... NOT available
Auxiliary Coulomb fitting basis             ... AVAILABLE
   # of basis functions in Aux-J            ...    420
   # of shells in Aux-J                     ...    140
   Maximum angular momentum in Aux-J        ...      4
Auxiliary J/K fitting basis                 ... NOT available
Auxiliary Correlation fitting basis         ... NOT available
Auxiliary 'external' fitting basis          ... NOT available

Checking pre-screening integrals            ... done (  0.1 sec) Dimension = 203
Save PGC pre-screening integrals            ... done (  0.1 sec) Dimension = 203
Calculate PGC overlap integrals             ... done (  0.2 sec) Dimension = 161
Calculating pre-screening integrals (ORCA)  ... done (  0.3 sec) Dimension = 161
Check shell pair data                       ... done (  0.1 sec)
Shell pair information
Shell pair cut-off parameter TPreSel        ...   2.5e-12
Total number of shell pairs                 ...     20706
Shell pairs after pre-screening             ...     18517
Total number of primitive shell pairs       ...     26838
Primitive shell pairs kept                  ...     22518
          la=0 lb=0:   4279 shell pairs
          la=1 lb=0:   4728 shell pairs
          la=1 lb=1:   1184 shell pairs
          la=2 lb=0:   3363 shell pairs
          la=2 lb=1:   1660 shell pairs
          la=2 lb=2:    610 shell pairs
          la=3 lb=0:   1423 shell pairs
          la=3 lb=1:    678 shell pairs
          la=3 lb=2:    487 shell pairs
          la=3 lb=3:    105 shell pairs

Calculating one electron integrals          ... done (  0.0 sec)
Calculating RI/J V-Matrix + Cholesky decomp.... done (  0.1 sec)
Calculating Nuclear repulsion               ... done (  0.0 sec) ENN=    273.229120568405 Eh

Diagonalization of the overlap matrix:
Smallest eigenvalue                        ... 6.603e-07
Time for diagonalization                   ...    0.057 sec
Threshold for overlap eigenvalues          ... 1.000e-07
Number of eigenvalues below threshold      ... 0

IMPORTANT:
Smallest eigenvalue of S below the DiffSThresh (1.000e-06) while
Thresh>1e-12 and/or TCut>1e-13! In order to avoid SCF convergence issues,
Thresh will be set to at least 1e-12 and TCut to at least 1e-13.
This can be turned off by adding %SCF DiffSThresh -1 END to the input.

Time for construction of square roots      ...    0.052 sec
Total time needed                          ...    0.194 sec

-------------------
DFT GRID GENERATION
-------------------

General Integration Accuracy     IntAcc      ... 4.388
Radial Grid Type                 RadialGrid  ... OptM3 with GC (2021)
Angular Grid (max. ang.)         AngularGrid ... 4 (Lebedev-302)
Angular grid pruning method      GridPruning ... 4 (adaptive)
Weight generation scheme         WeightScheme... mBecke (2022)
Basis function cutoff            BFCut       ... 1.0000e-11
Integration weight cutoff        WCut        ... 1.0000e-14
Partially contracted basis set               ... off
Rotationally invariant grid construction     ... off
Angular grids for H and He will be reduced by one unit
Diffuse basis detected: some atoms will have their outermost
                        angular grid increased by 1.

Total number of grid points                  ...    67931
Total number of batches                      ...     1066
Average number of points per batch           ...       63
Average number of grid points per atom       ...     4852

---------------------
SHARK GRID GENERATION
---------------------

General Integration Accuracy     IntAcc      ... 4.388
Radial Grid Type                 RadialGrid  ... OptM3 with GC (2021)
Angular Grid (max. ang.)         AngularGrid ... 4 (Lebedev-302)
Angular grid pruning method      GridPruning ... 4 (adaptive)
Weight generation scheme         WeightScheme... mBecke (2022)
Basis function cutoff            BFCut       ... 1.0000e-11
Integration weight cutoff        WCut        ... 1.0000e-14
Partially contracted basis set               ... off
Rotationally invariant grid construction     ... off
Angular grids for H and He will be reduced by one unit
Diffuse basis detected: some atoms will have their outermost
                        angular grid increased by 1.
Steep s-basis detected: some atoms will have their radial
                        grid points doubled.

Total number of grid points                  ...   112193
Total number of batches                      ...     1761
Average number of points per batch           ...       63
Average number of grid points per atom       ...     8014

--------------------
COSX GRID GENERATION
--------------------

GRIDX 1
-------
General Integration Accuracy     IntAcc      ... 3.816
Radial Grid Type                 RadialGrid  ... OptM3 with GC (2021)
Angular Grid (max. ang.)         AngularGrid ... 1 (Lebedev-50)
Angular grid pruning method      GridPruning ... 4 (adaptive)
Weight generation scheme         WeightScheme... mBecke (2022)
Basis function cutoff            BFCut       ... 1.0000e-11
Integration weight cutoff        WCut        ... 1.0000e-14
Partially contracted basis set               ... on
Rotationally invariant grid construction     ... off
Angular grids for H and He will be reduced by one unit
Diffuse basis detected: some atoms will have their outermost
                        angular grid increased by 1.

Total number of grid points                  ...     8536
Total number of batches                      ...       72
Average number of points per batch           ...      118
Average number of grid points per atom       ...      610
UseSFitting                                  ... on

GRIDX 2
-------
General Integration Accuracy     IntAcc      ... 4.020
Radial Grid Type                 RadialGrid  ... OptM3 with GC (2021)
Angular Grid (max. ang.)         AngularGrid ... 2 (Lebedev-110)
Angular grid pruning method      GridPruning ... 4 (adaptive)
Weight generation scheme         WeightScheme... mBecke (2022)
Basis function cutoff            BFCut       ... 1.0000e-11
Integration weight cutoff        WCut        ... 1.0000e-14
Partially contracted basis set               ... on
Rotationally invariant grid construction     ... off
Angular grids for H and He will be reduced by one unit
Diffuse basis detected: some atoms will have their outermost
                        angular grid increased by 1.

Total number of grid points                  ...    20738
Total number of batches                      ...      171
Average number of points per batch           ...      121
Average number of grid points per atom       ...     1481
UseSFitting                                  ... on

GRIDX 3
-------
General Integration Accuracy     IntAcc      ... 4.338
Radial Grid Type                 RadialGrid  ... OptM3 with GC (2021)
Angular Grid (max. ang.)         AngularGrid ... 3 (Lebedev-194)
Angular grid pruning method      GridPruning ... 4 (adaptive)
Weight generation scheme         WeightScheme... mBecke (2022)
Basis function cutoff            BFCut       ... 1.0000e-11
Integration weight cutoff        WCut        ... 1.0000e-14
Partially contracted basis set               ... on
Rotationally invariant grid construction     ... off
Angular grids for H and He will be reduced by one unit
Diffuse basis detected: some atoms will have their outermost
                        angular grid increased by 1.

Total number of grid points                  ...    46362
Total number of batches                      ...      370
Average number of points per batch           ...      125
Average number of grid points per atom       ...     3312
UseSFitting                                  ... on
Initializing property integral containers    ... done (  0.2 sec)

SHARK setup successfully completed in   6.0 seconds

Maximum memory used throughout the entire STARTUP-calculation: 45.1 MB


           ************************************************************
           *        Program running with 12 parallel MPI-processes    *
           *              working on a common directory               *
           ************************************************************
-------------------------------------------------------------------------------
                                 ORCA GUESS
                   Start orbitals & Density for SCF / CASSCF
-------------------------------------------------------------------------------

------------
SCF SETTINGS
------------
Hamiltonian:
 Density Functional     Method          .... DFT(GTOs)
  Functional kind                       .... Exchange
  Functional name                       .... Re-regularized SCAN exchange by Furness et al
  Functional family                     .... MGGA
  Functional refs                              
    [ 0] J. W. Furness, A. D. Kaplan, J. Ning, J. P. Perdew, and J. Sun.,  J. Phys. Chem. Lett. 11, 8208-8215 (2020), doi: 10.1021/acs.jpclett.0c02405
    [ 1] J. W. Furness, A. D. Kaplan, J. Ning, J. P. Perdew, and J. Sun.,  J. Phys. Chem. Lett. 11, 9248-9248 (2020), doi: 10.1021/acs.jpclett.0c03077
  Functional external parameters        .... 6
    Parameter  0 _c1        =  6.670000e-01 : c1 parameter        
    Parameter  1 _c2        =  8.000000e-01 : c2 parameter        
    Parameter  2 _d         =  1.240000e+00 : d parameter         
    Parameter  3 _k1        =  6.500000e-02 : k1 parameter        
    Parameter  4 _eta       =  1.000000e-03 : eta parameter       
    Parameter  5 _dp2       =  3.610000e-01 : dp2 parameter       
  Functional kind                       .... Correlation
  Functional name                       .... Re-regularized SCAN correlation by Furness et al
  Functional family                     .... MGGA
  Functional refs                              
    [ 0] J. W. Furness, A. D. Kaplan, J. Ning, J. P. Perdew, and J. Sun.,  J. Phys. Chem. Lett. 11, 8208-8215 (2020), doi: 10.1021/acs.jpclett.0c02405
    [ 1] J. W. Furness, A. D. Kaplan, J. Ning, J. P. Perdew, and J. Sun.,  J. Phys. Chem. Lett. 11, 9248-9248 (2020), doi: 10.1021/acs.jpclett.0c03077
  Functional external parameters        .... 1
    Parameter  0 _eta       =  1.000000e-03 : Regularization parameter
 Gradients option       PostSCFGGA      .... off
 Hybrid DFT is turned on
   Fraction HF Exchange ScalHFX         ....  0.100000
   Scaling of DF-GGA-X  ScalDFX         ....  0.900000
   Scaling of DF-GGA-C  ScalDFC         ....  1.000000
   Scaling of DF-LDA-C  ScalLDAC        ....  1.000000
   Perturbative correction              ....  0.000000
   NL short-range parameter             .... 11.900000
 RI-approximation to the Coulomb term is turned on
   Number of AuxJ basis functions       .... 420
   RIJ-COSX (HFX calculated with COS-X)).... on


General Settings:
 Integral files         IntName         .... cs_rporg_075_ox_freq_07
 Hartree-Fock type      HFTyp           .... UHF
 Total Charge           Charge          ....    1
 Multiplicity           Mult            ....    2
 Number of Electrons    NEL             ....   49
 Basis Dimension        Dim             ....  483
 Nuclear Repulsion      ENuc            ....    273.2291205684 Eh

Convergence Acceleration:
 AO-DIIS                CNVDIIS         .... on
   Start iteration      DIISMaxIt       ....     0
   Startup error        DIISStart       ....  0.200000
   # of expansion vecs  DIISMaxEq       ....     5
   Bias factor          DIISBfac        ....   1.050
   Max. coefficient     DIISMaxC        ....  10.000
 MO-DIIS                CNVKDIIS        .... off
 Trust-Rad. Augm. Hess. CNVTRAH         .... auto
   Auto Start mean grad. ratio tolernc. ....  1.125000
   Auto Start start iteration           ....    50
   Auto Start num. interpolation iter.  ....    10
   Max. Number of Micro iterations      ....    24
   Max. Number of Macro iterations      .... Maxiter - #DIIS iter
   Number of Davidson start vectors     ....     2
   Converg. threshold    (grad. norm)   ....   1.000e-05
   Grad. Scal. Fac. for Micro threshold ....   0.100
   Minimum threshold for Micro iter.    ....   1.000e-02
   NR start threshold (gradient norm)   ....   1.000e-04
   Initial trust radius                 ....   0.400
   Minimum AH scaling param. (alpha)    ....   1.000
   Maximum AH scaling param. (alpha)    .... 1000.000
   Quad. conv. algorithm                .... NR
   White noise on init. David. guess    .... on
   Maximum white noise                  ....   0.010
   Pseudo random numbers                .... off
   Inactive MOs                         .... canonical
   Orbital update algorithm             .... Taylor
   Preconditioner                       .... Diag
   Full preconditioner red. dimension   ....   250
 SOSCF                  CNVSOSCF        .... on
   Start iteration      SOSCFMaxIt      ....   150
   Startup grad/error   SOSCFStart      ....  0.001000
   Hessian update       SOSCFHessUp     .... L-BFGS
 Level Shifting         CNVShift        .... on
   Level shift para.    LevelShift      ....    0.2500
   Turn off err/grad.   ShiftErr        ....    0.0000
 Zerner damping         CNVZerner       .... off
 Static damping         CNVDamp         .... on
   Fraction old density DampFac         ....    0.8500
   Max. Damping (<1)    DampMax         ....    0.9800
   Min. Damping (>=0)   DampMin         ....    0.0000
   Turn off err/grad.   DampErr         ....    0.0300

SCF Procedure:
 Maximum # iterations   MaxIter         ....  1500
 SCF integral mode      SCFMode         .... Direct
   Integral package                     .... SHARK and LIBINT hybrid scheme
 Reset frequency        DirectResetFreq ....    20
 Integral Threshold     Thresh          ....  1.000e-12 Eh
 Primitive CutOff       TCut            ....  1.000e-13 Eh

Convergence Tolerance:
 Convergence Check Mode ConvCheckMode   .... Total+1el-Energy
 Convergence forced     ConvForced      .... 0
 Energy Change          TolE            ....  1.000e-08 Eh
 1-El. energy change                    ....  1.000e-05 Eh
 Orbital Gradient       TolG            ....  1.000e-05
 Orbital Rotation angle TolX            ....  1.000e-05
 DIIS Error             TolErr          ....  5.000e-07

------------------------------
INITIAL GUESS: MODEL POTENTIAL
------------------------------
Loading Hartree-Fock densities                     ... done
Calculating cut-offs                               ... done
Initializing the effective Hamiltonian             ... done
Setting up the integral package (SHARK)            ... done
Starting the Coulomb interaction                   ... done (   0.3 sec)
Making the grid                                    ... done (   0.3 sec)
Mapping shells                                     ... done
Starting the XC term evaluation                    ... done (   0.2 sec)
  promolecular density results
     # of electrons  =     49.998483647
     EX              =    -39.312674844
     EC              =     -1.647257950
     EX+EC           =    -40.959932794
Transforming the Hamiltonian                       ... done (   0.1 sec)
Diagonalizing the Hamiltonian                      ... done (   0.1 sec)
Back transforming the eigenvectors                 ... done (   0.2 sec)
Now organizing SCF variables                       ... done
                      ------------------
                      INITIAL GUESS DONE (   2.0 sec)
                      ------------------
             **** ENERGY FILE WAS UPDATED (cs_rporg_075_ox_freq_07.en.tmp) ****
Finished Guess after   4.7 sec
Maximum memory used throughout the entire GUESS-calculation: 31.0 MB


           ************************************************************
           *        Program running with 12 parallel MPI-processes    *
           *              working on a common directory               *
           ************************************************************

-------------------------------------------------------------------------------------------
                                      ORCA LEAN-SCF
                              memory conserving SCF solver
-------------------------------------------------------------------------------------------

--------------------
CPCM SOLVATION MODEL
--------------------
CPCM parameters:
  Epsilon                                         ...      35.6880
  Refrac                                          ...       1.3442
  Rsolv                                           ...       2.1900
  Surface type                                    ...    GEPOL SES
  Discretization scheme                           ... Constant num. charges
  Epsilon function type                           ...         CPCM
Solvent:                                          ... ACETONITRILE
SMD-CDS solvent descriptors:
  Soln                                            ...       1.3442
  Soln25                                          ...       1.3416
  Sola                                            ...       0.0700
  Solb                                            ...       0.3200
  Solg                                            ...      41.2500
  Solc                                            ...       0.0000
  Solh                                            ...       0.0000
Radii:
  Scheme                                          ... Element-dependent radii
  Radius for C  used is    3.4960 Bohr (=   1.8500 Ang.)
  Radius for N  used is    3.5716 Bohr (=   1.8900 Ang.)
  Radius for H  used is    2.2677 Bohr (=   1.2000 Ang.)
Calculating surface                               ...        done! (  0.0s)
Cavity surface points                             ...          452
Cavity Volume                                     ...     742.1177
Cavity Surface-area                               ...     452.9491
Calculating surface distance matrix               ...        done! (  0.0s)
Performing Cholesky decomposition & store         ...        done! (  0.0s)
Overall time for CPCM initialization              ...                 0.1s

----------------------------------------D-I-I-S--------------------------------------------
Iteration    Energy (Eh)           Delta-E    RMSDP     MaxDP     DIISErr   Damp  Time(sec)
-------------------------------------------------------------------------------------------
               ***  Starting incremental Fock matrix formation  ***
    1    -287.2406745141137208     0.00e+00  4.05e-04  1.65e-02  8.29e-02  0.850  12.6
Warning: op=1 Small HOMO/LUMO gap (   0.083) - skipping pre-diagonalization
         Will do a full diagonalization
    2    -287.2662282243396703    -2.56e-02  3.83e-04  1.44e-02  6.29e-02  0.850  12.1
                               ***Turning on AO-DIIS***
    3    -287.2842493245445894    -1.80e-02  3.05e-04  1.11e-02  4.47e-02  0.850  10.2
    4    -287.2966219923650897    -1.24e-02  2.54e-04  9.16e-03  3.72e-02  0.850  12.1
    5    -287.3058729559099902    -9.25e-03  2.15e-04  7.78e-03  3.17e-02  0.850  10.2
    6    -287.3132537584700685    -7.38e-03  1.82e-04  6.69e-03  2.72e-02  0.850  10.5
    7    -287.3193399172729414    -6.09e-03  1.03e-03  3.84e-02  2.31e-02  0.000   9.8
    8    -287.3508730929635249    -3.15e-02  4.44e-05  3.79e-03  3.47e-03  0.000  10.9
    9    -287.3510374039123008    -1.64e-04  2.50e-05  1.63e-03  2.37e-03  0.000   9.0
   10    -287.3511351683388284    -9.78e-05  3.77e-05  2.85e-03  1.33e-03  0.000   9.9
   11    -287.3512321068174060    -9.69e-05  1.79e-05  1.09e-03  1.04e-03  0.000   9.9
                              *** Initializing SOSCF ***
---------------------------------------S-O-S-C-F--------------------------------------
Iteration    Energy (Eh)           Delta-E    RMSDP     MaxDP     MaxGrad    Time(sec)
--------------------------------------------------------------------------------------
   12    -287.3512786850524208    -4.66e-05  1.46e-05  8.61e-04  6.44e-04    10.2
               *** Restarting incremental Fock matrix formation ***
   13    -287.3512975640220475    -1.89e-05  1.80e-05  9.37e-04  9.13e-04    12.5
   14    -287.3513091671630946    -1.16e-05  2.56e-05  1.44e-03  6.49e-04    10.3
   15    -287.3513150083388155    -5.84e-06  1.72e-05  9.01e-04  5.26e-04    11.7
   16    -287.3513188895183248    -3.88e-06  4.89e-06  4.88e-04  6.58e-05    10.6
   17    -287.3513190173721341    -1.28e-07  1.49e-06  1.19e-04  5.31e-05    11.3
   18    -287.3513191239517255    -1.07e-07  6.28e-07  5.21e-05  1.23e-05    10.6
   19    -287.3513191271891856    -3.24e-09  2.18e-07  9.44e-06  5.50e-06    10.1
                 **** Energy Check signals convergence ****

               *****************************************************
               *                     SUCCESS                       *
               *           SCF CONVERGED AFTER  19 CYCLES          *
               *****************************************************

Recomputing exchange energy using gridx3       ... done (    7.131 sec)
Old exchange energy                            :     -3.999878706 Eh
New exchange energy                            :     -3.999877587 Eh
Exchange energy change after final integration :      0.000001118 Eh
Total energy after final integration           :   -287.351318009 Eh

SMD CDS free energy correction energy :                -0.94225     Kcal/mol
Total Energy after SMD CDS correction =              -287.352819577 Eh
             **** ENERGY FILE WAS UPDATED (cs_rporg_075_ox_freq_07.en.tmp) ****

----------------
TOTAL SCF ENERGY
----------------

Total Energy       :       -287.35281957695463 Eh           -7819.26774 eV

Components:
Nuclear Repulsion  :        273.22912056840516 Eh            7434.94236 eV
Electronic Energy  :       -560.48285837264734 Eh          -15251.51395 eV
One Electron Energy:       -917.55244070126196 Eh          -24967.87125 eV
Two Electron Energy:        357.06958232861456 Eh            9716.35731 eV
CPCM Dielectric    :         -0.09758132294687 Eh              -2.65532 eV
SMD CDS (Gcds)     :         -0.00150156796057 Eh              -0.04086 eV

Virial components:
Potential Energy   :       -573.13003859433911 Eh          -15595.66122 eV
Kinetic Energy     :        285.77721901738448 Eh            7776.39347 eV
Virial Ratio       :          2.00551338754358

DFT components:
N(Alpha)           :       24.999976305938 electrons
N(Beta)            :       23.999980718626 electrons
N(Total)           :       48.999957024565 electrons
E(X)               :      -36.121673134896 Eh       
E(C)               :       -1.565452644742 Eh       
E(XC)              :      -37.687125779638 Eh       

CPCM Solvation Model Properties:
Surface-charge          :         -1.02886730937728
Corrected charge        :         -1.00000000000000
Outlying charge corr.   :          0.00006860151531 Eh               0.00187 eV
Free-energy (cav+disp)  :         -0.00150156796057 Eh              -0.04086 eV

---------------
SCF CONVERGENCE
---------------

  Last Energy change         ...    3.2375e-09  Tolerance :   1.0000e-08
  Last MAX-Density change    ...    9.4430e-06  Tolerance :   1.0000e-07
  Last RMS-Density change    ...    2.1828e-07  Tolerance :   5.0000e-09
  Last DIIS Error            ...    6.4350e-04  Tolerance :   5.0000e-07
  Last Orbital Gradient      ...    5.4975e-06  Tolerance :   1.0000e-05
  Last Orbital Rotation      ...    1.0579e-05  Tolerance :   1.0000e-05


----------------------
UHF SPIN CONTAMINATION
----------------------

Warning: in a DFT calculation there is little theoretical justification to 
         calculate <S**2> as in Hartree-Fock theory. We will do it anyways
         but you should keep in mind that the values have only limited relevance

Expectation value of <S**2>     :     0.800947
Ideal value S*(S+1) for S=0.5   :     0.750000
Deviation                       :     0.050947

----------------
ORBITAL ENERGIES
----------------
                 SPIN UP ORBITALS
  NO   OCC          E(Eh)            E(eV) 
   0   1.0000     -14.399878      -391.8406 
   1   1.0000     -10.263042      -279.2716 
   2   1.0000     -10.206731      -277.7393 
   3   1.0000     -10.203122      -277.6411 
   4   1.0000     -10.203121      -277.6410 
   5   1.0000     -10.190102      -277.2868 
   6   1.0000     -10.190098      -277.2867 
   7   1.0000      -1.008163       -27.4335 
   8   1.0000      -0.887620       -24.1534 
   9   1.0000      -0.791840       -21.5471 
  10   1.0000      -0.771903       -21.0046 
  11   1.0000      -0.652539       -17.7565 
  12   1.0000      -0.648981       -17.6597 
  13   1.0000      -0.566683       -15.4202 
  14   1.0000      -0.559539       -15.2258 
  15   1.0000      -0.514773       -14.0077 
  16   1.0000      -0.462526       -12.5860 
  17   1.0000      -0.454036       -12.3550 
  18   1.0000      -0.451700       -12.2914 
  19   1.0000      -0.447165       -12.1680 
  20   1.0000      -0.383576       -10.4376 
  21   1.0000      -0.372621       -10.1395 
  22   1.0000      -0.361940        -9.8489 
  23   1.0000      -0.296654        -8.0724 
  24   1.0000      -0.262737        -7.1494 
  25   0.0000      -0.054278        -1.4770 
  26   0.0000      -0.052780        -1.4362 
  27   0.0000       0.007638         0.2078 
  28   0.0000       0.020805         0.5661 
  29   0.0000       0.025965         0.7065 
  30   0.0000       0.041010         1.1159 
  31   0.0000       0.044129         1.2008 
  32   0.0000       0.053814         1.4644 
  33   0.0000       0.054022         1.4700 
  34   0.0000       0.065157         1.7730 
  35   0.0000       0.071309         1.9404 

                 SPIN DOWN ORBITALS
  NO   OCC          E(Eh)            E(eV) 
   0   1.0000     -14.389601      -391.5609 
   1   1.0000     -10.262945      -279.2689 
   2   1.0000     -10.199416      -277.5402 
   3   1.0000     -10.198635      -277.5190 
   4   1.0000     -10.198634      -277.5189 
   5   1.0000     -10.192764      -277.3592 
   6   1.0000     -10.192751      -277.3589 
   7   1.0000      -0.992500       -27.0073 
   8   1.0000      -0.878205       -23.8972 
   9   1.0000      -0.787741       -21.4355 
  10   1.0000      -0.755103       -20.5474 
  11   1.0000      -0.649914       -17.6851 
  12   1.0000      -0.640994       -17.4423 
  13   1.0000      -0.564747       -15.3675 
  14   1.0000      -0.553934       -15.0733 
  15   1.0000      -0.509565       -13.8660 
  16   1.0000      -0.459178       -12.4949 
  17   1.0000      -0.451349       -12.2818 
  18   1.0000      -0.446756       -12.1568 
  19   1.0000      -0.420473       -11.4417 
  20   1.0000      -0.381549       -10.3825 
  21   1.0000      -0.360330        -9.8051 
  22   1.0000      -0.338971        -9.2239 
  23   1.0000      -0.286426        -7.7941 
  24   0.0000      -0.182517        -4.9665 
  25   0.0000      -0.041319        -1.1244 
  26   0.0000      -0.023571        -0.6414 
  27   0.0000       0.009315         0.2535 
  28   0.0000       0.022982         0.6254 
  29   0.0000       0.026397         0.7183 
  30   0.0000       0.043984         1.1969 
  31   0.0000       0.044365         1.2072 
  32   0.0000       0.055067         1.4984 
  33   0.0000       0.055812         1.5187 
  34   0.0000       0.067145         1.8271 
*Only the first 10 virtual orbitals were printed.

                    ********************************
                    * MULLIKEN POPULATION ANALYSIS *
                    ********************************

--------------------------------------------
MULLIKEN ATOMIC CHARGES AND SPIN POPULATIONS
--------------------------------------------
   0 C :   -0.684009    0.262334
   1 C :   -0.360030   -0.191391
   2 C :   -0.375993    0.446090
   3 C :   -0.360387   -0.191404
   4 C :   -0.684288    0.262309
   5 C :    1.223322    0.040999
   6 N :   -0.353285    0.413352
   7 H :    0.056377   -0.009144
   8 H :    0.056590   -0.009143
   9 H :    0.634482   -0.007538
  10 H :    0.328689   -0.011167
  11 H :    0.556290    0.013409
  12 H :    0.327432   -0.011170
  13 H :    0.634810   -0.007535
Sum of atomic charges         :    1.0000000
Sum of atomic spin populations:    1.0000000

-----------------------------------------------------
MULLIKEN REDUCED ORBITAL CHARGES AND SPIN POPULATIONS
-----------------------------------------------------
CHARGE
  0 C s       :     3.988763  s :     3.988763
      pz      :     0.906865  p :     2.689668
      px      :     0.824602
      py      :     0.958201
      dz2     :     0.004632  d :     0.027001
      dxz     :     0.011771
      dyz     :    -0.002286
      dx2y2   :    -0.010327
      dxy     :     0.023211
      f0      :     0.000639  f :    -0.021423
      f+1     :    -0.000307
      f-1     :    -0.000007
      f+2     :     0.001251
      f-2     :    -0.000284
      f+3     :    -0.000071
      f-3     :    -0.022645

  1 C s       :     3.545586  s :     3.545586
      pz      :     0.914486  p :     2.804304
      px      :     0.987681
      py      :     0.902137
      dz2     :    -0.016848  d :     0.018823
      dxz     :     0.015033
      dyz     :     0.010638
      dx2y2   :     0.002643
      dxy     :     0.007357
      f0      :     0.000719  f :    -0.008683
      f+1     :     0.000552
      f-1     :     0.000224
      f+2     :     0.000320
      f-2     :     0.000572
      f+3     :    -0.000618
      f-3     :    -0.010452

  2 C s       :     3.698853  s :     3.698853
      pz      :     0.828829  p :     2.657883
      px      :     0.984839
      py      :     0.844215
      dz2     :    -0.000727  d :     0.026704
      dxz     :     0.003394
      dyz     :     0.019208
      dx2y2   :     0.017716
      dxy     :    -0.012886
      f0      :     0.001065  f :    -0.007447
      f+1     :     0.000140
      f-1     :     0.000164
      f+2     :     0.000436
      f-2     :     0.000281
      f+3     :     0.000289
      f-3     :    -0.009823

  3 C s       :     3.545394  s :     3.545394
      pz      :     0.914492  p :     2.804769
      px      :     0.987983
      py      :     0.902294
      dz2     :    -0.016845  d :     0.018903
      dxz     :     0.015033
      dyz     :     0.010640
      dx2y2   :     0.002551
      dxy     :     0.007524
      f0      :     0.000719  f :    -0.008678
      f+1     :     0.000555
      f-1     :     0.000224
      f+2     :     0.000321
      f-2     :     0.000572
      f+3     :    -0.000611
      f-3     :    -0.010458

  4 C s       :     3.988453  s :     3.988453
      pz      :     0.906859  p :     2.689522
      px      :     0.824534
      py      :     0.958129
      dz2     :     0.004654  d :     0.027743
      dxz     :     0.011773
      dyz     :    -0.002288
      dx2y2   :    -0.009953
      dxy     :     0.023557
      f0      :     0.000639  f :    -0.021431
      f+1     :    -0.000305
      f-1     :    -0.000006
      f+2     :     0.001252
      f-2     :    -0.000283
      f+3     :    -0.000068
      f-3     :    -0.022659

  5 C s       :     3.122524  s :     3.122524
      pz      :     0.806157  p :     1.731413
      px      :     0.322460
      py      :     0.602795
      dz2     :    -0.037338  d :    -0.026807
      dxz     :     0.042244
      dyz     :    -0.012551
      dx2y2   :    -0.005172
      dxy     :    -0.013992
      f0      :     0.003686  f :    -0.050451
      f+1     :    -0.004073
      f-1     :    -0.000540
      f+2     :     0.001275
      f-2     :     0.002111
      f+3     :    -0.010428
      f-3     :    -0.042483

  6 N s       :     3.863666  s :     3.863666
      pz      :     1.346603  p :     3.424281
      px      :     1.003690
      py      :     1.073988
      dz2     :    -0.005878  d :     0.057449
      dxz     :     0.031683
      dyz     :     0.001827
      dx2y2   :     0.016424
      dxy     :     0.013392
      f0      :     0.000777  f :     0.007889
      f+1     :     0.000638
      f-1     :    -0.000946
      f+2     :     0.001220
      f-2     :     0.000361
      f+3     :    -0.001056
      f-3     :     0.006896

  7 H s       :     0.824857  s :     0.824857
      pz      :     0.041201  p :     0.087643
      px      :     0.036210
      py      :     0.010232
      dz2     :     0.002369  d :     0.031123
      dxz     :     0.003839
      dyz     :     0.008228
      dx2y2   :     0.010456
      dxy     :     0.006231

  8 H s       :     0.824686  s :     0.824686
      pz      :     0.041201  p :     0.087602
      px      :     0.036206
      py      :     0.010195
      dz2     :     0.002369  d :     0.031122
      dxz     :     0.003839
      dyz     :     0.008228
      dx2y2   :     0.010455
      dxy     :     0.006230

  9 H s       :     0.389474  s :     0.389474
      pz      :     0.011583  p :    -0.030378
      px      :    -0.005393
      py      :    -0.036568
      dz2     :    -0.000704  d :     0.006422
      dxz     :     0.001421
      dyz     :     0.003842
      dx2y2   :     0.002056
      dxy     :    -0.000193

 10 H s       :     0.644731  s :     0.644731
      pz      :     0.016537  p :     0.018193
      px      :     0.002789
      py      :    -0.001133
      dz2     :    -0.000429  d :     0.008387
      dxz     :     0.001272
      dyz     :     0.004145
      dx2y2   :     0.001825
      dxy     :     0.001574

 11 H s       :     0.468471  s :     0.468471
      pz      :     0.011814  p :    -0.033320
      px      :    -0.038077
      py      :    -0.007057
      dz2     :    -0.000046  d :     0.008558
      dxz     :     0.004576
      dyz     :    -0.000181
      dx2y2   :     0.001868
      dxy     :     0.002342

 12 H s       :     0.645986  s :     0.645986
      pz      :     0.016537  p :     0.018193
      px      :     0.002785
      py      :    -0.001128
      dz2     :    -0.000429  d :     0.008389
      dxz     :     0.001272
      dyz     :     0.004145
      dx2y2   :     0.001825
      dxy     :     0.001575

 13 H s       :     0.389127  s :     0.389127
      pz      :     0.011584  p :    -0.030359
      px      :    -0.005394
      py      :    -0.036549
      dz2     :    -0.000704  d :     0.006422
      dxz     :     0.001421
      dyz     :     0.003842
      dx2y2   :     0.002056
      dxy     :    -0.000193


SPIN
  0 C s       :     0.015101  s :     0.015101
      pz      :     0.240903  p :     0.248785
      px      :     0.005673
      py      :     0.002209
      dz2     :    -0.001191  d :     0.000314
      dxz     :    -0.001019
      dyz     :     0.002075
      dx2y2   :     0.001054
      dxy     :    -0.000605
      f0      :    -0.000674  f :    -0.001867
      f+1     :    -0.000361
      f-1     :    -0.000254
      f+2     :    -0.000829
      f-2     :    -0.000377
      f+3     :    -0.000100
      f-3     :     0.000728

  1 C s       :    -0.023086  s :    -0.023086
      pz      :    -0.145793  p :    -0.180543
      px      :    -0.028898
      py      :    -0.005852
      dz2     :     0.000320  d :     0.012437
      dxz     :     0.004814
      dyz     :    -0.001139
      dx2y2   :     0.006948
      dxy     :     0.001493
      f0      :     0.000151  f :    -0.000198
      f+1     :     0.000214
      f-1     :     0.000222
      f+2     :     0.000144
      f-2     :     0.000541
      f+3     :    -0.000842
      f-3     :    -0.000629

  2 C s       :     0.001155  s :     0.001155
      pz      :     0.389409  p :     0.431376
      px      :     0.006004
      py      :     0.035963
      dz2     :    -0.002395  d :     0.016579
      dxz     :     0.003788
      dyz     :    -0.002948
      dx2y2   :     0.015461
      dxy     :     0.002674
      f0      :    -0.000755  f :    -0.003021
      f+1     :    -0.000617
      f-1     :    -0.000478
      f+2     :     0.000172
      f-2     :    -0.000268
      f+3     :     0.000162
      f-3     :    -0.001237

  3 C s       :    -0.023089  s :    -0.023089
      pz      :    -0.145795  p :    -0.180552
      px      :    -0.028901
      py      :    -0.005856
      dz2     :     0.000320  d :     0.012436
      dxz     :     0.004817
      dyz     :    -0.001139
      dx2y2   :     0.006945
      dxy     :     0.001492
      f0      :     0.000151  f :    -0.000199
      f+1     :     0.000214
      f-1     :     0.000222
      f+2     :     0.000143
      f-2     :     0.000541
      f+3     :    -0.000842
      f-3     :    -0.000629

  4 C s       :     0.015087  s :     0.015087
      pz      :     0.240907  p :     0.248778
      px      :     0.005665
      py      :     0.002206
      dz2     :    -0.001190  d :     0.000313
      dxz     :    -0.001019
      dyz     :     0.002075
      dx2y2   :     0.001055
      dxy     :    -0.000608
      f0      :    -0.000674  f :    -0.001869
      f+1     :    -0.000361
      f-1     :    -0.000254
      f+2     :    -0.000830
      f-2     :    -0.000377
      f+3     :    -0.000100
      f-3     :     0.000727

  5 C s       :     0.051788  s :     0.051788
      pz      :     0.020602  p :    -0.019096
      px      :    -0.015399
      py      :    -0.024298
      dz2     :    -0.001184  d :     0.008585
      dxz     :     0.012756
      dyz     :     0.002566
      dx2y2   :    -0.000593
      dxy     :    -0.004961
      f0      :    -0.000260  f :    -0.000277
      f+1     :     0.000015
      f-1     :     0.000021
      f+2     :     0.000215
      f-2     :    -0.000157
      f+3     :    -0.000265
      f-3     :     0.000154

  6 N s       :     0.026822  s :     0.026822
      pz      :     0.350268  p :     0.384585
      px      :     0.010008
      py      :     0.024309
      dz2     :    -0.001935  d :     0.002907
      dxz     :     0.003672
      dyz     :     0.000142
      dx2y2   :    -0.000218
      dxy     :     0.001246
      f0      :     0.000042  f :    -0.000961
      f+1     :    -0.000336
      f-1     :    -0.000241
      f+2     :    -0.000063
      f-2     :    -0.000014
      f+3     :     0.000093
      f-3     :    -0.000442

  7 H s       :    -0.015801  s :    -0.015801
      pz      :     0.004756  p :     0.004849
      px      :     0.000569
      py      :    -0.000476
      dz2     :     0.000177  d :     0.001807
      dxz     :     0.000331
      dyz     :     0.001611
      dx2y2   :    -0.000360
      dxy     :     0.000049

  8 H s       :    -0.015799  s :    -0.015799
      pz      :     0.004756  p :     0.004849
      px      :     0.000569
      py      :    -0.000476
      dz2     :     0.000177  d :     0.001807
      dxz     :     0.000331
      dyz     :     0.001611
      dx2y2   :    -0.000360
      dxy     :     0.000049

  9 H s       :    -0.012230  s :    -0.012230
      pz      :     0.004632  p :     0.003772
      px      :     0.000127
      py      :    -0.000986
      dz2     :     0.000100  d :     0.000919
      dxz     :     0.000057
      dyz     :     0.000807
      dx2y2   :    -0.000013
      dxy     :    -0.000032

 10 H s       :    -0.007963  s :    -0.007963
      pz      :    -0.005895  p :    -0.002800
      px      :     0.000116
      py      :     0.002978
      dz2     :    -0.000017  d :    -0.000404
      dxz     :    -0.000246
      dyz     :    -0.000347
      dx2y2   :     0.000024
      dxy     :     0.000182

 11 H s       :     0.001941  s :     0.001941
      pz      :     0.009371  p :     0.010023
      px      :     0.001311
      py      :    -0.000659
      dz2     :     0.000187  d :     0.001445
      dxz     :     0.001602
      dyz     :    -0.000013
      dx2y2   :    -0.000146
      dxy     :    -0.000185

 12 H s       :    -0.007966  s :    -0.007966
      pz      :    -0.005895  p :    -0.002800
      px      :     0.000115
      py      :     0.002979
      dz2     :    -0.000017  d :    -0.000403
      dxz     :    -0.000246
      dyz     :    -0.000347
      dx2y2   :     0.000024
      dxy     :     0.000182

 13 H s       :    -0.012227  s :    -0.012227
      pz      :     0.004631  p :     0.003772
      px      :     0.000127
      py      :    -0.000986
      dz2     :     0.000100  d :     0.000919
      dxz     :     0.000057
      dyz     :     0.000807
      dx2y2   :    -0.000013
      dxy     :    -0.000032



                     *******************************
                     * LOEWDIN POPULATION ANALYSIS *
                     *******************************

-------------------------------------------
LOEWDIN ATOMIC CHARGES AND SPIN POPULATIONS
-------------------------------------------
   0 C :    0.287960    0.120466
   1 C :    0.250510    0.024947
   2 C :    0.267534    0.184630
   3 C :    0.250510    0.024946
   4 C :    0.287961    0.120467
   5 C :   -0.163088    0.129088
   6 N :    0.979385    0.258054
   7 H :   -0.199182    0.033836
   8 H :   -0.199181    0.033836
   9 H :   -0.146090    0.024103
  10 H :   -0.158690   -0.012755
  11 H :   -0.152848    0.047033
  12 H :   -0.158691   -0.012755
  13 H :   -0.146089    0.024103

----------------------------------------------------
LOEWDIN REDUCED ORBITAL CHARGES AND SPIN POPULATIONS
----------------------------------------------------
CHARGE
  0 C s       :     2.484551  s :     2.484551
      pz      :     0.576008  p :     2.242883
      px      :     0.852147
      py      :     0.814728
      dz2     :     0.067394  d :     0.654901
      dxz     :     0.096452
      dyz     :     0.050693
      dx2y2   :     0.191042
      dxy     :     0.249320
      f0      :     0.021976  f :     0.329706
      f+1     :     0.029690
      f-1     :     0.022400
      f+2     :     0.038008
      f-2     :     0.026744
      f+3     :     0.059534
      f-3     :     0.131354

  1 C s       :     2.489901  s :     2.489901
      pz      :     0.577623  p :     2.266533
      px      :     0.852611
      py      :     0.836299
      dz2     :     0.067225  d :     0.664105
      dxz     :     0.081841
      dyz     :     0.054960
      dx2y2   :     0.197775
      dxy     :     0.262303
      f0      :     0.020729  f :     0.328952
      f+1     :     0.028750
      f-1     :     0.022663
      f+2     :     0.041622
      f-2     :     0.018670
      f+3     :     0.056500
      f-3     :     0.140018

  2 C s       :     2.494579  s :     2.494579
      pz      :     0.532069  p :     2.227008
      px      :     0.843800
      py      :     0.851139
      dz2     :     0.067568  d :     0.679336
      dxz     :     0.040311
      dyz     :     0.114298
      dx2y2   :     0.285439
      dxy     :     0.171720
      f0      :     0.020967  f :     0.331543
      f+1     :     0.019645
      f-1     :     0.030908
      f+2     :     0.008331
      f-2     :     0.058588
      f+3     :     0.055378
      f-3     :     0.137726

  3 C s       :     2.489901  s :     2.489901
      pz      :     0.577623  p :     2.266533
      px      :     0.852612
      py      :     0.836298
      dz2     :     0.067225  d :     0.664104
      dxz     :     0.081839
      dyz     :     0.054962
      dx2y2   :     0.197768
      dxy     :     0.262310
      f0      :     0.020729  f :     0.328952
      f+1     :     0.028750
      f-1     :     0.022664
      f+2     :     0.041623
      f-2     :     0.018668
      f+3     :     0.056500
      f-3     :     0.140018

  4 C s       :     2.484550  s :     2.484550
      pz      :     0.576008  p :     2.242882
      px      :     0.852146
      py      :     0.814728
      dz2     :     0.067394  d :     0.654901
      dxz     :     0.096454
      dyz     :     0.050691
      dx2y2   :     0.191046
      dxy     :     0.249316
      f0      :     0.021976  f :     0.329705
      f+1     :     0.029690
      f-1     :     0.022399
      f+2     :     0.038006
      f-2     :     0.026746
      f+3     :     0.059534
      f-3     :     0.131353

  5 C s       :     2.452079  s :     2.452079
      pz      :     0.547576  p :     2.166091
      px      :     0.774765
      py      :     0.843750
      dz2     :     0.094115  d :     0.986063
      dxz     :     0.163638
      dyz     :     0.120658
      dx2y2   :     0.326122
      dxy     :     0.281530
      f0      :     0.034287  f :     0.558854
      f+1     :     0.042800
      f-1     :     0.035153
      f+2     :     0.056947
      f-2     :     0.062509
      f+3     :     0.081844
      f-3     :     0.245315

  6 N s       :     2.631446  s :     2.631446
      pz      :     0.908248  p :     2.872692
      px      :     0.991913
      py      :     0.972531
      dz2     :     0.038241  d :     0.383564
      dxz     :     0.064691
      dyz     :     0.004289
      dx2y2   :     0.092544
      dxy     :     0.183800
      f0      :     0.009131  f :     0.132913
      f+1     :     0.015966
      f-1     :     0.008042
      f+2     :     0.018847
      f-2     :     0.002064
      f+3     :     0.026452
      f-3     :     0.052410

  7 H s       :     0.559430  s :     0.559430
      pz      :     0.097847  p :     0.367081
      px      :     0.108125
      py      :     0.161109
      dz2     :     0.029671  d :     0.272671
      dxz     :     0.027999
      dyz     :     0.056174
      dx2y2   :     0.091052
      dxy     :     0.067776

  8 H s       :     0.559430  s :     0.559430
      pz      :     0.097847  p :     0.367081
      px      :     0.108127
      py      :     0.161106
      dz2     :     0.029671  d :     0.272671
      dxz     :     0.028001
      dyz     :     0.056172
      dx2y2   :     0.091053
      dxy     :     0.067774

  9 H s       :     0.642705  s :     0.642705
      pz      :     0.072586  p :     0.290602
      px      :     0.095721
      py      :     0.122295
      dz2     :     0.023397  d :     0.212782
      dxz     :     0.020594
      dyz     :     0.040753
      dx2y2   :     0.072640
      dxy     :     0.055398

 10 H s       :     0.652972  s :     0.652972
      pz      :     0.074122  p :     0.293109
      px      :     0.093243
      py      :     0.125744
      dz2     :     0.022963  d :     0.212610
      dxz     :     0.019358
      dyz     :     0.042111
      dx2y2   :     0.073911
      dxy     :     0.054267

 11 H s       :     0.655240  s :     0.655240
      pz      :     0.067816  p :     0.289920
      px      :     0.144747
      py      :     0.077357
      dz2     :     0.023100  d :     0.207687
      dxz     :     0.052645
      dyz     :     0.003146
      dx2y2   :     0.045503
      dxy     :     0.083293

 12 H s       :     0.652973  s :     0.652973
      pz      :     0.074122  p :     0.293109
      px      :     0.093240
      py      :     0.125746
      dz2     :     0.022963  d :     0.212610
      dxz     :     0.019356
      dyz     :     0.042113
      dx2y2   :     0.073909
      dxy     :     0.054270

 13 H s       :     0.642705  s :     0.642705
      pz      :     0.072586  p :     0.290602
      px      :     0.095723
      py      :     0.122293
      dz2     :     0.023397  d :     0.212782
      dxz     :     0.020595
      dyz     :     0.040752
      dx2y2   :     0.072642
      dxy     :     0.055396


SPIN
  0 C s       :     0.004823  s :     0.004823
      pz      :     0.124149  p :     0.128712
      px      :     0.002876
      py      :     0.001687
      dz2     :    -0.001445  d :    -0.012976
      dxz     :    -0.010291
      dyz     :     0.001502
      dx2y2   :    -0.001170
      dxy     :    -0.001572
      f0      :    -0.002771  f :    -0.000092
      f+1     :    -0.000166
      f-1     :    -0.000394
      f+2     :     0.004674
      f-2     :     0.000080
      f+3     :    -0.000492
      f-3     :    -0.001022

  1 C s       :    -0.003289  s :    -0.003289
      pz      :    -0.062997  p :    -0.071144
      px      :    -0.004085
      py      :    -0.004062
      dz2     :     0.000766  d :     0.064750
      dxz     :     0.045827
      dyz     :     0.014199
      dx2y2   :     0.001879
      dxy     :     0.002080
      f0      :     0.004386  f :     0.034630
      f+1     :    -0.000131
      f-1     :     0.000024
      f+2     :     0.016859
      f-2     :     0.011528
      f+3     :     0.001206
      f-3     :     0.000759

  2 C s       :     0.008110  s :     0.008110
      pz      :     0.201718  p :     0.210857
      px      :     0.004310
      py      :     0.004829
      dz2     :    -0.002226  d :    -0.021738
      dxz     :     0.000353
      dyz     :    -0.016798
      dx2y2   :    -0.001661
      dxy     :    -0.001406
      f0      :    -0.004557  f :    -0.012599
      f+1     :    -0.000505
      f-1     :    -0.000194
      f+2     :     0.000739
      f-2     :    -0.006457
      f+3     :    -0.000915
      f-3     :    -0.000710

  3 C s       :    -0.003289  s :    -0.003289
      pz      :    -0.062998  p :    -0.071145
      px      :    -0.004084
      py      :    -0.004062
      dz2     :     0.000766  d :     0.064750
      dxz     :     0.045825
      dyz     :     0.014200
      dx2y2   :     0.001879
      dxy     :     0.002080
      f0      :     0.004386  f :     0.034630
      f+1     :    -0.000131
      f-1     :     0.000023
      f+2     :     0.016860
      f-2     :     0.011526
      f+3     :     0.001206
      f-3     :     0.000759

  4 C s       :     0.004823  s :     0.004823
      pz      :     0.124149  p :     0.128713
      px      :     0.002876
      py      :     0.001687
      dz2     :    -0.001445  d :    -0.012976
      dxz     :    -0.010291
      dyz     :     0.001502
      dx2y2   :    -0.001170
      dxy     :    -0.001572
      f0      :    -0.002771  f :    -0.000092
      f+1     :    -0.000166
      f-1     :    -0.000394
      f+2     :     0.004673
      f-2     :     0.000080
      f+3     :    -0.000492
      f-3     :    -0.001022

  5 C s       :    -0.001167  s :    -0.001167
      pz      :     0.021521  p :     0.011856
      px      :    -0.005444
      py      :    -0.004221
      dz2     :     0.000010  d :     0.067813
      dxz     :     0.046820
      dyz     :     0.017039
      dx2y2   :     0.002107
      dxy     :     0.001837
      f0      :     0.003074  f :     0.050586
      f+1     :     0.000009
      f-1     :    -0.000272
      f+2     :     0.038191
      f-2     :     0.006782
      f+3     :     0.001690
      f-3     :     0.001112

  6 N s       :     0.006814  s :     0.006814
      pz      :     0.226136  p :     0.237301
      px      :     0.006137
      py      :     0.005029
      dz2     :    -0.001410  d :     0.011277
      dxz     :     0.014497
      dyz     :     0.000780
      dx2y2   :    -0.000533
      dxy     :    -0.002056
      f0      :     0.001511  f :     0.002661
      f+1     :    -0.000344
      f-1     :    -0.000431
      f+2     :     0.002256
      f-2     :     0.000431
      f+3     :    -0.000264
      f-3     :    -0.000497

  7 H s       :    -0.006228  s :    -0.006228
      pz      :     0.019825  p :     0.021709
      px      :     0.000439
      py      :     0.001445
      dz2     :    -0.000083  d :     0.018355
      dxz     :     0.001663
      dyz     :     0.015675
      dx2y2   :     0.000401
      dxy     :     0.000700

  8 H s       :    -0.006228  s :    -0.006228
      pz      :     0.019825  p :     0.021709
      px      :     0.000439
      py      :     0.001445
      dz2     :    -0.000083  d :     0.018355
      dxz     :     0.001663
      dyz     :     0.015674
      dx2y2   :     0.000401
      dxy     :     0.000700

  9 H s       :    -0.004172  s :    -0.004172
      pz      :     0.014070  p :     0.015638
      px      :     0.000288
      py      :     0.001281
      dz2     :    -0.000075  d :     0.012637
      dxz     :     0.001679
      dyz     :     0.010274
      dx2y2   :     0.000283
      dxy     :     0.000476

 10 H s       :     0.002305  s :     0.002305
      pz      :    -0.008544  p :    -0.010014
      px      :    -0.000671
      py      :    -0.000799
      dz2     :     0.000023  d :    -0.005046
      dxz     :    -0.001578
      dyz     :    -0.002564
      dx2y2   :    -0.000520
      dxy     :    -0.000407

 11 H s       :    -0.006504  s :    -0.006504
      pz      :     0.027950  p :     0.030960
      px      :     0.002847
      py      :     0.000163
      dz2     :    -0.000039  d :     0.022578
      dxz     :     0.021703
      dyz     :    -0.000625
      dx2y2   :     0.001064
      dxy     :     0.000475

 12 H s       :     0.002305  s :     0.002305
      pz      :    -0.008544  p :    -0.010014
      px      :    -0.000671
      py      :    -0.000799
      dz2     :     0.000023  d :    -0.005046
      dxz     :    -0.001578
      dyz     :    -0.002564
      dx2y2   :    -0.000520
      dxy     :    -0.000407

 13 H s       :    -0.004172  s :    -0.004172
      pz      :     0.014069  p :     0.015638
      px      :     0.000288
      py      :     0.001281
      dz2     :    -0.000075  d :     0.012637
      dxz     :     0.001679
      dyz     :     0.010273
      dx2y2   :     0.000283
      dxy     :     0.000476



                      *****************************
                      * MAYER POPULATION ANALYSIS *
                      *****************************

  NA   - Mulliken gross atomic population
  ZA   - Total nuclear charge
  QA   - Mulliken gross atomic charge
  VA   - Mayer's total valence
  BVA  - Mayer's bonded valence
  FA   - Mayer's free valence

  ATOM       NA         ZA         QA         VA         BVA        FA
  0 C      6.6840     6.0000    -0.6840     2.4877     2.4273     0.0604
  1 C      6.3600     6.0000    -0.3600     2.8980     2.8743     0.0237
  2 C      6.3760     6.0000    -0.3760     2.7889     2.6408     0.1482
  3 C      6.3604     6.0000    -0.3604     2.8983     2.8746     0.0237
  4 C      6.6843     6.0000    -0.6843     2.4896     2.4292     0.0604
  5 C      4.7767     6.0000     1.2233     1.5205     1.5009     0.0196
  6 N      7.3533     7.0000    -0.3533     3.1377     3.0066     0.1311
  7 H      0.9436     1.0000     0.0564     1.1145     1.1141     0.0004
  8 H      0.9434     1.0000     0.0566     1.1143     1.1139     0.0004
  9 H      0.3655     1.0000     0.6345     0.2817     0.2815     0.0002
 10 H      0.6713     1.0000     0.3287     0.9029     0.9029    -0.0000
 11 H      0.4437     1.0000     0.5563     0.4545     0.4543     0.0001
 12 H      0.6726     1.0000     0.3274     0.9040     0.9040    -0.0000
 13 H      0.3652     1.0000     0.6348     0.2808     0.2806     0.0002

  Mayer bond orders larger than 0.100000
B(  0-C ,  1-C ) :   1.3977 B(  0-C ,  2-C ) :   0.2985 B(  0-C ,  3-C ) :  -0.1528 
B(  0-C ,  4-C ) :   0.3572 B(  0-C ,  5-C ) :   0.4834 B(  0-C ,  6-N ) :  -0.1435 
B(  0-C , 13-H ) :   0.1427 B(  1-C ,  2-C ) :   0.9336 B(  1-C ,  3-C ) :  -0.1404 
B(  1-C ,  4-C ) :  -0.1526 B(  1-C ,  5-C ) :  -0.2230 B(  1-C , 12-H ) :   0.8777 
B(  2-C ,  3-C ) :   0.9347 B(  2-C ,  4-C ) :   0.2985 B(  2-C ,  5-C ) :  -0.1312 
B(  2-C , 11-H ) :   0.4665 B(  3-C ,  4-C ) :   1.3983 B(  3-C ,  5-C ) :  -0.2231 
B(  3-C , 10-H ) :   0.8759 B(  4-C ,  5-C ) :   0.4835 B(  4-C ,  6-N ) :  -0.1437 
B(  4-C ,  9-H ) :   0.1431 B(  5-C ,  6-N ) :   0.9428 B(  5-C ,  9-H ) :   0.1040 
B(  5-C , 13-H ) :   0.1040 B(  6-N ,  7-H ) :   1.1221 B(  6-N ,  8-H ) :   1.1216 


-------
TIMINGS
-------

Total SCF time: 0 days 0 hours 3 min 42 sec 

Total time                  ....     222.841 sec
Sum of individual times     ....     215.884 sec  ( 96.9%)

SCF preparation             ....       3.567 sec  (  1.6%)
[...]
      5      -0.000384   0.000430  -0.000896   0.000696   0.000007   0.000008
      6      -0.000029  -0.059537  -0.000044   0.056636  -0.000165   0.000000
      7      -0.000693   0.000002  -0.004292  -0.000003  -0.000000  -0.000149
      8      -0.000001  -0.001803  -0.000001   0.001715  -0.000004  -0.000000
      9       0.012877   0.014252   0.029761   0.023264   0.000267  -0.000101
     10       0.024832   0.017688   0.046711   0.040223  -0.000549   0.000064
     11       0.000384   0.000430   0.000896   0.000697   0.000007  -0.000008
     12       0.027851  -0.020730  -0.017959  -0.011751   0.000317  -0.000227
     13      -0.046288   0.033055   0.024703   0.014969   0.000084  -0.000465
     14       0.000851  -0.000631  -0.000549  -0.000362   0.000010  -0.000010
     15       0.000002  -0.001959  -0.000000  -0.001093   0.003326   0.000000
     16       0.002626   0.000001  -0.002095  -0.000000   0.000000   0.000271
     17       0.000000  -0.000056   0.000000  -0.000032   0.000094   0.000000
     18      -0.000000   0.000272   0.000000  -0.000093  -0.055628  -0.000001
     19      -0.000311  -0.000000   0.000204   0.000000  -0.000002   0.087450
     20      -0.000000   0.000011   0.000000  -0.000006  -0.001768  -0.000001
     21      -0.001284   0.002596   0.000381   0.002203   0.360359   0.362986
     22       0.000314   0.000285  -0.000019  -0.001820  -0.606967  -0.603588
     23      -0.000036   0.000078   0.000012   0.000064   0.011508   0.011651
     24       0.001278   0.002597  -0.000382   0.002203   0.360407  -0.362978
     25       0.000319  -0.000285  -0.000020   0.001821   0.606999  -0.603528
     26       0.000036   0.000078  -0.000012   0.000064   0.011502  -0.011644
     27      -0.320125   0.225789   0.172421   0.103564  -0.001245  -0.001511
     28       0.532648  -0.374464  -0.282993  -0.168705  -0.000294   0.000193
     29      -0.009800   0.006922   0.005286   0.003172  -0.000029  -0.000047
     30      -0.169417  -0.132665  -0.318629  -0.258996   0.001182  -0.000068
     31      -0.287088  -0.217832  -0.533274  -0.438434   0.002307  -0.000200
     32      -0.005080  -0.004026  -0.009552  -0.007750   0.000037  -0.000011
     33       0.000339   0.691922   0.000500  -0.628446   0.000775  -0.000001
     34       0.000796  -0.000015   0.003904   0.000013   0.000000   0.000052
     35       0.000010   0.020864   0.000015  -0.018920   0.000031  -0.000000
     36       0.169047  -0.132765   0.318724  -0.258652   0.001182   0.000068
     37      -0.286488   0.218019  -0.533483   0.437898  -0.002307  -0.000201
     38       0.005068  -0.004028   0.009553  -0.007739   0.000037   0.000011
     39       0.319397   0.226049  -0.172426   0.103514  -0.001245   0.001512
     40       0.531392   0.374862  -0.282980   0.168612   0.000293   0.000194
     41       0.009768   0.006923  -0.005280   0.003167  -0.000029   0.000047


-----------
IR SPECTRUM
-----------

 Mode   freq       eps      Int      T**2         TX        TY        TZ
       cm**-1   L/(mol*cm) km/mol    a.u.
----------------------------------------------------------------------------
  6:    169.15   0.003266   16.50  0.006025  (-0.003364  0.000001  0.077548)
  7:    350.78   0.000000    0.00  0.000000  ( 0.000001 -0.000408 -0.000001)
  8:    381.31   0.001639    8.28  0.001342  (-0.000001 -0.036627  0.000000)
  9:    432.03   0.006724   33.98  0.004857  ( 0.001919 -0.000001 -0.069666)
 10:    532.08   0.000480    2.43  0.000282  ( 0.016775  0.000001  0.000382)
 11:    538.11   0.000000    0.00  0.000000  ( 0.000001  0.000069 -0.000002)
 12:    572.23   0.052488  265.25  0.028624  ( 0.005635 -0.000001 -0.169093)
 13:    597.57   0.000026    0.13  0.000014  (-0.000002 -0.003687 -0.000000)
 14:    619.85   0.005556   28.08  0.002797  (-0.001568 -0.000000  0.052867)
 15:    786.01   0.017638   89.13  0.007003  (-0.002461  0.000001  0.083646)
 16:    803.62   0.000000    0.00  0.000000  ( 0.000000  0.000117 -0.000014)
 17:    837.96   0.000251    1.27  0.000093  (-0.009652 -0.000001 -0.000434)
 18:    930.09   0.001903    9.62  0.000638  (-0.000341 -0.000001  0.025265)
 19:    997.05   0.000000    0.00  0.000000  (-0.000000 -0.000109  0.000005)
 20:   1002.03   0.000002    0.01  0.000001  (-0.000874 -0.000000  0.000031)
 21:   1005.75   0.000230    1.16  0.000071  (-0.000316  0.000002  0.008450)
 22:   1018.98   0.000460    2.32  0.000141  (-0.011855  0.000001 -0.000555)
 23:   1026.12   0.000048    0.24  0.000015  ( 0.000003  0.003829 -0.000001)
 24:   1127.32   0.005123   25.89  0.001418  ( 0.000001 -0.037658 -0.000000)
 25:   1162.13   0.000032    0.16  0.000009  ( 0.000002  0.002935 -0.000000)
 26:   1188.00   0.000615    3.11  0.000161  ( 0.012700  0.000000  0.000351)
 27:   1359.20   0.000006    0.03  0.000001  (-0.000002 -0.001170  0.000001)
 28:   1399.44   0.006382   32.25  0.001423  ( 0.000003 -0.037723  0.000002)
 29:   1406.73   0.002151   10.87  0.000477  ( 0.021834  0.000003  0.000630)
 30:   1485.22   0.000920    4.65  0.000193  (-0.000004  0.013906 -0.000000)
 31:   1520.54   0.018940   95.71  0.003887  ( 0.062320  0.000002  0.001802)
 32:   1560.25   0.003072   15.52  0.000614  ( 0.000007 -0.024787  0.000000)
 33:   1623.29   0.037233  188.16  0.007158  ( 0.084565 -0.000000  0.002548)
 34:   1644.51   0.021249  107.39  0.004032  ( 0.063475 -0.000001  0.001811)
 35:   3212.44   0.000271    1.37  0.000026  ( 0.005127 -0.000006  0.000086)
 36:   3214.75   0.000247    1.25  0.000024  ( 0.000007  0.004896  0.000000)
 37:   3222.47   0.001044    5.28  0.000101  (-0.010049 -0.000001 -0.000352)
 38:   3229.80   0.000384    1.94  0.000037  (-0.000006  0.006095 -0.000000)
 39:   3237.16   0.000728    3.68  0.000070  ( 0.008370  0.000003  0.000300)
 40:   3536.30   0.091563  462.72  0.008080  ( 0.089848  0.000001  0.002729)
 41:   3655.72   0.034459  174.14  0.002941  ( 0.000002 -0.054235  0.000000)

* The epsilon (eps) is given for a Dirac delta lineshape.
** The dipole moment derivative (T) already includes vibrational overlap.

The first frequency considered to be a vibration is 6
The total number of vibrations considered is 36


--------------------------
THERMOCHEMISTRY AT 298.15K
--------------------------

Temperature         ...   298.15 K
Pressure            ...     1.00 atm
Total Mass          ...    93.13 AMU
Quasi RRHO          ...     True
Cut-Off Frequency   ...     1.00 cm^-1

Throughout the following assumptions are being made:
  (1) The electronic state is orbitally nondegenerate
      but the spin degeneracy is treated
  (2) There are no thermally accessible electronically excited states
  (3) Hindered rotations indicated by low frequency modes are not
      treated as such but are treated as vibrations and this may
      cause some error
  (4) All equations used are the standard statistical mechanics
      equations for an ideal gas
  (5) All vibrations are strictly harmonic

freq.     169.15  E(vib)   ...       0.38 
freq.     350.78  E(vib)   ...       0.23 
freq.     381.31  E(vib)   ...       0.21 
freq.     432.03  E(vib)   ...       0.18 
freq.     532.08  E(vib)   ...       0.13 
freq.     538.11  E(vib)   ...       0.12 
freq.     572.23  E(vib)   ...       0.11 
freq.     597.57  E(vib)   ...       0.10 
freq.     619.85  E(vib)   ...       0.09 
freq.     786.01  E(vib)   ...       0.05 
freq.     803.62  E(vib)   ...       0.05 
freq.     837.96  E(vib)   ...       0.04 
freq.     930.09  E(vib)   ...       0.03 
freq.     997.05  E(vib)   ...       0.02 
freq.    1002.03  E(vib)   ...       0.02 
freq.    1005.75  E(vib)   ...       0.02 
freq.    1018.98  E(vib)   ...       0.02 
freq.    1026.12  E(vib)   ...       0.02 
freq.    1127.32  E(vib)   ...       0.01 
freq.    1162.13  E(vib)   ...       0.01 
freq.    1188.00  E(vib)   ...       0.01 
freq.    1359.20  E(vib)   ...       0.01 
freq.    1399.44  E(vib)   ...       0.00 
freq.    1406.73  E(vib)   ...       0.00 
freq.    1485.22  E(vib)   ...       0.00 
freq.    1520.54  E(vib)   ...       0.00 
freq.    1560.25  E(vib)   ...       0.00 
freq.    1623.29  E(vib)   ...       0.00 
freq.    1644.51  E(vib)   ...       0.00 
freq.    3212.44  E(vib)   ...       0.00 
freq.    3214.75  E(vib)   ...       0.00 
freq.    3222.47  E(vib)   ...       0.00 
freq.    3229.80  E(vib)   ...       0.00 
freq.    3237.16  E(vib)   ...       0.00 
freq.    3536.30  E(vib)   ...       0.00 
freq.    3655.72  E(vib)   ...       0.00 

------------
INNER ENERGY
------------

The inner energy is: U= E(el) + E(ZPE) + E(vib) + E(rot) + E(trans)
    E(el)   - is the total energy from the electronic structure calculation
              = E(kin-el) + E(nuc-el) + E(el-el) + E(nuc-nuc)
    E(ZPE)  - the the zero temperature vibrational energy from the frequency calculation
    E(vib)  - the the finite temperature correction to E(ZPE) due to population
              of excited vibrational states
    E(rot)  - is the rotational thermal energy
    E(trans)- is the translational thermal energy

Summary of contributions to the inner energy U:
Electronic energy                ...   -287.35675831 Eh
Zero point energy                ...      0.11706594 Eh      73.46 kcal/mol
Thermal vibrational correction   ...      0.00301989 Eh       1.90 kcal/mol
Thermal rotational correction    ...      0.00141627 Eh       0.89 kcal/mol
Thermal translational correction ...      0.00141627 Eh       0.89 kcal/mol
-----------------------------------------------------------------------
Total thermal energy                   -287.23383993 Eh


Summary of corrections to the electronic energy:
(perhaps to be used in another calculation)
Total thermal correction                  0.00585244 Eh       3.67 kcal/mol
Non-thermal (ZPE) correction              0.11706594 Eh      73.46 kcal/mol
-----------------------------------------------------------------------
Total correction                          0.12291838 Eh      77.13 kcal/mol


--------
ENTHALPY
--------

The enthalpy is H = U + kB*T
                kB is Boltzmann's constant
Total thermal energy              ...   -287.23383993 Eh 
Thermal Enthalpy correction       ...      0.00094421 Eh       0.59 kcal/mol
-----------------------------------------------------------------------
Total Enthalpy                    ...   -287.23289572 Eh


Note: Rotational entropy computed according to Herzberg 
Infrared and Raman Spectra, Chapter V,1, Van Nostrand Reinhold, 1945 
Point Group:  Cs, Symmetry Number:   1  
Rotational constants in cm-1:     0.181533     0.090864     0.060554 

Vibrational entropy computed according to the QRRHO of S. Grimme
Chem.Eur.J. 2012 18 9955 using a reference frequency of 100.0 cm-1


-------
ENTROPY
-------

The entropy contributions are T*S = T*(S(el)+S(vib)+S(rot)+S(trans))
     S(el)   - electronic entropy
     S(vib)  - vibrational entropy
     S(rot)  - rotational entropy
     S(trans)- translational entropy
The entropies will be listed as multiplied by the temperature to get
units of energy

Electronic entropy                ...      0.00065446 Eh      0.41 kcal/mol
Vibrational entropy               ...      0.00448541 Eh      2.81 kcal/mol
Rotational entropy                ...      0.01277245 Eh      8.01 kcal/mol
Translational entropy             ...      0.01877043 Eh     11.78 kcal/mol
-----------------------------------------------------------------------
Final entropy term                ...      0.03668274 Eh     23.02 kcal/mol

In case the symmetry of your molecule has not been determined correctly
or in case you have a reason to use a different symmetry number we print 
out the resulting rotational entropy values for sn=1,12:

 non-linear molecules -----------------------------------
|  sn= 1 | S(rot)=       0.01277245 Eh      8.01 kcal/mol|
|  sn= 2 | S(rot)=       0.01211799 Eh      7.60 kcal/mol|
|  sn= 3 | S(rot)=       0.01173516 Eh      7.36 kcal/mol|
|  sn= 4 | S(rot)=       0.01146353 Eh      7.19 kcal/mol|
|  sn= 5 | S(rot)=       0.01125285 Eh      7.06 kcal/mol|
|  sn= 6 | S(rot)=       0.01108070 Eh      6.95 kcal/mol|
|  sn= 7 | S(rot)=       0.01093516 Eh      6.86 kcal/mol|
|  sn= 8 | S(rot)=       0.01080908 Eh      6.78 kcal/mol|
|  sn= 9 | S(rot)=       0.01069787 Eh      6.71 kcal/mol|
|  sn=10 | S(rot)=       0.01059839 Eh      6.65 kcal/mol|
|  sn=11 | S(rot)=       0.01050840 Eh      6.59 kcal/mol|
|  sn=12 | S(rot)=       0.01042625 Eh      6.54 kcal/mol|
 linear molecules ---------------------------------------
|  Dinfh | S(rot)=       0.00797349 Eh      5.00 kcal/mol|
|  Cinfv | S(rot)=       0.00862795 Eh      5.41 kcal/mol|
 --------------------------------------------------------


-------------------
GIBBS FREE ENERGY
-------------------

The Gibbs free energy is G = H - T*S

Total enthalpy                    ...   -287.23289572 Eh 
Total entropy correction          ...     -0.03668274 Eh    -23.02 kcal/mol
-----------------------------------------------------------------------
Final Gibbs free energy         ...   -287.26957847 Eh

For completeness - the Gibbs free energy minus the electronic energy
G-E(el)                           ...      0.08717984 Eh     54.71 kcal/mol


Maximum memory used throughout the entire PROP-calculation: 226.7 MB

--------------------------------
SUGGESTED CITATIONS FOR THIS RUN
--------------------------------

Below you find a list of papers that are relevant to this ORCA run
We neither can nor want to force you to cite these papers, but we appreciate if you do
You receive ORCA, which is the product of decades of hard work by many enthusiastic individuals, for free
The only thing we kindly ask in return is that you cite our papers,
We deeply appreciate it, if you show your appreciation for ORCA by not just citing the generic ORCA reference.

Please note that relegating all ORCA citations to the supporting information does *not* help us.
SI sections are not indexed - citations you put there will not count into any citation statistics
But we need these citations in order to attract the funding resources that allow us to do what we are doing

Therefore, if you are a happy ORCA user, please consider citing a few of the papers listed below in the main body of your paper

In addition to the list printed below, the program has created the file cs_rporg_075_ox_freq_07.bibtex that contains the list in bibtex format
You can import this file easily into all common literature databanks and citation aid programs


List of essential papers. We consider these as the minimum necessary citations

  1. Neese,F.
     Software update: the ORCA program system, version 5.0
     WIRES Comput. Molec. Sci., 2022 12(1)e1606
     doi.org/10.1002/wcms.1606

List of papers to cite with high priority. The work reported in these papers was absolutely
necessary for this run to complete.
Our perspective: the developers of density functionals and basis sets usually get cited in chemistry papers
Good! But without the algorithms to do something with them, the functionals or basis sets would not do anything.
Hence, in our opinion, the algorithm design and method developments papers are equally worthy of getting cited

  1. Neese,F.
     An improvement of the resolution of the identity approximation for the formation of the Coulomb matrix
     J. Comp. Chem., 2003 24(14)1740-1747
     doi.org/10.1002/jcc.10318
  2. Neese,F.; Wennmohs,F.; Hansen,A.; Becker,U.
     Efficient, approximate and parallel Hartree-Fock and hybrid DFT calculations. A 'chain-of-spheres' algorithm for the Hartree-Fock exchange
     Chem. Phys., 2009 356(1-3)98-109
     doi.org/10.1016/j.chemphys.2008.10.036
  3. Bykov,D.; Petrenko,T.; Izsak,R.; Kossmann,S.; Becker,U.; Valeev,E.; Neese,F.
     Efficient implementation of the analytic second derivatives of Hartree-Fock and hybrid DFT energies: a detailed analysis of different approximations
     Molec. Phys., 2015 113 1961-1977
     doi.org/10.1080/00268976.2015.1025114
  4. Garcia-Rates,M.; Neese,F.
     Efficient implementation of the analytical second derivatives of hartree-fock and hybrid DFT energies within the framework of the conductor-like polarizable continuum model
     J. Comput. Chem., 2019 40 1816-1828
     doi.org/10.1002/jcc.25833
  5. Garcia-Rates,M.; Neese,F.
     Effect of the Solute Cavity on the Solvation Energy and its Derivatives within the Framework of the Gaussian Charge Scheme
     J. Comput. Chem., 2020 41 922-939
     doi.org/10.1002/jcc.26139
  6. Helmich-Paris,B.; de Souza,B.; Neese,F.; Izsák,R.
     An improved chain of spheres for exchange algorithm
     J. Chem. Phys., 2021 155 104109
     doi.org/doi: 10.1063/5.0058766.
  7. Neese,F.
     The SHARK Integral Generation and Digestion System
     J. Comp. Chem., 2022  1-16
     doi.org/10.1002/jcc.26942
  8. Lehtola,S.; Steigemann,C.; Oliveira,M.; Marques,M.
     Recent developments in Libxc - A comprehensive library of functionals for density functional theory
     Software X, 2018 7 
     doi.org/10.1016/j.softx.2017.11.002
  9. Grimme,S.; Antony,J.; Ehrlich,S.; Krieg,H.
     A consistent and accurate ab initio parametrization of density functional dispersion correction (DFT-D) for the 94 elements H-Pu
     J. Chem. Phys., 2010 132 154104-XXXX
     doi.org/10.1063/1.3382344
 10. Grimme,S.; Ehrlich,S.; Goerigk,L.
     Effect of the damping function in dispersion corrected density functional theory
     J. Comput. Chem., 2011 32(7)1456-1465
     doi.org/10.1002/jcc.21759
 11. Bursch,M.; Neugebauer,H.; Ehlert,S.; Grimme,S.
     Dispersion corrected r2SCAN based global hybrid functionals: r2SCANh, r2SCAN0, and r2SCAN50
     J. Phys. Chem., 2022 156(13)134105
     doi.org/10.1063/5.0086040

List of suggested additional citations. These are papers that are important in the 'surrounding' of 
of this run, or papers that preceded the highly important papers. If you like your results we are grateful for a citation.

  1. Izsak,R.; Neese,F.
     An overlap fitted chain of spheres exchange method
     J. Chem. Phys., 2011 135 144105
     doi.org/10.1063/1.3646921
  2. Izsak,R.; Hansen,A.; Neese,F.
     The resolution of identity and chain of spheres approximations for the LPNO-CCSD singles Fock term
     Molec. Phys., 2012 110 2413-2417
     doi.org/10.1080/00268976.2012.687466
  3. Neese,F.
     The ORCA program system
     WIRES Comput. Molec. Sci., 2012 2(1)73-78
     doi.org/10.1002/wcms.81
  4. Izsak,R.; Neese,F.; Klopper,W.
     Robust fitting techniques in the chain of spheres approximation to the Fock exchange: The role of the complementary space
     J. Chem. Phys., 2013 139 
     doi.org/10.1063/1.4819264
  5. Neese,F.
     Software update: the ORCA program system, version 4.0
     WIRES Comput. Molec. Sci., 2018 8(1)1-6
     doi.org/10.1002/wcms.1327
  6. Neese,F.; Wennmohs,F.; Becker,U.; Riplinger,C.
     The ORCA quantum chemistry program package
     J. Chem. Phys., 2020 152 Art. No. L224108
     doi.org/10.1063/5.0004608
  7. Wittmann,L.; Neugebauer,H.; Grimme,S.; Bursch,M.
     Dispersion-corrected r2SCAN based double-hybrid functionals
     J. Chem. Phys., 2023 159(22)224103
     doi.org/10.1063/5.0174988

List of optional additional citations

  1. Neese,F.
     Approximate second-order SCF convergence for spin unrestricted wavefunctions
     Chem. Phys. Lett., 2000 325(1-3)93-98
     doi.org/10.1016/s0009-2614(00)00662-x

Timings for individual modules:

Sum of individual times          ...     1943.135 sec (=  32.386 min)
Startup calculation              ...        7.659 sec (=   0.128 min)   0.4 %
SCF iterations                   ...      230.960 sec (=   3.849 min)  11.9 %
Property integrals               ...      582.305 sec (=   9.705 min)  30.0 %
SCF Response                     ...      615.460 sec (=  10.258 min)  31.7 %
Property calculations            ...      506.751 sec (=   8.446 min)  26.1 %
                             ****ORCA TERMINATED NORMALLY****
TOTAL RUN TIME: 0 days 0 hours 32 minutes 27 seconds 666 msec
