
                                 *****************
                                 * O   R   C   A *
                                 *****************

                                            #,                                       
                                            ###                                      
                                            ####                                     
                                            #####                                    
                                            ######                                   
                                           ########,                                 
                                     ,,################,,,,,                         
                               ,,#################################,,                 
                          ,,##########################################,,             
                       ,#########################################, ''#####,          
                    ,#############################################,,   '####,        
                  ,##################################################,,,,####,       
                ,###########''''           ''''###############################       
              ,#####''   ,,,,##########,,,,          '''####'''          '####       
            ,##' ,,,,###########################,,,                        '##       
           ' ,,###''''                  '''############,,,                           
         ,,##''                                '''############,,,,        ,,,,,,###''
      ,#''                                            '''#######################'''  
     '                                                          ''''####''''         
             ,#######,   #######,   ,#######,      ##                                
            ,#'     '#,  ##    ##  ,#'     '#,    #''#        ,####,   ,####,        
            ##       ##  ##   ,#'  ##            #'  '#       #'       #'  '#        
            ##       ##  #######   ##           ,######,      #####,   #    #        
            '#,     ,#'  ##    ##  '#,     ,#' ,#      #,     #,   #   #,  ,#        
             '#######'   ##     ##  '#######'  #'      '#     '####' # '####'        



                #########################################################
                #                        -***-                          #
                #          Department of theory and spectroscopy        #
                #                                                       #
                #                      Frank Neese                      #
                #                                                       #
                #     Directorship, Architecture, Infrastructure        #
                #                    SHARK, DRIVERS                     #
                #        Core code/Algorithms in most modules           #
                #                                                       #
                #        Max Planck Institute fuer Kohlenforschung      #
                #                Kaiser Wilhelm Platz 1                 #
                #                 D-45470 Muelheim/Ruhr                 #
                #                      Germany                          #
                #                                                       #
                #                  All rights reserved                  #
                #                        -***-                          #
                #########################################################


                         Program Version 6.0.0  -   RELEASE  -


 With contributions from (in alphabetic order):
   Daniel Aravena         : Magnetic Suceptibility
   Michael Atanasov       : Ab Initio Ligand Field Theory (pilot matlab implementation)
   Alexander A. Auer      : GIAO ZORA, VPT2 properties, NMR spectrum
   Ute Becker             : All parallelization in ORCA, NUMFREQ, NUMCALC
   Giovanni Bistoni       : ED, misc. LED, open-shell LED, HFLD
   Martin Brehm           : Molecular dynamics
   Dmytro Bykov           : pre 5.0 version of the SCF Hessian
   Marcos Casanova-Páez   : Triplet and SCS-CIS(D). UHF-(DLPNO)-IP/EA/STEOM-CCSD. UHF-CVS-IP/STEOM-CCSD
   Vijay G. Chilkuri      : MRCI spin determinant printing, contributions to CSF-ICE
   Pauline Colinet        : FMM embedding
   Dipayan Datta          : RHF DLPNO-CCSD density
   Achintya Kumar Dutta   : EOM-CC, STEOM-CC
   Nicolas Foglia         : Exact transition moments, OPA infrastructure, MCD improvements
   Dmitry Ganyushin       : Spin-Orbit,Spin-Spin,Magnetic field MRCI
   Miquel Garcia          : C-PCM and meta-GGA Hessian, CCSD/C-PCM, Gaussian charge scheme
   Tiago L. C. Gouveia    : GS-ROHF, GS-ROCIS
   Yang Guo               : DLPNO-NEVPT2, F12-NEVPT2, CIM, IAO-localization
   Andreas Hansen         : Spin unrestricted coupled pair/coupled cluster methods
   Ingolf Harden          : AUTO-CI MPn and infrastructure 
   Benjamin Helmich-Paris : MC-RPA, TRAH-(SCF,CASSCF), AVAS, COSX integrals, SCF dyn. polar.
   Lee Huntington         : MR-EOM, pCC
   Robert Izsak           : Overlap fitted RIJCOSX, COSX-SCS-MP3, EOM
   Riya Kayal             : Wick's Theorem for AUTO-CI, AUTO-CI UHF-CCSDT
   Emily Kempfer          : AUTO-CI, RHF CISDT and CCSDT
   Christian Kollmar      : KDIIS, OOCD, Brueckner-CCSD(T), CCSD density, CASPT2, CASPT2-K, improved NEVPT2
   Axel Koslowski         : Symmetry handling
   Simone Kossmann        : Meta GGA functionals, TD-DFT gradient, OOMP2, (MP2 Hessian; deprecated post 5.0)
   Lucas Lang             : DCDCAS
   Marvin Lechner         : AUTO-CI (C++ implementation), FIC-MRCC
   Spencer Leger          : CASSCF response
   Dagmar Lenk            : GEPOL surface, SMD, ORCA-2-JSON
   Dimitrios Liakos       : Extrapolation schemes; Compound Job, initial MDCI parallelization
   Dimitrios Manganas     : Further ROCIS development; embedding schemes. LFT, Crystal Embedding
   Dimitrios Pantazis     : SARC Basis sets
   Anastasios Papadopoulos: AUTO-CI, single reference methods and gradients
   Taras Petrenko         : pre 6.0 DFT Hessian and TD-DFT gradient, (ASA, deprecated), ECA, 1-Electron XAS/XES, NRVS
   Peter Pinski           : DLPNO-MP2, DLPNO-MP2 Gradient
   Christoph Reimann      : Effective Core Potentials
   Marius Retegan         : Local ZFS, SOC
   Christoph Riplinger    : Optimizer, TS searches, QM/MM, DLPNO-CCSD(T), (RO)-DLPNO pert. Triples
   Michael Roemelt        : Original ROCIS implementation
   Masaaki Saitow         : Open-shell DLPNO-CCSD energy and density
   Barbara Sandhoefer     : DKH picture change effects
   Kantharuban Sivalingam : CASSCF convergence/infrastructure, NEVPT2 and variants, FIC-MRCI
   Bernardo de Souza      : ESD, SOC TD-DFT
   Georgi Stoychev        : AutoAux, RI-MP2 NMR, DLPNO-MP2 response, X2C
   Van Anh Tran           : RI-MP2 g-tensors
   Willem Van den Heuvel  : Paramagnetic NMR
   Zikuan Wang            : NOTCH, Electric field optimization 
   Frank Wennmohs         : Technical directorship and infrastructure
   Hang Xu                : AUTO-CI-Response properties 


 We gratefully acknowledge several colleagues who have allowed us to
 interface, adapt or use parts of their codes:
   Stefan Grimme, W. Hujo, H. Kruse, P. Pracht,  : VdW corrections, initial TS optimization,
                  C. Bannwarth, S. Ehlert,         DFT functionals, gCP, sTDA/sTD-DF
                  L. Wittmann, M. Mueller
   Ed Valeev, F. Pavosevic, A. Kumar             : LibInt (2-el integral package), F12 methods
   Garnet Chan, S. Sharma, J. Yang, R. Olivares  : DMRG
   Ulf Ekstrom                                   : XCFun DFT Library
   Mihaly Kallay                                 : mrcc  (arbitrary order and MRCC methods)
   Frank Weinhold                                : gennbo (NPA and NBO analysis)
   Simon Mueller                                 : openCOSMO-RS
   Christopher J. Cramer and Donald G. Truhlar   : smd solvation model
   Lars Goerigk                                  : TD-DFT with DH, B97 family of functionals
   V. Asgeirsson, H. Jonsson                     : NEB implementation
   FAccTs GmbH                                   : IRC, NEB, NEB-TS, DLPNO-Multilevel, CI-OPT
                                                   MM, QMMM, 2- and 3-layer-ONIOM, Crystal-QMMM,
                                                   LR-CPCM, SF, NACMEs, symmetry and pop. for TD-DFT,
                                                   nearIR, NL-DFT gradient (VV10), updates on ESD,
                                                   ML-optimized integration grids, MBIS, APM,
                                                   GOAT, DOCKER, SOLVATOR, interface openCOSMO-RS
   S Lehtola, MJT Oliveira, MAL Marques          : LibXC Library
   Liviu Ungur et al                             : ANISO software


 Your calculation uses the libint2 library for the computation of 2-el integrals
 For citations please refer to: http://libint.valeyev.net

 Your ORCA version has been built with support for libXC version: 6.2.2
 For citations please refer to: https://libxc.gitlab.io

 This ORCA versions uses:
   CBLAS   interface :  Fast vector & matrix operations
   LAPACKE interface :  Fast linear algebra routines
   SCALAPACK package :  Parallel linear algebra routines
   Shared memory     :  Shared parallel matrices
   BLAS/LAPACK       :  OpenBLAS 0.3.27  USE64BITINT DYNAMIC_ARCH NO_AFFINITY Sandybridge SINGLE_THREADED
        Core in use  :  Sandybridge
   Copyright (c) 2011-2014, The OpenBLAS Project


NOTE: MaxCore=5000 MB was set to SCF,MP2,MDCI,CIPSI,MRCI and CIS
      => If you want to overwrite this, your respective input block should be placed after the MaxCore statement
Your calculation utilizes the atom-pairwise dispersion correction
with the Becke-Johnson damping scheme (D3BJ)


Your calculation utilizes the SMD solvation module
Please cite in your paper:
A.V. Marenich, C.J. Cramer, D.G. Truhlar J. Phys. Chem. B, 113, (2009), 6378 

Warning: RI is on but no J-basis has been assigned. Assigning Def2/J (nothing to worry about!)
================================================================================

----- Orbital basis set information -----
Your calculation utilizes the basis: aug-cc-pVTZ 
    H, B-Ne : Obtained from the ccRepo (grant-hill.group.shef.ac.uk/ccrepo) Feb. 2017
              R. A. Kendall, T. H. Dunning, Jr., R. J. Harrison, J. Chem. Phys. 96, 6796 (1992)
         He : Obtained from the ccRepo (grant-hill.group.shef.ac.uk/ccrepo) Feb. 2017
              D. E. Woon, T. H. Dunning, Jr., J. Chem. Phys. 100, 2975 (1994)
  Li-Be, Na : Obtained from the ccRepo (grant-hill.group.shef.ac.uk/ccrepo) Feb. 2017
              B. P. Prascher, D. E. Woon, K. A. Peterson, T. H. Dunning, Jr., A. K. Wilson, Theor. Chem. Acc. 128, 69 (2011)
         Mg : Obtained from the Peterson Research Group Website (tyr0.chem.wsu.edu/~kipeters) Feb. 2017
              B. P. Prascher, D. E. Woon, K. A. Peterson, T. H. Dunning, Jr., A. K. Wilson, Theor. Chem. Acc. 128, 69 (2011)
      Al-Ar : Obtained from the ccRepo (grant-hill.group.shef.ac.uk/ccrepo) Feb. 2017
              D. E. Woon, T. H. Dunning, Jr., J. Chem. Phys. 98, 1358 (1993)
      Sc-Zn : Obtained from the ccRepo (grant-hill.group.shef.ac.uk/ccrepo) Feb. 2017
              N. B. Balabanov, K. A. Peterson, J. Chem. Phys. 123, 064107 (2005)
              N. B. Balabanov, K. A. Peterson, J. Chem. Phys. 125, 074110 (2006)
      Ga-Kr : Obtained from the ccRepo (grant-hill.group.shef.ac.uk/ccrepo) Feb. 2017
              A. K. Wilson, D. E. Woon, K. A. Peterson, T. H. Dunning, Jr., J. Chem. Phys. 110, 7667 (1999)
     Ag, Au : Obtained from the Peterson Research Group Website (tyr0.chem.wsu.edu/~kipeters) Feb. 2017
              K. A. Peterson, C. Puzzarini, Theor. Chem. Acc. 114, 283 (2005)

----- AuxJ basis set information -----
Your calculation utilizes the auxiliary basis: def2/J
   F. Weigend, Phys. Chem. Chem. Phys. 8, 1057 (2006).

================================================================================
                                        WARNINGS
                       Please study these warnings very carefully!
================================================================================

Using LibXC functional ID 497 : Re-regularized SCAN exchange by Furness et al
[ 1]  J. W. Furness, A. D. Kaplan, J. Ning, J. P. Perdew, and J. Sun.,  J. Phys. Chem. Lett. 11, 8208-8215 (2020)
[ 2]  J. W. Furness, A. D. Kaplan, J. Ning, J. P. Perdew, and J. Sun.,  J. Phys. Chem. Lett. 11, 9248-9248 (2020)
Using LibXC functional ID 498 : Re-regularized SCAN correlation by Furness et al
[ 1]  J. W. Furness, A. D. Kaplan, J. Ning, J. P. Perdew, and J. Sun.,  J. Phys. Chem. Lett. 11, 8208-8215 (2020)
[ 2]  J. W. Furness, A. D. Kaplan, J. Ning, J. P. Perdew, and J. Sun.,  J. Phys. Chem. Lett. 11, 9248-9248 (2020)
Using LibXC functional ID 497 : Re-regularized SCAN exchange by Furness et al
[ 1]  J. W. Furness, A. D. Kaplan, J. Ning, J. P. Perdew, and J. Sun.,  J. Phys. Chem. Lett. 11, 8208-8215 (2020)
[ 2]  J. W. Furness, A. D. Kaplan, J. Ning, J. P. Perdew, and J. Sun.,  J. Phys. Chem. Lett. 11, 9248-9248 (2020)
Using LibXC functional ID 498 : Re-regularized SCAN correlation by Furness et al
[ 1]  J. W. Furness, A. D. Kaplan, J. Ning, J. P. Perdew, and J. Sun.,  J. Phys. Chem. Lett. 11, 8208-8215 (2020)
[ 2]  J. W. Furness, A. D. Kaplan, J. Ning, J. P. Perdew, and J. Sun.,  J. Phys. Chem. Lett. 11, 9248-9248 (2020)


WARNING: Found flag for RIJCOSX approximation but no HF exchange needed!
  ===> : RIJCOSX  will be disabled and Split-RI-J is turned on

WARNING: your system is open-shell and RHF/RKS was chosen
  ===> : WILL SWITCH to UHF/UKS


================================================================================
                                       INPUT FILE
================================================================================
NAME = cs_rporg_169_red_freq_06.inp
|  1> !r2SCAN freq aug-cc-pVTZ d3 TightSCF SlowConv RIJCOSX defgrid2
|  2> 
|  3> %pal
|  4> nprocs 12
|  5> end
|  6> 
|  7> %scf
|  8> MaxIter 1500
|  9> end
| 10> 
| 11> %maxcore 5000
| 12> 
| 13> !CPCM
| 14> %cpcm smd true
| 15> SMDsolvent "MeCN"
| 16> surfacetype gepol_ses
| 17> rsolv 2.19
| 18> end 
| 19> 
| 20> * xyz -1 2
| 21> C          -1.17278171550795     -1.25393556806539     -0.00049761022766
| 22> C          -2.51653902591233     -0.94655888951165     -0.00058537451949
| 23> C          -2.96062889319484      0.38608630567311     -0.00021660364140
| 24> C          -1.99715961091731      1.40957760410147      0.00033484018253
| 25> C          -0.64624679830210      1.12996349347095      0.00045835154382
| 26> C          -0.17467117385781     -0.21878943686286      0.00001960777785
| 27> C           1.16977968256552     -0.63326106929435      0.00027411586469
| 28> O           1.69863351533822     -1.73416004730160      0.00019771819063
| 29> Cl          2.43262649368797      0.86147624082259      0.00010301176055
| 30> H           0.07100790489712      1.93942259339865      0.00121931829374
| 31> H          -2.31749563809703      2.44672454580346      0.00118794638948
| 32> H          -4.01842654132869      0.61877549691892     -0.00006672734212
| 33> H          -3.24130280397611     -1.75493942298438     -0.00101521130437
| 34> H          -0.84747269539465     -2.28737184616893     -0.00086788296824
| 35> *
| 36> 
| 37>                          ****END OF INPUT****
================================================================================

                       ****************************
                       * Single Point Calculation *
                       ****************************

---------------------------------
CARTESIAN COORDINATES (ANGSTROEM)
---------------------------------
  C     -1.172782   -1.253936   -0.000498
  C     -2.516539   -0.946559   -0.000585
  C     -2.960629    0.386086   -0.000217
  C     -1.997160    1.409578    0.000335
  C     -0.646247    1.129963    0.000458
  C     -0.174671   -0.218789    0.000020
  C      1.169780   -0.633261    0.000274
  O      1.698634   -1.734160    0.000198
  Cl     2.432626    0.861476    0.000103
  H      0.071008    1.939423    0.001219
  H     -2.317496    2.446725    0.001188
  H     -4.018427    0.618775   -0.000067
  H     -3.241303   -1.754939   -0.001015
  H     -0.847473   -2.287372   -0.000868

----------------------------
CARTESIAN COORDINATES (A.U.)
----------------------------
  NO LB      ZA    FRAG     MASS         X           Y           Z
   0 C     6.0000    0    12.011   -2.216236   -2.369595   -0.000940
   1 C     6.0000    0    12.011   -4.755570   -1.788737   -0.001106
   2 C     6.0000    0    12.011   -5.594778    0.729597   -0.000409
   3 C     6.0000    0    12.011   -3.774085    2.663716    0.000633
   4 C     6.0000    0    12.011   -1.221229    2.135322    0.000866
   5 C     6.0000    0    12.011   -0.330081   -0.413452    0.000037
   6 C     6.0000    0    12.011    2.210563   -1.196690    0.000518
   7 O     8.0000    0    15.999    3.209952   -3.277088    0.000374
   8 Cl   17.0000    0    35.453    4.596998    1.627954    0.000195
   9 H     1.0000    0     1.008    0.134185    3.664978    0.002304
  10 H     1.0000    0     1.008   -4.379432    4.623639    0.002245
  11 H     1.0000    0     1.008   -7.593726    1.169316   -0.000126
  12 H     1.0000    0     1.008   -6.125175   -3.316355   -0.001918
  13 H     1.0000    0     1.008   -1.601491   -4.322506   -0.001640

--------------------------------
INTERNAL COORDINATES (ANGSTROEM)
--------------------------------
 C      0   0   0     0.000000000000     0.00000000     0.00000000
 C      1   0   0     1.378464413573     0.00000000     0.00000000
 C      2   1   0     1.404691838968   121.31451009     0.00000000
 C      3   2   1     1.405634305195   118.30016123     0.00000000
 C      4   3   2     1.379546843499   121.57569475     0.00000000
 C      5   4   3     1.428817073369   120.96561871     0.00000000
 C      6   5   4     1.406888376596   126.40522527   180.00931254
 O      7   6   5     1.221337358002   132.79251729   179.98497652
 Cl     7   6   5     1.956788625247   113.05954420   359.96063957
 H      5   4   3     1.081516954461   119.84982829   180.02030557
 H      4   3   2     1.085490523580   119.56630112   180.03403893
 H      3   2   1     1.083088245058   120.83616531   180.01367496
 H      2   1   3     1.085707974388   118.99380680   179.99591342
 H      1   2   3     1.083428187085   120.35756335   180.00500370

---------------------------
INTERNAL COORDINATES (A.U.)
---------------------------
 C      0   0   0     0.000000000000     0.00000000     0.00000000
 C      1   0   0     2.604920227009     0.00000000     0.00000000
 C      2   1   0     2.654482878204   121.31451009     0.00000000
 C      3   2   1     2.656263881263   118.30016123     0.00000000
 C      4   3   2     2.606965723128   121.57569475     0.00000000
 C      5   4   3     2.700072964138   120.96561871     0.00000000
 C      6   5   4     2.658633732764   126.40522527   180.00931254
 O      7   6   5     2.307993123752   132.79251729   179.98497652
 Cl     7   6   5     3.697794603688   113.05954420   359.96063957
 H      5   4   3     2.043770853125   119.84982829   180.02030557
 H      4   3   2     2.051279810532   119.56630112   180.03403893
 H      3   2   1     2.046740162029   120.83616531   180.01367496
 H      2   1   3     2.051690733008   118.99380680   179.99591342
 H      1   2   3     2.047382559361   120.35756335   180.00500370

---------------------
BASIS SET INFORMATION
---------------------
There are 4 groups of distinct atoms

 Group   1 Type C   : 19s6p3d2f contracted to 5s4p3d2f pattern {88111/3111/111/11}
 Group   2 Type O   : 19s6p3d2f contracted to 5s4p3d2f pattern {88111/3111/111/11}
 Group   3 Type Cl  : 42s17p3d2f contracted to 6s5p3d2f pattern {131313111/77111/111/11}
 Group   4 Type H   : 6s3p2d contracted to 4s3p2d pattern {3111/111/11}

Atom   0C    basis set group =>   1
Atom   1C    basis set group =>   1
Atom   2C    basis set group =>   1
Atom   3C    basis set group =>   1
Atom   4C    basis set group =>   1
Atom   5C    basis set group =>   1
Atom   6C    basis set group =>   1
Atom   7O    basis set group =>   2
Atom   8Cl   basis set group =>   3
Atom   9H    basis set group =>   4
Atom  10H    basis set group =>   4
Atom  11H    basis set group =>   4
Atom  12H    basis set group =>   4
Atom  13H    basis set group =>   4
---------------------------------
AUXILIARY/J BASIS SET INFORMATION
---------------------------------
There are 4 groups of distinct atoms

 Group   1 Type C   : 12s5p4d2f1g contracted to 6s4p3d1f1g pattern {711111/2111/211/2/1}
 Group   2 Type O   : 12s5p4d2f1g contracted to 6s4p3d1f1g pattern {711111/2111/211/2/1}
 Group   3 Type Cl  : 14s5p5d2f1g contracted to 8s4p3d1f1g pattern {71111111/2111/311/2/1}
 Group   4 Type H   : 5s2p1d contracted to 3s1p1d pattern {311/2/1}

Atom   0C    basis set group =>   1
Atom   1C    basis set group =>   1
Atom   2C    basis set group =>   1
Atom   3C    basis set group =>   1
Atom   4C    basis set group =>   1
Atom   5C    basis set group =>   1
Atom   6C    basis set group =>   1
Atom   7O    basis set group =>   2
Atom   8Cl   basis set group =>   3
Atom   9H    basis set group =>   4
Atom  10H    basis set group =>   4
Atom  11H    basis set group =>   4
Atom  12H    basis set group =>   4
Atom  13H    basis set group =>   4


           ************************************************************
           *        Program running with 12 parallel MPI-processes    *
           *              working on a common directory               *
           ************************************************************
------------------------------------------------------------------------------
                             ORCA STARTUP CALCULATIONS
                           -- RI-GTO INTEGRALS CHOSEN --
------------------------------------------------------------------------------
------------------------------------------------------------------------------
                   ___                                                        
                  /   \      - P O W E R E D   B Y -                         
                 /     \                                                     
                 |  |  |   _    _      __       _____    __    __             
                 |  |  |  | |  | |    /  \     |  _  \  |  |  /  |          
                  \  \/   | |  | |   /    \    | | | |  |  | /  /          
                 / \  \   | |__| |  /  /\  \   | |_| |  |  |/  /          
                |  |  |   |  __  | /  /__\  \  |    /   |      \           
                |  |  |   | |  | | |   __   |  |    \   |  |\   \          
                \     /   | |  | | |  |  |  |  | |\  \  |  | \   \       
                 \___/    |_|  |_| |__|  |__|  |_| \__\ |__|  \__/        
                                                                              
                      - O R C A' S   B I G   F R I E N D -                    
                                      &                                       
                       - I N T E G R A L  F E E D E R -                       
                                                                              
 v1 FN, 2020, v2 2021, v3 2022-2024                                           
------------------------------------------------------------------------------


----------------------
SHARK INTEGRAL PACKAGE
----------------------

Number of atoms                             ...     14
Number of basis functions                   ...    606
Number of shells                            ...    236
Maximum angular momentum                    ...      3
Integral batch strategy                     ... SHARK/LIBINT Hybrid
RI-J (if used) integral strategy            ... SPLIT-RIJ (Revised 2003 algorithm where possible)
Printlevel                                  ...      1
Contraction scheme used                     ... PARTIAL GENERAL contraction
Prescreening option                         ... SCHWARTZ
   Thresh                                   ... 2.500e-11
   Tcut                                     ... 2.500e-12
   Tpresel                                  ... 2.500e-12 
Coulomb Range Separation                    ... NOT USED
Exchange Range Separation                   ... NOT USED
Multipole approximations                    ... NOT USED
Finite Nucleus Model                        ... NOT USED
CABS basis                                  ... NOT available
Auxiliary Coulomb fitting basis             ... AVAILABLE
   # of basis functions in Aux-J            ...    498
   # of shells in Aux-J                     ...    162
   Maximum angular momentum in Aux-J        ...      4
Auxiliary J/K fitting basis                 ... NOT available
Auxiliary Correlation fitting basis         ... NOT available
Auxiliary 'external' fitting basis          ... NOT available

Checking pre-screening integrals            ... done (  0.9 sec) Dimension = 236
Save PGC pre-screening integrals            ... done (  0.9 sec) Dimension = 236
Calculate PGC overlap integrals             ... done (  1.0 sec) Dimension = 173
Calculating pre-screening integrals (ORCA)  ... done (  1.1 sec) Dimension = 173
Check shell pair data                       ... done (  0.6 sec)
Shell pair information
Shell pair cut-off parameter TPreSel        ...   2.5e-12
Total number of shell pairs                 ...     27966
Shell pairs after pre-screening             ...     22729
Total number of primitive shell pairs       ...     34492
Primitive shell pairs kept                  ...     26552
          la=0 lb=0:   5076 shell pairs
          la=1 lb=0:   5837 shell pairs
          la=1 lb=1:   1502 shell pairs
          la=2 lb=0:   3936 shell pairs
          la=2 lb=1:   1949 shell pairs
          la=2 lb=2:    671 shell pairs
          la=3 lb=0:   1978 shell pairs
          la=3 lb=1:    968 shell pairs
          la=3 lb=2:    645 shell pairs
          la=3 lb=3:    167 shell pairs

Calculating one electron integrals          ... done (  0.1 sec)
Calculating RI/J V-Matrix + Cholesky decomp.... done (  0.2 sec)
Calculating Nuclear repulsion               ... done (  0.0 sec) ENN=    455.026763336311 Eh

Diagonalization of the overlap matrix:
Smallest eigenvalue                        ... 6.891e-07
Time for diagonalization                   ...    0.076 sec
Threshold for overlap eigenvalues          ... 1.000e-07
Number of eigenvalues below threshold      ... 0

IMPORTANT:
Smallest eigenvalue of S below the DiffSThresh (1.000e-06) while
Thresh>1e-12 and/or TCut>1e-13! In order to avoid SCF convergence issues,
Thresh will be set to at least 1e-12 and TCut to at least 1e-13.
This can be turned off by adding %SCF DiffSThresh -1 END to the input.

Time for construction of square roots      ...    0.109 sec
Total time needed                          ...    0.799 sec

-------------------
DFT GRID GENERATION
-------------------

General Integration Accuracy     IntAcc      ... 4.388
Radial Grid Type                 RadialGrid  ... OptM3 with GC (2021)
Angular Grid (max. ang.)         AngularGrid ... 4 (Lebedev-302)
Angular grid pruning method      GridPruning ... 4 (adaptive)
Weight generation scheme         WeightScheme... mBecke (2022)
Basis function cutoff            BFCut       ... 1.0000e-11
Integration weight cutoff        WCut        ... 1.0000e-14
Partially contracted basis set               ... off
Rotationally invariant grid construction     ... off
Angular grids for H and He will be reduced by one unit
Diffuse basis detected: some atoms will have their outermost
                        angular grid increased by 1.

Total number of grid points                  ...    75053
Total number of batches                      ...     1181
Average number of points per batch           ...       63
Average number of grid points per atom       ...     5361

---------------------
SHARK GRID GENERATION
---------------------

General Integration Accuracy     IntAcc      ... 4.388
Radial Grid Type                 RadialGrid  ... OptM3 with GC (2021)
Angular Grid (max. ang.)         AngularGrid ... 4 (Lebedev-302)
Angular grid pruning method      GridPruning ... 4 (adaptive)
Weight generation scheme         WeightScheme... mBecke (2022)
Basis function cutoff            BFCut       ... 1.0000e-11
Integration weight cutoff        WCut        ... 1.0000e-14
Partially contracted basis set               ... off
Rotationally invariant grid construction     ... off
Angular grids for H and He will be reduced by one unit
Diffuse basis detected: some atoms will have their outermost
                        angular grid increased by 1.
Core-polarized basis detected: some atoms will have their core
                               angular grid increased.
Steep s-basis detected: some atoms will have their radial
                        grid points doubled.

Total number of grid points                  ...   138163
Total number of batches                      ...     2167
Average number of points per batch           ...       63
Average number of grid points per atom       ...     9869
Initializing property integral containers    ... done (  1.4 sec)

SHARK setup successfully completed in  10.9 seconds

Maximum memory used throughout the entire STARTUP-calculation: 74.1 MB


           ************************************************************
           *        Program running with 12 parallel MPI-processes    *
           *              working on a common directory               *
           ************************************************************
-------------------------------------------------------------------------------
                                 ORCA GUESS
                   Start orbitals & Density for SCF / CASSCF
-------------------------------------------------------------------------------

------------
SCF SETTINGS
------------
Hamiltonian:
 Density Functional     Method          .... DFT(GTOs)
  Functional kind                       .... Exchange
  Functional name                       .... Re-regularized SCAN exchange by Furness et al
  Functional family                     .... MGGA
  Functional refs                              
    [ 0] J. W. Furness, A. D. Kaplan, J. Ning, J. P. Perdew, and J. Sun.,  J. Phys. Chem. Lett. 11, 8208-8215 (2020), doi: 10.1021/acs.jpclett.0c02405
    [ 1] J. W. Furness, A. D. Kaplan, J. Ning, J. P. Perdew, and J. Sun.,  J. Phys. Chem. Lett. 11, 9248-9248 (2020), doi: 10.1021/acs.jpclett.0c03077
  Functional external parameters        .... 6
    Parameter  0 _c1        =  6.670000e-01 : c1 parameter        
    Parameter  1 _c2        =  8.000000e-01 : c2 parameter        
    Parameter  2 _d         =  1.240000e+00 : d parameter         
    Parameter  3 _k1        =  6.500000e-02 : k1 parameter        
    Parameter  4 _eta       =  1.000000e-03 : eta parameter       
    Parameter  5 _dp2       =  3.610000e-01 : dp2 parameter       
  Functional kind                       .... Correlation
  Functional name                       .... Re-regularized SCAN correlation by Furness et al
  Functional family                     .... MGGA
  Functional refs                              
    [ 0] J. W. Furness, A. D. Kaplan, J. Ning, J. P. Perdew, and J. Sun.,  J. Phys. Chem. Lett. 11, 8208-8215 (2020), doi: 10.1021/acs.jpclett.0c02405
    [ 1] J. W. Furness, A. D. Kaplan, J. Ning, J. P. Perdew, and J. Sun.,  J. Phys. Chem. Lett. 11, 9248-9248 (2020), doi: 10.1021/acs.jpclett.0c03077
  Functional external parameters        .... 1
    Parameter  0 _eta       =  1.000000e-03 : Regularization parameter
 Gradients option       PostSCFGGA      .... off
   NL short-range parameter             .... 12.300000
 RI-approximation to the Coulomb term is turned on
   Number of AuxJ basis functions       .... 498


General Settings:
 Integral files         IntName         .... cs_rporg_169_red_freq_06
 Hartree-Fock type      HFTyp           .... UHF
 Total Charge           Charge          ....   -1
 Multiplicity           Mult            ....    2
 Number of Electrons    NEL             ....   73
 Basis Dimension        Dim             ....  533
 Nuclear Repulsion      ENuc            ....    455.0267633363 Eh

Convergence Acceleration:
 AO-DIIS                CNVDIIS         .... on
   Start iteration      DIISMaxIt       ....     0
   Startup error        DIISStart       ....  0.200000
   # of expansion vecs  DIISMaxEq       ....     5
   Bias factor          DIISBfac        ....   1.050
   Max. coefficient     DIISMaxC        ....  10.000
 MO-DIIS                CNVKDIIS        .... off
 Trust-Rad. Augm. Hess. CNVTRAH         .... auto
   Auto Start mean grad. ratio tolernc. ....  1.125000
   Auto Start start iteration           ....    50
   Auto Start num. interpolation iter.  ....    10
   Max. Number of Micro iterations      ....    24
   Max. Number of Macro iterations      .... Maxiter - #DIIS iter
   Number of Davidson start vectors     ....     2
   Converg. threshold    (grad. norm)   ....   1.000e-05
   Grad. Scal. Fac. for Micro threshold ....   0.100
   Minimum threshold for Micro iter.    ....   1.000e-02
   NR start threshold (gradient norm)   ....   1.000e-04
   Initial trust radius                 ....   0.400
   Minimum AH scaling param. (alpha)    ....   1.000
   Maximum AH scaling param. (alpha)    .... 1000.000
   Quad. conv. algorithm                .... NR
   White noise on init. David. guess    .... on
   Maximum white noise                  ....   0.010
   Pseudo random numbers                .... off
   Inactive MOs                         .... canonical
   Orbital update algorithm             .... Taylor
   Preconditioner                       .... Diag
   Full preconditioner red. dimension   ....   250
 SOSCF                  CNVSOSCF        .... on
   Start iteration      SOSCFMaxIt      ....   150
   Startup grad/error   SOSCFStart      ....  0.001000
   Hessian update       SOSCFHessUp     .... L-BFGS
 Level Shifting         CNVShift        .... on
   Level shift para.    LevelShift      ....    0.2500
   Turn off err/grad.   ShiftErr        ....    0.0000
 Zerner damping         CNVZerner       .... off
 Static damping         CNVDamp         .... on
   Fraction old density DampFac         ....    0.8500
   Max. Damping (<1)    DampMax         ....    0.9800
   Min. Damping (>=0)   DampMin         ....    0.0000
   Turn off err/grad.   DampErr         ....    0.0300

SCF Procedure:
 Maximum # iterations   MaxIter         ....  1500
 SCF integral mode      SCFMode         .... Direct
   Integral package                     .... SHARK and LIBINT hybrid scheme
 Reset frequency        DirectResetFreq ....    20
 Integral Threshold     Thresh          ....  1.000e-12 Eh
 Primitive CutOff       TCut            ....  1.000e-13 Eh

Convergence Tolerance:
 Convergence Check Mode ConvCheckMode   .... Total+1el-Energy
 Convergence forced     ConvForced      .... 0
 Energy Change          TolE            ....  1.000e-08 Eh
 1-El. energy change                    ....  1.000e-05 Eh
 Orbital Gradient       TolG            ....  1.000e-05
 Orbital Rotation angle TolX            ....  1.000e-05
 DIIS Error             TolErr          ....  5.000e-07

------------------------------
INITIAL GUESS: MODEL POTENTIAL
------------------------------
Loading Hartree-Fock densities                     ... done
Calculating cut-offs                               ... done
Initializing the effective Hamiltonian             ... done
Setting up the integral package (SHARK)            ... done
Starting the Coulomb interaction                   ... done (   1.2 sec)
Making the grid                                    ... done (   1.0 sec)
Mapping shells                                     ... done
Starting the XC term evaluation                    ... done (   0.3 sec)
  promolecular density results
     # of electrons  =     71.996887667
     EX              =    -72.741641734
     EC              =     -2.489631460
     EX+EC           =    -75.231273194
Transforming the Hamiltonian                       ... done (   0.5 sec)
Diagonalizing the Hamiltonian                      ... done (   0.1 sec)
Back transforming the eigenvectors                 ... done (   1.0 sec)
Now organizing SCF variables                       ... done
                      ------------------
                      INITIAL GUESS DONE (   9.5 sec)
                      ------------------
             **** ENERGY FILE WAS UPDATED (cs_rporg_169_red_freq_06.en.tmp) ****
Finished Guess after  17.7 sec
Maximum memory used throughout the entire GUESS-calculation: 36.7 MB


           ************************************************************
           *        Program running with 12 parallel MPI-processes    *
           *              working on a common directory               *
           ************************************************************

-------------------------------------------------------------------------------------------
                                      ORCA LEAN-SCF
                              memory conserving SCF solver
-------------------------------------------------------------------------------------------

--------------------
CPCM SOLVATION MODEL
--------------------
CPCM parameters:
  Epsilon                                         ...      35.6880
  Refrac                                          ...       1.3442
  Rsolv                                           ...       2.1900
  Surface type                                    ...    GEPOL SES
  Discretization scheme                           ... Constant num. charges
  Epsilon function type                           ...         CPCM
Solvent:                                          ... ACETONITRILE
SMD-CDS solvent descriptors:
  Soln                                            ...       1.3442
  Soln25                                          ...       1.3416
  Sola                                            ...       0.0700
  Solb                                            ...       0.3200
  Solg                                            ...      41.2500
  Solc                                            ...       0.0000
  Solh                                            ...       0.0000
Radii:
  Scheme                                          ... Element-dependent radii
  Radius for C  used is    3.4960 Bohr (=   1.8500 Ang.)
  Radius for O  used is    4.0969 Bohr (=   2.1680 Ang.)
  Radius for Cl used is    4.4975 Bohr (=   2.3800 Ang.)
  Radius for H  used is    2.2677 Bohr (=   1.2000 Ang.)
Calculating surface                               ...        done! (  0.0s)
Cavity surface points                             ...          441
Cavity Volume                                     ...    1157.2650
Cavity Surface-area                               ...     629.9017
Calculating surface distance matrix               ...        done! (  0.0s)
Performing Cholesky decomposition & store         ...        done! (  0.0s)
Overall time for CPCM initialization              ...                 0.1s

----------------------------------------D-I-I-S--------------------------------------------
Iteration    Energy (Eh)           Delta-E    RMSDP     MaxDP     DIISErr   Damp  Time(sec)
-------------------------------------------------------------------------------------------
               ***  Starting incremental Fock matrix formation  ***
    1    -804.9607639063962097     0.00e+00  7.00e-04  4.42e-02  1.49e-01  0.850  34.3
Warning: op=0 Small HOMO/LUMO gap (   0.027) - skipping pre-diagonalization
         Will do a full diagonalization
    2    -805.0344700198737655    -7.37e-02  6.62e-04  3.66e-02  1.01e-01  0.850  39.5
                               ***Turning on AO-DIIS***
    3    -805.0796864792802126    -4.52e-02  4.42e-04  2.03e-02  5.91e-02  0.850  34.5
    4    -805.1076472181083545    -2.80e-02  3.58e-04  1.52e-02  4.92e-02  0.850  34.4
    5    -805.1277380737550402    -2.01e-02  3.00e-04  1.31e-02  4.39e-02  0.850  33.5
    6    -805.1437297832202376    -1.60e-02  2.56e-04  1.16e-02  3.82e-02  0.850  33.6
    7    -805.1570048775062105    -1.33e-02  2.19e-04  1.07e-02  3.16e-02  0.850  34.3
    8    -805.1680675961443967    -1.11e-02  1.84e-04  9.45e-03  2.52e-02  0.850  34.1
    9    -805.1771645954776204    -9.10e-03  1.04e-03  5.40e-02  2.12e-02  0.000  31.7
   10    -805.2250042533765964    -4.78e-02  9.24e-05  4.71e-03  3.60e-03  0.000  32.5
   11    -805.2250209398961260    -1.67e-05  4.85e-05  2.53e-03  6.02e-03  0.000  32.8
                              *** Initializing SOSCF ***
---------------------------------------S-O-S-C-F--------------------------------------
Iteration    Energy (Eh)           Delta-E    RMSDP     MaxDP     MaxGrad    Time(sec)
--------------------------------------------------------------------------------------
   12    -805.2251866693078455    -1.66e-04  2.70e-05  1.58e-03  7.80e-04    36.4
               *** Restarting incremental Fock matrix formation ***
   13    -805.2252138296895509    -2.72e-05  1.62e-05  1.08e-03  8.76e-04    28.8
   14    -805.2252325139619415    -1.87e-05  5.06e-05  2.17e-03  5.37e-04    29.9
   15    -805.2252355477968422    -3.03e-06  2.49e-05  1.47e-03  4.94e-04    29.6
   16    -805.2252473446957310    -1.18e-05  9.18e-06  5.30e-04  1.94e-04    31.1
   17    -805.2252470471318020     2.98e-07  5.02e-06  3.59e-04  2.14e-04    29.0
   18    -805.2252483858461574    -1.34e-06  1.71e-06  1.01e-04  4.30e-05    28.9
   19    -805.2252483511596211     3.47e-08  7.92e-07  3.26e-05  5.97e-05    28.8
   20    -805.2252484181025238    -6.69e-08  6.40e-07  6.02e-05  6.65e-06    28.8
   21    -805.2252484207741645    -2.67e-09  4.17e-07  2.91e-05  8.18e-06    29.0
                 **** Energy Check signals convergence ****

               *****************************************************
               *                     SUCCESS                       *
               *           SCF CONVERGED AFTER  21 CYCLES          *
               *****************************************************


SMD CDS free energy correction energy :                -2.39590     Kcal/mol
Total Energy after SMD CDS correction =              -805.229066533 Eh
             **** ENERGY FILE WAS UPDATED (cs_rporg_169_red_freq_06.en.tmp) ****

----------------
TOTAL SCF ENERGY
----------------

Total Energy       :       -805.22906653337441 Eh          -21911.39685 eV

Components:
Nuclear Repulsion  :        455.02676333631109 Eh           12381.90771 eV
Electronic Energy  :      -1260.17191078667838 Eh          -34291.02101 eV
One Electron Energy:      -2018.91656503385980 Eh          -54937.51270 eV
Two Electron Energy:        758.74465424718130 Eh           20646.49169 eV
CPCM Dielectric    :         -0.08010097040693 Eh              -2.17966 eV
SMD CDS (Gcds)     :         -0.00381811260019 Eh              -0.10390 eV

Virial components:
Potential Energy   :      -1607.44109758545915 Eh          -43740.69600 eV
Kinetic Energy     :        802.21203105208474 Eh           21829.29915 eV
Virial Ratio       :          2.00376089533004

DFT components:
N(Alpha)           :       37.000028729022 electrons
N(Beta)            :       36.000015830191 electrons
N(Total)           :       73.000044559213 electrons
E(X)               :      -74.231784723004 Eh       
E(C)               :       -2.487234200507 Eh       
E(XC)              :      -76.719018923511 Eh       

CPCM Solvation Model Properties:
Surface-charge          :          0.96447734361706
Corrected charge        :          1.00000000000000
Outlying charge corr.   :          0.00008813760866 Eh               0.00240 eV
Free-energy (cav+disp)  :         -0.00381811260019 Eh              -0.10390 eV

---------------
SCF CONVERGENCE
---------------

  Last Energy change         ...    2.6716e-09  Tolerance :   1.0000e-08
  Last MAX-Density change    ...    2.9129e-05  Tolerance :   1.0000e-07
  Last RMS-Density change    ...    4.1727e-07  Tolerance :   5.0000e-09
  Last DIIS Error            ...    7.8014e-04  Tolerance :   5.0000e-07
  Last Orbital Gradient      ...    8.1796e-06  Tolerance :   1.0000e-05
  Last Orbital Rotation      ...    2.3863e-05  Tolerance :   1.0000e-05


----------------------
UHF SPIN CONTAMINATION
----------------------

Warning: in a DFT calculation there is little theoretical justification to 
         calculate <S**2> as in Hartree-Fock theory. We will do it anyways
         but you should keep in mind that the values have only limited relevance

Expectation value of <S**2>     :     0.773552
Ideal value S*(S+1) for S=0.5   :     0.750000
Deviation                       :     0.023552

----------------
ORBITAL ENERGIES
----------------
                 SPIN UP ORBITALS
  NO   OCC          E(Eh)            E(eV) 
   0   1.0000    -101.170341     -2752.9849 
   1   1.0000     -18.923597      -514.9373 
   2   1.0000     -10.109289      -275.0877 
   3   1.0000     -10.031331      -272.9664 
   4   1.0000     -10.021893      -272.7096 
   5   1.0000     -10.021337      -272.6945 
   6   1.0000     -10.021054      -272.6867 
   7   1.0000     -10.020413      -272.6693 
   8   1.0000     -10.015516      -272.5360 
   9   1.0000      -9.323018      -253.6922 
  10   1.0000      -7.066433      -192.2874 
  11   1.0000      -7.060530      -192.1268 
  12   1.0000      -7.059921      -192.1102 
  13   1.0000      -0.982781       -26.7428 
  14   1.0000      -0.805048       -21.9065 
  15   1.0000      -0.744544       -20.2601 
  16   1.0000      -0.705785       -19.2054 
  17   1.0000      -0.697767       -18.9872 
  18   1.0000      -0.596355       -16.2277 
  19   1.0000      -0.551307       -15.0018 
  20   1.0000      -0.503116       -13.6905 
  21   1.0000      -0.453662       -12.3448 
  22   1.0000      -0.414281       -11.2732 
  23   1.0000      -0.405378       -11.0309 
  24   1.0000      -0.381077       -10.3696 
  25   1.0000      -0.374928       -10.2023 
  26   1.0000      -0.371142       -10.0993 
  27   1.0000      -0.359098        -9.7716 
  28   1.0000      -0.323867        -8.8129 
  29   1.0000      -0.311252        -8.4696 
  30   1.0000      -0.286053        -7.7839 
  31   1.0000      -0.259185        -7.0528 
  32   1.0000      -0.257034        -6.9942 
  33   1.0000      -0.231507        -6.2996 
  34   1.0000      -0.230167        -6.2632 
  35   1.0000      -0.225203        -6.1281 
  36   1.0000      -0.095997        -2.6122 
  37   0.0000      -0.022093        -0.6012 
  38   0.0000      -0.004369        -0.1189 
  39   0.0000       0.012360         0.3363 
  40   0.0000       0.023050         0.6272 
  41   0.0000       0.025019         0.6808 
  42   0.0000       0.025679         0.6988 
  43   0.0000       0.044464         1.2099 
  44   0.0000       0.044777         1.2184 
  45   0.0000       0.045297         1.2326 
  46   0.0000       0.052475         1.4279 
  47   0.0000       0.069133         1.8812 

                 SPIN DOWN ORBITALS
  NO   OCC          E(Eh)            E(eV) 
   0   1.0000    -101.170319     -2752.9843 
   1   1.0000     -18.917638      -514.7751 
   2   1.0000     -10.103579      -274.9324 
   3   1.0000     -10.031039      -272.9585 
   4   1.0000     -10.023509      -272.7535 
   5   1.0000     -10.022599      -272.7288 
   6   1.0000     -10.017981      -272.6031 
   7   1.0000     -10.017196      -272.5818 
   8   1.0000     -10.010383      -272.3964 
   9   1.0000      -9.323006      -253.6919 
  10   1.0000      -7.066607      -192.2921 
  11   1.0000      -7.060276      -192.1199 
  12   1.0000      -7.059924      -192.1103 
  13   1.0000      -0.973358       -26.4864 
  14   1.0000      -0.800692       -21.7879 
  15   1.0000      -0.741731       -20.1835 
  16   1.0000      -0.700578       -19.0637 
  17   1.0000      -0.694313       -18.8932 
  18   1.0000      -0.583575       -15.8799 
  19   1.0000      -0.550074       -14.9683 
  20   1.0000      -0.499137       -13.5822 
  21   1.0000      -0.448518       -12.2048 
  22   1.0000      -0.412014       -11.2115 
  23   1.0000      -0.400913       -10.9094 
  24   1.0000      -0.379486       -10.3263 
  25   1.0000      -0.370350       -10.0777 
  26   1.0000      -0.356260        -9.6943 
  27   1.0000      -0.350757        -9.5446 
  28   1.0000      -0.309089        -8.4107 
  29   1.0000      -0.308960        -8.4072 
  30   1.0000      -0.285180        -7.7601 
  31   1.0000      -0.256326        -6.9750 
  32   1.0000      -0.254270        -6.9190 
  33   1.0000      -0.222177        -6.0458 
  34   1.0000      -0.222017        -6.0414 
  35   1.0000      -0.212758        -5.7894 
  36   0.0000      -0.055625        -1.5136 
  37   0.0000      -0.016469        -0.4481 
  38   0.0000       0.001736         0.0472 
  39   0.0000       0.016200         0.4408 
  40   0.0000       0.026585         0.7234 
  41   0.0000       0.028054         0.7634 
  42   0.0000       0.046114         1.2548 
  43   0.0000       0.046128         1.2552 
  44   0.0000       0.047212         1.2847 
  45   0.0000       0.049491         1.3467 
  46   0.0000       0.053914         1.4671 
*Only the first 10 virtual orbitals were printed.

                    ********************************
                    * MULLIKEN POPULATION ANALYSIS *
                    ********************************

--------------------------------------------
MULLIKEN ATOMIC CHARGES AND SPIN POPULATIONS
--------------------------------------------
   0 C :   -0.920591    0.283179
   1 C :   -0.408973   -0.182901
   2 C :   -0.385704    0.371539
   3 C :   -0.619554   -0.166788
   4 C :   -0.985337    0.285742
   5 C :    1.724804   -0.003321
   6 C :    0.388826    0.274297
   7 O :   -0.835388    0.202999
   8 Cl:   -0.491880    0.007197
   9 H :    0.175171   -0.016714
  10 H :    0.429174   -0.014466
  11 H :    0.493998   -0.014213
  12 H :    0.366976   -0.006365
  13 H :    0.068478   -0.020184
Sum of atomic charges         :   -1.0000000
Sum of atomic spin populations:    1.0000000

-----------------------------------------------------
MULLIKEN REDUCED ORBITAL CHARGES AND SPIN POPULATIONS
-----------------------------------------------------
CHARGE
  0 C s       :     4.173582  s :     4.173582
      pz      :     1.007149  p :     2.656312
      px      :     0.726002
      py      :     0.923161
      dz2     :    -0.020938  d :     0.110311
      dxz     :     0.020761
      dyz     :     0.008533
      dx2y2   :     0.015862
      dxy     :     0.086094
      f0      :     0.000471  f :    -0.019614
      f+1     :    -0.001736
      f-1     :    -0.001128
      f+2     :    -0.000830
      f-2     :    -0.000456
      f+3     :    -0.000333
      f-3     :    -0.015601

  1 C s       :     3.448971  s :     3.448971
      pz      :     0.973261  p :     2.865034
      px      :     0.980084
      py      :     0.911689
      dz2     :    -0.003258  d :     0.103301
      dxz     :     0.031635
      dyz     :     0.024830
      dx2y2   :    -0.021757
      dxy     :     0.071851
      f0      :     0.000324  f :    -0.008333
      f+1     :     0.000716
      f-1     :    -0.000338
      f+2     :    -0.000437
      f-2     :     0.000589
      f+3     :    -0.001839
      f-3     :    -0.007348

  2 C s       :     3.743056  s :     3.743056
      pz      :     1.042842  p :     2.760051
      px      :     0.933930
      py      :     0.783278
      dz2     :    -0.014867  d :    -0.107572
      dxz     :     0.004067
      dyz     :     0.030244
      dx2y2   :    -0.103407
      dxy     :    -0.023609
      f0      :     0.000699  f :    -0.009830
      f+1     :     0.000441
      f-1     :     0.000230
      f+2     :     0.000517
      f-2     :    -0.000147
      f+3     :    -0.005448
      f-3     :    -0.006123

  3 C s       :     3.622190  s :     3.622190
      pz      :     0.977547  p :     2.908318
      px      :     1.069935
      py      :     0.860836
      dz2     :     0.001559  d :     0.097348
      dxz     :     0.031568
      dyz     :     0.017281
      dx2y2   :    -0.032837
      dxy     :     0.079778
      f0      :     0.000342  f :    -0.008301
      f+1     :    -0.000131
      f-1     :    -0.000277
      f+2     :     0.000952
      f-2     :    -0.000505
      f+3     :    -0.003663
      f-3     :    -0.005019

  4 C s       :     4.085040  s :     4.085040
      pz      :     1.008523  p :     2.845394
      px      :     0.865972
      py      :     0.970899
      dz2     :    -0.020654  d :     0.078116
      dxz     :     0.011382
      dyz     :     0.008507
      dx2y2   :    -0.080699
      dxy     :     0.159581
      f0      :     0.000914  f :    -0.023213
      f+1     :     0.000802
      f-1     :    -0.000781
      f+2     :    -0.000778
      f-2     :     0.000413
      f+3     :    -0.015326
      f-3     :    -0.008458

  5 C s       :     2.650491  s :     2.650491
      pz      :     1.044644  p :     1.647237
      px      :     0.195363
      py      :     0.407230
      dz2     :    -0.025169  d :     0.075744
      dxz     :     0.055996
      dyz     :    -0.002662
      dx2y2   :    -0.042021
      dxy     :     0.089600
      f0      :     0.000297  f :    -0.098276
      f+1     :    -0.005849
      f-1     :    -0.001463
      f+2     :     0.000350
      f-2     :    -0.004544
      f+3     :    -0.023007
      f-3     :    -0.064061

  6 C s       :     3.440385  s :     3.440385
      pz      :     0.900390  p :     2.028306
      px      :     0.589457
      py      :     0.538460
      dz2     :     0.006375  d :     0.141621
      dxz     :     0.041071
      dyz     :     0.040196
      dx2y2   :     0.034189
      dxy     :     0.019789
      f0      :     0.002991  f :     0.000861
      f+1     :     0.000101
      f-1     :     0.000599
      f+2     :     0.002973
      f-2     :     0.004908
      f+3     :    -0.003802
      f-3     :    -0.006908

  7 O s       :     4.047427  s :     4.047427
      pz      :     1.592100  p :     4.727515
      px      :     1.732236
      py      :     1.403180
      dz2     :     0.002279  d :     0.055662
      dxz     :     0.005357
      dyz     :     0.019416
      dx2y2   :     0.020342
      dxy     :     0.008267
      f0      :     0.000729  f :     0.004784
      f+1     :     0.000173
      f-1     :     0.000168
      f+2     :     0.000432
      f-2     :     0.000871
      f+3     :     0.000177
      f-3     :     0.002234

  8 Cls       :     5.988248  s :     5.988248
      pz      :     3.959188  p :    11.457974
      px      :     3.764137
      py      :     3.734649
      dz2     :     0.006901  d :     0.041587
      dxz     :     0.007404
      dyz     :     0.007361
      dx2y2   :     0.003763
      dxy     :     0.016159
      f0      :     0.000707  f :     0.004071
      f+1     :     0.000535
      f-1     :     0.000134
      f+2     :     0.000259
      f-2     :     0.001023
      f+3     :     0.000310
      f-3     :     0.001103

  9 H s       :     0.794687  s :     0.794687
      pz      :     0.018955  p :     0.021660
      px      :    -0.011965
      py      :     0.014670
      dz2     :     0.000099  d :     0.008482
      dxz     :     0.001469
      dyz     :     0.003215
      dx2y2   :     0.002304
      dxy     :     0.001395

 10 H s       :     0.552991  s :     0.552991
      pz      :     0.020755  p :     0.009499
      px      :    -0.001496
      py      :    -0.009760
      dz2     :    -0.000209  d :     0.008336
      dxz     :    -0.000126
      dyz     :     0.004969
      dx2y2   :     0.000932
      dxy     :     0.002770

 11 H s       :     0.517969  s :     0.517969
      pz      :     0.018162  p :    -0.020295
      px      :    -0.026981
      py      :    -0.011476
      dz2     :    -0.000185  d :     0.008329
      dxz     :     0.005483
      dyz     :    -0.000115
      dx2y2   :     0.001709
      dxy     :     0.001436

 12 H s       :     0.619694  s :     0.619694
      pz      :     0.019735  p :     0.005573
      px      :    -0.012373
      py      :    -0.001789
      dz2     :    -0.000526  d :     0.007756
      dxz     :     0.001937
      dyz     :     0.002806
      dx2y2   :     0.002053
      dxy     :     0.001487

 13 H s       :     0.936145  s :     0.936145
      pz      :     0.016452  p :    -0.010475
      px      :    -0.020442
      py      :    -0.006485
      dz2     :    -0.000505  d :     0.005852
      dxz     :    -0.000174
      dyz     :     0.004819
      dx2y2   :     0.002707
      dxy     :    -0.000996


SPIN
  0 C s       :     0.044778  s :     0.044778
      pz      :     0.210418  p :     0.239442
      px      :     0.026303
      py      :     0.002720
      dz2     :    -0.000220  d :     0.000918
      dxz     :     0.000448
      dyz     :     0.004373
      dx2y2   :    -0.000453
      dxy     :    -0.003230
      f0      :    -0.000056  f :    -0.001959
      f+1     :    -0.000195
      f-1     :    -0.000459
      f+2     :    -0.000665
      f-2     :    -0.000461
      f+3     :    -0.000404
      f-3     :     0.000282

  1 C s       :    -0.045234  s :    -0.045234
      pz      :    -0.106236  p :    -0.153108
      px      :    -0.026757
      py      :    -0.020115
      dz2     :     0.000458  d :     0.015576
      dxz     :     0.007574
      dyz     :     0.006752
      dx2y2   :    -0.000600
      dxy     :     0.001392
      f0      :     0.000325  f :    -0.000135
      f+1     :     0.000249
      f-1     :     0.000047
      f+2     :    -0.000613
      f-2     :     0.000202
      f+3     :     0.000120
      f-3     :    -0.000466

  2 C s       :     0.049893  s :     0.049893
      pz      :     0.284923  p :     0.308441
      px      :     0.002939
      py      :     0.020579
      dz2     :    -0.001680  d :     0.014643
      dxz     :     0.003358
      dyz     :     0.001249
      dx2y2   :     0.013390
      dxy     :    -0.001673
      f0      :    -0.000086  f :    -0.001438
      f+1     :    -0.000477
      f-1     :    -0.000397
      f+2     :    -0.000342
      f-2     :    -0.000063
      f+3     :     0.000051
      f-3     :    -0.000123

  3 C s       :    -0.046588  s :    -0.046588
      pz      :    -0.098537  p :    -0.140029
      px      :    -0.034811
      py      :    -0.006682
      dz2     :     0.000175  d :     0.019686
      dxz     :     0.011643
      dyz     :     0.000442
      dx2y2   :     0.005466
      dxy     :     0.001960
      f0      :     0.000300  f :     0.000144
      f+1     :     0.000319
      f-1     :    -0.000019
      f+2     :     0.000403
      f-2     :    -0.000706
      f+3     :    -0.000157
      f-3     :     0.000004

  4 C s       :     0.042229  s :     0.042229
      pz      :     0.190965  p :     0.236787
      px      :     0.030408
      py      :     0.015414
      dz2     :     0.000599  d :     0.007628
      dxz     :     0.000947
      dyz     :     0.004886
      dx2y2   :    -0.001885
      dxy     :     0.003080
      f0      :     0.000107  f :    -0.000902
      f+1     :    -0.000145
      f-1     :    -0.000432
      f+2     :    -0.000876
      f-2     :    -0.000012
      f+3     :     0.000818
      f-3     :    -0.000360

  5 C s       :    -0.008998  s :    -0.008998
      pz      :     0.004947  p :    -0.024448
      px      :    -0.012624
      py      :    -0.016771
      dz2     :    -0.001985  d :     0.032902
      dxz     :     0.025495
      dyz     :    -0.008398
      dx2y2   :     0.002689
      dxy     :     0.015101
      f0      :     0.000253  f :    -0.002778
      f+1     :    -0.000047
      f-1     :    -0.000192
      f+2     :    -0.000077
      f-2     :    -0.001915
      f+3     :     0.000478
      f-3     :    -0.001279

  6 C s       :     0.019997  s :     0.019997
      pz      :     0.253453  p :     0.245401
      px      :     0.009812
      py      :    -0.017864
      dz2     :    -0.001534  d :     0.013637
      dxz     :     0.003890
      dyz     :     0.012014
      dx2y2   :     0.000359
      dxy     :    -0.001093
      f0      :    -0.000096  f :    -0.004739
      f+1     :    -0.000256
      f-1     :    -0.000397
      f+2     :    -0.000557
      f-2     :    -0.000553
      f+3     :    -0.001248
      f-3     :    -0.001631

  7 O s       :     0.015129  s :     0.015129
      pz      :     0.168785  p :     0.181059
      px      :     0.009227
      py      :     0.003047
      dz2     :     0.000124  d :     0.006786
      dxz     :     0.001182
      dyz     :     0.004713
      dx2y2   :     0.000966
      dxy     :    -0.000199
      f0      :    -0.000003  f :     0.000025
      f+1     :    -0.000008
      f-1     :    -0.000035
      f+2     :    -0.000014
      f-2     :     0.000089
      f+3     :    -0.000014
      f-3     :     0.000011

  8 Cls       :     0.004647  s :     0.004647
      pz      :     0.011283  p :    -0.001796
      px      :    -0.004244
      py      :    -0.008835
      dz2     :    -0.000143  d :     0.004157
      dxz     :     0.003036
      dyz     :     0.002298
      dx2y2   :    -0.000717
      dxy     :    -0.000317
      f0      :     0.000082  f :     0.000189
      f+1     :     0.000004
      f-1     :    -0.000020
      f+2     :    -0.000024
      f-2     :     0.000310
      f+3     :    -0.000120
      f-3     :    -0.000043

  9 H s       :    -0.015844  s :    -0.015844
      pz      :     0.001793  p :    -0.000543
      px      :     0.001326
      py      :    -0.003662
      dz2     :     0.000153  d :    -0.000327
      dxz     :    -0.000037
      dyz     :    -0.000041
      dx2y2   :    -0.000228
      dxy     :    -0.000175

 10 H s       :    -0.010224  s :    -0.010224
      pz      :    -0.003743  p :    -0.003271
      px      :    -0.001663
      py      :     0.002136
      dz2     :    -0.000101  d :    -0.000972
      dxz     :    -0.000373
      dyz     :    -0.000418
      dx2y2   :     0.000029
      dxy     :    -0.000108

 11 H s       :    -0.018909  s :    -0.018909
      pz      :     0.005008  p :     0.004097
      px      :     0.000235
      py      :    -0.001145
      dz2     :     0.000223  d :     0.000598
      dxz     :     0.000736
      dyz     :     0.000114
      dx2y2   :    -0.000132
      dxy     :    -0.000343

 12 H s       :    -0.001692  s :    -0.001692
      pz      :    -0.004114  p :    -0.003636
      px      :    -0.000331
      py      :     0.000809
      dz2     :    -0.000110  d :    -0.001037
      dxz     :    -0.000409
      dyz     :    -0.000444
      dx2y2   :    -0.000119
      dxy     :     0.000045

 13 H s       :    -0.015872  s :    -0.015872
      pz      :     0.001161  p :    -0.003957
      px      :    -0.001482
      py      :    -0.003636
      dz2     :     0.000149  d :    -0.000355
      dxz     :    -0.000150
      dyz     :     0.000061
      dx2y2   :    -0.000082
      dxy     :    -0.000333



                     *******************************
                     * LOEWDIN POPULATION ANALYSIS *
                     *******************************

-------------------------------------------
LOEWDIN ATOMIC CHARGES AND SPIN POPULATIONS
-------------------------------------------
   0 C :    0.141929    0.102149
   1 C :    0.142395    0.025003
   2 C :    0.153723    0.138019
   3 C :    0.139948    0.026136
   4 C :    0.104250    0.098736
   5 C :   -0.332333    0.118001
   6 C :   -1.095814    0.212685
   7 O :    0.293556    0.186008
   8 Cl:    0.537855    0.025400
   9 H :   -0.279705    0.021587
  10 H :   -0.194773   -0.007068
  11 H :   -0.207352    0.037687
  12 H :   -0.193629   -0.007700
  13 H :   -0.210048    0.023358

----------------------------------------------------
LOEWDIN REDUCED ORBITAL CHARGES AND SPIN POPULATIONS
----------------------------------------------------
CHARGE
  0 C s       :     2.486076  s :     2.486076
      pz      :     0.625727  p :     2.296572
      px      :     0.852793
      py      :     0.818052
      dz2     :     0.070795  d :     0.731614
      dxz     :     0.138358
      dyz     :     0.051045
      dx2y2   :     0.254382
      dxy     :     0.217034
      f0      :     0.022015  f :     0.343810
      f+1     :     0.031307
      f-1     :     0.019952
      f+2     :     0.027118
      f-2     :     0.047231
      f+3     :     0.090117
      f-3     :     0.106070

  1 C s       :     2.493977  s :     2.493977
      pz      :     0.612497  p :     2.300536
      px      :     0.849025
      py      :     0.839014
      dz2     :     0.067994  d :     0.730320
      dxz     :     0.098139
      dyz     :     0.095293
      dx2y2   :     0.174634
      dxy     :     0.294260
      f0      :     0.018374  f :     0.332772
      f+1     :     0.025756
      f-1     :     0.024419
      f+2     :     0.058961
      f-2     :     0.012574
      f+3     :     0.085538
      f-3     :     0.107150

  2 C s       :     2.494917  s :     2.494917
      pz      :     0.649232  p :     2.323834
      px      :     0.831504
      py      :     0.843099
      dz2     :     0.066970  d :     0.699761
      dxz     :     0.053654
      dyz     :     0.117949
      dx2y2   :     0.268129
      dxy     :     0.193059
      f0      :     0.021572  f :     0.327766
      f+1     :     0.020074
      f-1     :     0.029325
      f+2     :     0.017987
      f-2     :     0.049867
      f+3     :     0.083751
      f-3     :     0.105190

  3 C s       :     2.493749  s :     2.493749
      pz      :     0.614403  p :     2.302095
      px      :     0.859347
      py      :     0.828346
      dz2     :     0.068174  d :     0.730661
      dxz     :     0.142312
      dyz     :     0.050319
      dx2y2   :     0.253663
      dxy     :     0.216193
      f0      :     0.018419  f :     0.333547
      f+1     :     0.030043
      f-1     :     0.020314
      f+2     :     0.027483
      f-2     :     0.043950
      f+3     :     0.085985
      f-3     :     0.107352

  4 C s       :     2.489756  s :     2.489756
      pz      :     0.624065  p :     2.313591
      px      :     0.866009
      py      :     0.823517
      dz2     :     0.073440  d :     0.750061
      dxz     :     0.104063
      dyz     :     0.091498
      dx2y2   :     0.199191
      dxy     :     0.281869
      f0      :     0.021867  f :     0.342343
      f+1     :     0.027169
      f-1     :     0.023714
      f+2     :     0.054744
      f-2     :     0.019407
      f+3     :     0.088428
      f-3     :     0.107013

  5 C s       :     2.485538  s :     2.485538
      pz      :     0.677408  p :     2.362921
      px      :     0.843256
      py      :     0.842258
      dz2     :     0.092997  d :     0.983075
      dxz     :     0.168965
      dyz     :     0.124041
      dx2y2   :     0.313510
      dxy     :     0.283561
      f0      :     0.031700  f :     0.500799
      f+1     :     0.036220
      f-1     :     0.033333
      f+2     :     0.048272
      f-2     :     0.070249
      f+3     :     0.126225
      f-3     :     0.154799

  6 C s       :     2.578132  s :     2.578132
      pz      :     0.713958  p :     2.400126
      px      :     0.858887
      py      :     0.827281
      dz2     :     0.124562  d :     1.422738
      dxz     :     0.198854
      dyz     :     0.235043
      dx2y2   :     0.372352
      dxy     :     0.491927
      f0      :     0.050903  f :     0.694818
      f+1     :     0.037471
      f-1     :     0.049458
      f+2     :     0.055460
      f-2     :     0.091500
      f+3     :     0.178112
      f-3     :     0.231913

  7 O s       :     3.239240  s :     3.239240
      pz      :     1.320809  p :     4.136338
      px      :     1.401301
      py      :     1.414228
      dz2     :     0.027125  d :     0.251645
      dxz     :     0.019247
      dyz     :     0.060795
      dx2y2   :     0.065898
      dxy     :     0.078579
      f0      :     0.009265  f :     0.079222
      f+1     :     0.003270
      f-1     :     0.008583
      f+2     :     0.006417
      f-2     :     0.011704
      f+3     :     0.019020
      f-3     :     0.020962

  8 Cls       :     5.476199  s :     5.476199
      pz      :     3.711635  p :    10.729611
      px      :     3.514007
      py      :     3.503969
      dz2     :     0.029948  d :     0.204226
      dxz     :     0.024083
      dyz     :     0.029077
      dx2y2   :     0.057801
      dxy     :     0.063317
      f0      :     0.004770  f :     0.052108
      f+1     :     0.004466
      f-1     :     0.006072
      f+2     :     0.001597
      f-2     :     0.009073
      f+3     :     0.013148
      f-3     :     0.012982

  9 H s       :     0.664392  s :     0.664392
      pz      :     0.093730  p :     0.362914
      px      :     0.151926
      py      :     0.117259
      dz2     :     0.030224  d :     0.252399
      dxz     :     0.035636
      dyz     :     0.033814
      dx2y2   :     0.098329
      dxy     :     0.054396

 10 H s       :     0.666974  s :     0.666974
      pz      :     0.087661  p :     0.309471
      px      :     0.085840
      py      :     0.135970
      dz2     :     0.022908  d :     0.218329
      dxz     :     0.011454
      dyz     :     0.055262
      dx2y2   :     0.057554
      dxy     :     0.071151

 11 H s       :     0.673940  s :     0.673940
      pz      :     0.099338  p :     0.317970
      px      :     0.137387
      py      :     0.081245
      dz2     :     0.022461  d :     0.215442
      dxz     :     0.060988
      dyz     :     0.006110
      dx2y2   :     0.051112
      dxy     :     0.074772

 12 H s       :     0.666783  s :     0.666783
      pz      :     0.086923  p :     0.308794
      px      :     0.107397
      py      :     0.114474
      dz2     :     0.022842  d :     0.218052
      dxz     :     0.032290
      dyz     :     0.034298
      dx2y2   :     0.082999
      dxy     :     0.045622

 13 H s       :     0.658370  s :     0.658370
      pz      :     0.091042  p :     0.325895
      px      :     0.099668
      py      :     0.135184
      dz2     :     0.025520  d :     0.225783
      dxz     :     0.012013
      dyz     :     0.054495
      dx2y2   :     0.061922
      dxy     :     0.071833


SPIN
  0 C s       :     0.003865  s :     0.003865
      pz      :     0.096328  p :     0.100097
      px      :     0.001932
      py      :     0.001836
      dz2     :    -0.000932  d :     0.001036
      dxz     :    -0.001433
      dyz     :     0.005553
      dx2y2   :    -0.001223
      dxy     :    -0.000929
      f0      :     0.000216  f :    -0.002849
      f+1     :    -0.000081
      f-1     :    -0.000358
      f+2     :    -0.001385
      f-2     :     0.000012
      f+3     :    -0.000516
      f-3     :    -0.000737

  1 C s       :    -0.002403  s :    -0.002403
      pz      :    -0.042411  p :    -0.048507
      px      :    -0.003080
      py      :    -0.003015
      dz2     :     0.000425  d :     0.057611
      dxz     :     0.026698
      dyz     :     0.027524
      dx2y2   :     0.001456
      dxy     :     0.001507
      f0      :     0.002714  f :     0.018303
      f+1     :    -0.000029
      f-1     :    -0.000090
      f+2     :     0.011779
      f-2     :     0.002555
      f+3     :     0.000701
      f-3     :     0.000672

  2 C s       :     0.005719  s :     0.005719
      pz      :     0.139577  p :     0.146335
      px      :     0.003013
      py      :     0.003744
      dz2     :    -0.001448  d :    -0.006319
      dxz     :     0.009463
      dyz     :    -0.011826
      dx2y2   :    -0.001377
      dxy     :    -0.001131
      f0      :    -0.000091  f :    -0.007716
      f+1     :    -0.000479
      f-1     :    -0.000091
      f+2     :    -0.002066
      f-2     :    -0.003746
      f+3     :    -0.000619
      f-3     :    -0.000624

  3 C s       :    -0.002287  s :    -0.002287
      pz      :    -0.039357  p :    -0.045279
      px      :    -0.003709
      py      :    -0.002213
      dz2     :     0.000390  d :     0.055987
      dxz     :     0.045110
      dyz     :     0.007623
      dx2y2   :     0.001382
      dxy     :     0.001481
      f0      :     0.002652  f :     0.017716
      f+1     :    -0.000149
      f-1     :     0.000023
      f+2     :     0.003760
      f-2     :     0.010090
      f+3     :     0.000704
      f-3     :     0.000634

  4 C s       :     0.003636  s :     0.003636
      pz      :     0.089828  p :     0.093454
      px      :     0.001968
      py      :     0.001657
      dz2     :    -0.000851  d :     0.003999
      dxz     :    -0.002684
      dyz     :     0.009660
      dx2y2   :    -0.000907
      dxy     :    -0.001219
      f0      :     0.000364  f :    -0.002354
      f+1     :    -0.000125
      f-1     :    -0.000308
      f+2     :    -0.004024
      f-2     :     0.002983
      f+3     :    -0.000562
      f-3     :    -0.000683

  5 C s       :    -0.000664  s :    -0.000664
      pz      :     0.021704  p :     0.013682
      px      :    -0.005870
      py      :    -0.002152
      dz2     :    -0.000048  d :     0.072807
      dxz     :     0.059842
      dyz     :     0.009419
      dx2y2   :     0.002255
      dxy     :     0.001339
      f0      :     0.003688  f :     0.032177
      f+1     :    -0.000239
      f-1     :    -0.000112
      f+2     :     0.020818
      f-2     :     0.006190
      f+3     :     0.001177
      f-3     :     0.000655

  6 C s       :     0.006875  s :     0.006875
      pz      :     0.151354  p :     0.153240
      px      :     0.000880
      py      :     0.001006
      dz2     :    -0.000571  d :     0.039452
      dxz     :     0.014587
      dyz     :     0.026655
      dx2y2   :    -0.000637
      dxy     :    -0.000582
      f0      :     0.004764  f :     0.013119
      f+1     :    -0.000275
      f-1     :    -0.000336
      f+2     :     0.007264
      f-2     :     0.001649
      f+3     :     0.000162
      f-3     :    -0.000109

  7 O s       :     0.002867  s :     0.002867
      pz      :     0.128942  p :     0.131229
      px      :     0.003316
      py      :    -0.001029
      dz2     :     0.000214  d :     0.040642
      dxz     :     0.008514
      dyz     :     0.030492
      dx2y2   :     0.000776
      dxy     :     0.000644
      f0      :     0.003870  f :     0.011270
      f+1     :    -0.000021
      f-1     :    -0.000052
      f+2     :     0.002271
      f-2     :     0.004868
      f+3     :     0.000204
      f-3     :     0.000130

  8 Cls       :     0.000289  s :     0.000289
      pz      :     0.012657  p :     0.003165
      px      :    -0.004167
      py      :    -0.005325
      dz2     :    -0.000093  d :     0.016725
      dxz     :     0.009366
      dyz     :     0.007215
      dx2y2   :    -0.000330
      dxy     :     0.000568
      f0      :     0.001281  f :     0.005221
      f+1     :    -0.000001
      f-1     :    -0.000003
      f+2     :     0.000001
      f-2     :     0.003675
      f+3     :     0.000168
      f-3     :     0.000099

  9 H s       :    -0.003203  s :    -0.003203
      pz      :     0.014737  p :     0.015931
      px      :     0.000701
      py      :     0.000493
      dz2     :    -0.000018  d :     0.008859
      dxz     :     0.006007
      dyz     :     0.002325
      dx2y2   :     0.000118
      dxy     :     0.000427

 10 H s       :     0.001465  s :     0.001465
      pz      :    -0.006025  p :    -0.006963
      px      :    -0.000323
      py      :    -0.000616
      dz2     :     0.000005  d :    -0.001570
      dxz     :     0.003066
      dyz     :    -0.004034
      dx2y2   :    -0.000323
      dxy     :    -0.000284

 11 H s       :    -0.005112  s :    -0.005112
      pz      :     0.026364  p :     0.028295
      px      :     0.001765
      py      :     0.000165
      dz2     :     0.000020  d :     0.014504
      dxz     :     0.013227
      dyz     :     0.000250
      dx2y2   :     0.000607
      dxy     :     0.000399

 12 H s       :     0.001572  s :     0.001572
      pz      :    -0.006509  p :    -0.007474
      px      :    -0.000374
      py      :    -0.000591
      dz2     :     0.000005  d :    -0.001799
      dxz     :     0.001020
      dyz     :    -0.002195
      dx2y2   :    -0.000375
      dxy     :    -0.000253

 13 H s       :    -0.003448  s :    -0.003448
      pz      :     0.016824  p :     0.017909
      px      :     0.000049
      py      :     0.001035
      dz2     :    -0.000027  d :     0.008897
      dxz     :     0.001947
      dyz     :     0.006443
      dx2y2   :     0.000244
      dxy     :     0.000292



                      *****************************
                      * MAYER POPULATION ANALYSIS *
                      *****************************

  NA   - Mulliken gross atomic population
  ZA   - Total nuclear charge
  QA   - Mulliken gross atomic charge
  VA   - Mayer's total valence
  BVA  - Mayer's bonded valence
  FA   - Mayer's free valence

  ATOM       NA         ZA         QA         VA         BVA        FA
  0 C      6.9206     6.0000    -0.9206     2.4286     2.3805     0.0481
  1 C      6.4090     6.0000    -0.4090     2.7122     2.6969     0.0152
  2 C      6.3857     6.0000    -0.3857     2.5933     2.5102     0.0830
  3 C      6.6196     6.0000    -0.6196     2.7990     2.7850     0.0140
  4 C      6.9853     6.0000    -0.9853     2.5817     2.5409     0.0408
  5 C      4.2752     6.0000     1.7248     0.7844     0.7716     0.0128
  6 C      5.6112     6.0000     0.3888     3.0462     2.9565     0.0898
  7 O      8.8354     8.0000    -0.8354     1.3726     1.3400     0.0326
  8 Cl    17.4919    17.0000    -0.4919     0.7882     0.7870     0.0012
  9 H      0.8248     1.0000     0.1752     1.0259     1.0255     0.0003
 10 H      0.5708     1.0000     0.4292     0.7268     0.7269    -0.0000
 11 H      0.5060     1.0000     0.4940     0.5868     0.5864     0.0004
 12 H      0.6330     1.0000     0.3670     0.7529     0.7530    -0.0001
 13 H      0.9315     1.0000     0.0685     1.1000     1.0996     0.0004

  Mayer bond orders larger than 0.100000
B(  0-C ,  1-C ) :   1.2054 B(  0-C ,  4-C ) :  -0.1945 B(  0-C ,  6-C ) :   0.2420 
B(  0-C , 12-H ) :  -0.1255 B(  0-C , 13-H ) :   1.0378 B(  1-C ,  2-C ) :   0.9247 
B(  1-C ,  4-C ) :  -0.1074 B(  1-C ,  5-C ) :   0.1100 B(  1-C , 12-H ) :   0.7848 
B(  2-C ,  3-C ) :   0.9528 B(  2-C ,  5-C ) :  -0.1754 B(  2-C ,  6-C ) :   0.1419 
B(  2-C , 11-H ) :   0.6028 B(  3-C ,  4-C ) :   1.2189 B(  3-C , 10-H ) :   0.6959 
B(  4-C ,  5-C ) :  -0.1409 B(  4-C ,  6-C ) :   0.3500 B(  4-C ,  9-H ) :   1.3087 
B(  4-C , 10-H ) :  -0.1403 B(  4-C , 13-H ) :   0.1127 B(  5-C ,  6-C ) :   0.6765 
B(  5-C ,  7-O ) :   0.2281 B(  5-C , 13-H ) :  -0.1172 B(  6-C ,  7-O ) :   0.8072 
B(  6-C ,  8-Cl) :   0.6819 B(  7-O ,  8-Cl) :   0.1082 B(  7-O , 13-H ) :   0.1576 
B(  8-Cl,  9-H ) :  -0.1225 

-------
TIMINGS
-------

Total SCF time: 0 days 0 hours 11 min 44 sec 

Total time                  ....     704.157 sec
Sum of individual times     ....     679.957 sec  ( 96.6%)

SCF preparation             ....       5.903 sec  (  0.8%)
Fock matrix formation       ....     353.518 sec  ( 50.2%)
  Startup                   ....      76.025 sec  ( 21.5% of F)
  Split-RI-J                ....      71.550 sec  ( 20.2% of F)
  XC integration            ....      81.903 sec  ( 23.2% of F)
[...]
     32      -0.000092   0.000117  -0.000289  -0.000189  -0.000172   0.000060
     33      -0.038051  -0.138517  -0.044876  -0.118945   0.137029   0.143475
     34      -0.161951  -0.663804  -0.278780  -0.078658   0.675840  -0.035414
     35      -0.000303  -0.001502  -0.000228  -0.000214   0.001193   0.000123
     36       0.141839   0.269011   0.495753  -0.336752   0.044762   0.240063
     37      -0.117757  -0.249954  -0.450324   0.209781   0.180084  -0.345083
     38      -0.000130  -0.000175  -0.001214   0.000491   0.000112  -0.000785
     39       0.515654   0.290141   0.187670  -0.493167   0.280983  -0.258960
     40       0.217665   0.081420  -0.078507  -0.133956   0.102302  -0.204297
     41      -0.000948  -0.000594  -0.000095   0.000655  -0.000446   0.000531
                 36         37         38         39         40         41    
      0      -0.090105  -0.003875   0.002256   0.022328  -0.013773   0.001140
      1       0.010287   0.017659  -0.011037  -0.069508   0.037364  -0.004705
      2      -0.000010   0.000007  -0.000002  -0.000022   0.000010  -0.000001
      3       0.054624  -0.045741   0.028101  -0.010082   0.019730  -0.003119
      4      -0.045601  -0.050789   0.030291  -0.006335   0.023155  -0.003223
      5      -0.000022  -0.000018   0.000014  -0.000004   0.000009  -0.000000
      6      -0.032130   0.024377   0.007942   0.042049   0.067606  -0.012724
      7       0.011472  -0.004833  -0.003905  -0.007500  -0.016188   0.001149
      8      -0.000003  -0.000002  -0.000001  -0.000001  -0.000002  -0.000000
      9       0.058645  -0.010980  -0.022383   0.002204   0.002659  -0.007674
     10       0.003341   0.035907   0.068955  -0.012019  -0.016030   0.018047
     11       0.000027   0.000015   0.000030  -0.000005  -0.000005   0.000007
     12      -0.080280  -0.003146  -0.005602   0.001473   0.009786   0.055735
     13       0.076250  -0.004999  -0.009307   0.003624   0.012250   0.062036
     14       0.000021  -0.000004  -0.000009   0.000002   0.000010   0.000054
     15       0.315300  -0.000199  -0.000124   0.001777  -0.000617   0.001693
     16      -0.155855   0.000195  -0.000897   0.000676  -0.000685  -0.001701
     17       0.000001   0.000001   0.000002   0.000001  -0.000001   0.000002
     18      -0.528110   0.000073   0.000085   0.000390  -0.000264   0.000348
     19       0.586045  -0.000059  -0.000174  -0.000735   0.000324   0.000660
     20       0.000035  -0.000000   0.000001  -0.000000  -0.000000  -0.000000
     21       0.194513  -0.000159   0.000010   0.000028  -0.000035  -0.000204
     22      -0.382633   0.000086   0.000125   0.000483  -0.000112   0.000066
     23      -0.000013   0.000001   0.000002  -0.000000  -0.000000   0.000000
     24       0.012583  -0.000034  -0.000062  -0.000052   0.000113   0.000238
     25       0.006961   0.000002   0.000025  -0.000048  -0.000011  -0.000181
     26      -0.000014  -0.000001  -0.000000  -0.000000  -0.000000  -0.000000
     27       0.105031   0.050627   0.096752  -0.028550  -0.124578  -0.637616
     28      -0.074265   0.058637   0.111604  -0.035593  -0.142735  -0.722670
     29       0.000155   0.000040   0.000083  -0.000029  -0.000122  -0.000660
     30      -0.023103   0.129533   0.248955  -0.036502  -0.047684   0.060701
     31      -0.024727  -0.421548  -0.804710   0.123108   0.165482  -0.191288
     32      -0.000002  -0.000206  -0.000402   0.000063   0.000081  -0.000095
     33      -0.039129  -0.307011  -0.104080  -0.483965  -0.768975   0.132492
     34       0.000238   0.066836   0.026163   0.104852   0.170408  -0.027938
     35      -0.000038   0.000014  -0.000002   0.000024   0.000038  -0.000009
     36      -0.058701   0.534187  -0.319691   0.084112  -0.212490   0.031971
     37       0.063578   0.596467  -0.355730   0.088519  -0.239515   0.036413
     38       0.000047   0.000250  -0.000146   0.000036  -0.000099   0.000016
     39       0.085229   0.066934  -0.042368  -0.250308   0.135989  -0.014469
     40       0.073216  -0.219373   0.138929   0.806960  -0.430373   0.049724
     41      -0.000059  -0.000066   0.000046   0.000259  -0.000140   0.000015


-----------
IR SPECTRUM
-----------

 Mode   freq       eps      Int      T**2         TX        TY        TZ
       cm**-1   L/(mol*cm) km/mol    a.u.
----------------------------------------------------------------------------
  6:     80.72   0.000043    0.22  0.000165  (-0.000355 -0.000505 -0.012844)
  7:    134.52   0.000071    0.36  0.000164  (-0.000391 -0.000554  0.012789)
  8:    177.94   0.001022    5.17  0.001793  ( 0.031246  0.028577  0.000122)
  9:    251.78   0.026944  136.16  0.033394  ( 0.133652  0.124624  0.000093)
 10:    331.19   0.000159    0.80  0.000149  (-0.000429  0.000051 -0.012216)
 11:    343.99   0.003263   16.49  0.002960  ( 0.026201  0.047686 -0.000122)
 12:    428.62   0.000125    0.63  0.000091  (-0.000125 -0.000032  0.009526)
 13:    467.06   0.006068   30.67  0.004054  (-0.000450 -0.000029  0.063672)
 14:    477.81   0.006843   34.58  0.004469  (-0.064477 -0.017665 -0.000058)
 15:    601.63   0.052401  264.81  0.027180  ( 0.128577  0.103191 -0.000004)
 16:    622.95   0.001203    6.08  0.000603  ( 0.021744  0.011395 -0.000338)
 17:    677.29   0.025368  128.20  0.011688  ( 0.000054  0.000227 -0.108112)
 18:    703.99   0.012929   65.34  0.005731  (-0.000101  0.000062 -0.075703)
 19:    800.76   0.000042    0.21  0.000016  (-0.000214 -0.000351  0.004018)
 20:    805.15   0.032611  164.80  0.012639  (-0.069586 -0.088302 -0.000037)
 21:    816.49   0.003247   16.41  0.001241  ( 0.000045 -0.000139 -0.035230)
 22:    965.23   0.000000    0.00  0.000000  ( 0.000083  0.000245  0.000283)
 23:    966.29   0.000003    0.02  0.000001  ( 0.000194 -0.000455 -0.000916)
 24:    985.15   0.004892   24.72  0.001550  ( 0.027781 -0.027889  0.000079)
 25:   1011.70   0.017744   89.67  0.005473  (-0.070722  0.021719  0.000058)
 26:   1090.08   0.002437   12.31  0.000698  ( 0.018719 -0.018633  0.000001)
 27:   1143.45   0.001317    6.66  0.000359  ( 0.007864 -0.017253  0.000022)
 28:   1169.05   0.009653   48.78  0.002577  ( 0.023687 -0.044897  0.000020)
 29:   1226.75   0.026071  131.75  0.006632  (-0.019690 -0.079022 -0.000006)
 30:   1301.01   0.002858   14.44  0.000686  ( 0.026089  0.002212 -0.000020)
 31:   1360.71   0.007775   39.29  0.001783  (-0.021294 -0.036463 -0.000058)
 32:   1437.48   0.002865   14.48  0.000622  (-0.015428  0.019595  0.000029)
 33:   1475.67   0.009452   47.77  0.001999  (-0.032405  0.030803  0.000024)
 34:   1518.06   0.002510   12.69  0.000516  (-0.011636  0.019510 -0.000020)
 35:   1593.54   0.061951  313.07  0.012132  (-0.099637  0.046950  0.000039)
 36:   1732.36   0.195548  988.22  0.035226  (-0.130177  0.135202 -0.000028)
 37:   3141.88   0.002682   13.55  0.000266  (-0.016092 -0.002727 -0.000026)
 38:   3145.65   0.008649   43.71  0.000858  ( 0.002570  0.029178 -0.000077)
 39:   3173.62   0.006445   32.57  0.000634  ( 0.007908 -0.023899  0.000034)
 40:   3180.40   0.007889   39.87  0.000774  ( 0.026226  0.009289  0.000035)
 41:   3194.42   0.002104   10.63  0.000206  (-0.001478  0.014261  0.000041)

* The epsilon (eps) is given for a Dirac delta lineshape.
** The dipole moment derivative (T) already includes vibrational overlap.

The first frequency considered to be a vibration is 6
The total number of vibrations considered is 36


--------------------------
THERMOCHEMISTRY AT 298.15K
--------------------------

Temperature         ...   298.15 K
Pressure            ...     1.00 atm
Total Mass          ...   140.57 AMU
Quasi RRHO          ...     True
Cut-Off Frequency   ...     1.00 cm^-1

Throughout the following assumptions are being made:
  (1) The electronic state is orbitally nondegenerate
      but the spin degeneracy is treated
  (2) There are no thermally accessible electronically excited states
  (3) Hindered rotations indicated by low frequency modes are not
      treated as such but are treated as vibrations and this may
      cause some error
  (4) All equations used are the standard statistical mechanics
      equations for an ideal gas
  (5) All vibrations are strictly harmonic

freq.      80.72  E(vib)   ...       0.48 
freq.     134.52  E(vib)   ...       0.42 
freq.     177.94  E(vib)   ...       0.37 
freq.     251.78  E(vib)   ...       0.30 
freq.     331.19  E(vib)   ...       0.24 
freq.     343.99  E(vib)   ...       0.23 
freq.     428.62  E(vib)   ...       0.18 
freq.     467.06  E(vib)   ...       0.16 
freq.     477.81  E(vib)   ...       0.15 
freq.     601.63  E(vib)   ...       0.10 
freq.     622.95  E(vib)   ...       0.09 
freq.     677.29  E(vib)   ...       0.08 
freq.     703.99  E(vib)   ...       0.07 
freq.     800.76  E(vib)   ...       0.05 
freq.     805.15  E(vib)   ...       0.05 
freq.     816.49  E(vib)   ...       0.05 
freq.     965.23  E(vib)   ...       0.03 
freq.     966.29  E(vib)   ...       0.03 
freq.     985.15  E(vib)   ...       0.02 
freq.    1011.70  E(vib)   ...       0.02 
freq.    1090.08  E(vib)   ...       0.02 
freq.    1143.45  E(vib)   ...       0.01 
freq.    1169.05  E(vib)   ...       0.01 
freq.    1226.75  E(vib)   ...       0.01 
freq.    1301.01  E(vib)   ...       0.01 
freq.    1360.71  E(vib)   ...       0.01 
freq.    1437.48  E(vib)   ...       0.00 
freq.    1475.67  E(vib)   ...       0.00 
freq.    1518.06  E(vib)   ...       0.00 
freq.    1593.54  E(vib)   ...       0.00 
freq.    1732.36  E(vib)   ...       0.00 
freq.    3141.88  E(vib)   ...       0.00 
freq.    3145.65  E(vib)   ...       0.00 
freq.    3173.62  E(vib)   ...       0.00 
freq.    3180.40  E(vib)   ...       0.00 
freq.    3194.42  E(vib)   ...       0.00 

------------
INNER ENERGY
------------

The inner energy is: U= E(el) + E(ZPE) + E(vib) + E(rot) + E(trans)
    E(el)   - is the total energy from the electronic structure calculation
              = E(kin-el) + E(nuc-el) + E(el-el) + E(nuc-nuc)
    E(ZPE)  - the the zero temperature vibrational energy from the frequency calculation
    E(vib)  - the the finite temperature correction to E(ZPE) due to population
              of excited vibrational states
    E(rot)  - is the rotational thermal energy
    E(trans)- is the translational thermal energy

Summary of contributions to the inner energy U:
Electronic energy                ...   -805.23378595 Eh
Zero point energy                ...      0.09690051 Eh      60.81 kcal/mol
Thermal vibrational correction   ...      0.00509660 Eh       3.20 kcal/mol
Thermal rotational correction    ...      0.00141627 Eh       0.89 kcal/mol
Thermal translational correction ...      0.00141627 Eh       0.89 kcal/mol
-----------------------------------------------------------------------
Total thermal energy                   -805.12895631 Eh


Summary of corrections to the electronic energy:
(perhaps to be used in another calculation)
Total thermal correction                  0.00792914 Eh       4.98 kcal/mol
Non-thermal (ZPE) correction              0.09690051 Eh      60.81 kcal/mol
-----------------------------------------------------------------------
Total correction                          0.10482965 Eh      65.78 kcal/mol


--------
ENTHALPY
--------

The enthalpy is H = U + kB*T
                kB is Boltzmann's constant
Total thermal energy              ...   -805.12895631 Eh 
Thermal Enthalpy correction       ...      0.00094421 Eh       0.59 kcal/mol
-----------------------------------------------------------------------
Total Enthalpy                    ...   -805.12801210 Eh


Note: Only C1 symmetry has been detected, increase convergence thresholds 
      if your molecule has a higher symmetry. Symmetry factor of 1.0 is   
      used for the rotational entropy correction. 
 

Note: Rotational entropy computed according to Herzberg 
Infrared and Raman Spectra, Chapter V,1, Van Nostrand Reinhold, 1945 
Point Group:  C1, Symmetry Number:   1  
Rotational constants in cm-1:     0.099848     0.030284     0.023236 

Vibrational entropy computed according to the QRRHO of S. Grimme
Chem.Eur.J. 2012 18 9955 using a reference frequency of 100.0 cm-1


-------
ENTROPY
-------

The entropy contributions are T*S = T*(S(el)+S(vib)+S(rot)+S(trans))
     S(el)   - electronic entropy
     S(vib)  - vibrational entropy
     S(rot)  - rotational entropy
     S(trans)- translational entropy
The entropies will be listed as multiplied by the temperature to get
units of energy

Electronic entropy                ...      0.00065446 Eh      0.41 kcal/mol
Vibrational entropy               ...      0.00844262 Eh      5.30 kcal/mol
Rotational entropy                ...      0.01402556 Eh      8.80 kcal/mol
Translational entropy             ...      0.01935352 Eh     12.14 kcal/mol
-----------------------------------------------------------------------
Final entropy term                ...      0.04247615 Eh     26.65 kcal/mol

In case the symmetry of your molecule has not been determined correctly
or in case you have a reason to use a different symmetry number we print 
out the resulting rotational entropy values for sn=1,12:

 non-linear molecules -----------------------------------
|  sn= 1 | S(rot)=       0.01402556 Eh      8.80 kcal/mol|
|  sn= 2 | S(rot)=       0.01337110 Eh      8.39 kcal/mol|
|  sn= 3 | S(rot)=       0.01298827 Eh      8.15 kcal/mol|
|  sn= 4 | S(rot)=       0.01271665 Eh      7.98 kcal/mol|
|  sn= 5 | S(rot)=       0.01250596 Eh      7.85 kcal/mol|
|  sn= 6 | S(rot)=       0.01233381 Eh      7.74 kcal/mol|
|  sn= 7 | S(rot)=       0.01218827 Eh      7.65 kcal/mol|
|  sn= 8 | S(rot)=       0.01206219 Eh      7.57 kcal/mol|
|  sn= 9 | S(rot)=       0.01195098 Eh      7.50 kcal/mol|
|  sn=10 | S(rot)=       0.01185150 Eh      7.44 kcal/mol|
|  sn=11 | S(rot)=       0.01176151 Eh      7.38 kcal/mol|
|  sn=12 | S(rot)=       0.01167936 Eh      7.33 kcal/mol|
 linear molecules ---------------------------------------
|  Dinfh | S(rot)=       0.00887786 Eh      5.57 kcal/mol|
|  Cinfv | S(rot)=       0.00953232 Eh      5.98 kcal/mol|
 --------------------------------------------------------


-------------------
GIBBS FREE ENERGY
-------------------

The Gibbs free energy is G = H - T*S

Total enthalpy                    ...   -805.12801210 Eh 
Total entropy correction          ...     -0.04247615 Eh    -26.65 kcal/mol
-----------------------------------------------------------------------
Final Gibbs free energy         ...   -805.17048825 Eh

For completeness - the Gibbs free energy minus the electronic energy
G-E(el)                           ...      0.06329770 Eh     39.72 kcal/mol


Maximum memory used throughout the entire PROP-calculation: 105.7 MB

--------------------------------
SUGGESTED CITATIONS FOR THIS RUN
--------------------------------

Below you find a list of papers that are relevant to this ORCA run
We neither can nor want to force you to cite these papers, but we appreciate if you do
You receive ORCA, which is the product of decades of hard work by many enthusiastic individuals, for free
The only thing we kindly ask in return is that you cite our papers,
We deeply appreciate it, if you show your appreciation for ORCA by not just citing the generic ORCA reference.

Please note that relegating all ORCA citations to the supporting information does *not* help us.
SI sections are not indexed - citations you put there will not count into any citation statistics
But we need these citations in order to attract the funding resources that allow us to do what we are doing

Therefore, if you are a happy ORCA user, please consider citing a few of the papers listed below in the main body of your paper

In addition to the list printed below, the program has created the file cs_rporg_169_red_freq_06.bibtex that contains the list in bibtex format
You can import this file easily into all common literature databanks and citation aid programs


List of essential papers. We consider these as the minimum necessary citations

  1. Neese,F.
     Software update: the ORCA program system, version 5.0
     WIRES Comput. Molec. Sci., 2022 12(1)e1606
     doi.org/10.1002/wcms.1606

List of papers to cite with high priority. The work reported in these papers was absolutely
necessary for this run to complete.
Our perspective: the developers of density functionals and basis sets usually get cited in chemistry papers
Good! But without the algorithms to do something with them, the functionals or basis sets would not do anything.
Hence, in our opinion, the algorithm design and method developments papers are equally worthy of getting cited

  1. Neese,F.
     An improvement of the resolution of the identity approximation for the formation of the Coulomb matrix
     J. Comp. Chem., 2003 24(14)1740-1747
     doi.org/10.1002/jcc.10318
  2. Bykov,D.; Petrenko,T.; Izsak,R.; Kossmann,S.; Becker,U.; Valeev,E.; Neese,F.
     Efficient implementation of the analytic second derivatives of Hartree-Fock and hybrid DFT energies: a detailed analysis of different approximations
     Molec. Phys., 2015 113 1961-1977
     doi.org/10.1080/00268976.2015.1025114
  3. Garcia-Rates,M.; Neese,F.
     Efficient implementation of the analytical second derivatives of hartree-fock and hybrid DFT energies within the framework of the conductor-like polarizable continuum model
     J. Comput. Chem., 2019 40 1816-1828
     doi.org/10.1002/jcc.25833
  4. Garcia-Rates,M.; Neese,F.
     Effect of the Solute Cavity on the Solvation Energy and its Derivatives within the Framework of the Gaussian Charge Scheme
     J. Comput. Chem., 2020 41 922-939
     doi.org/10.1002/jcc.26139
  5. Neese,F.
     The SHARK Integral Generation and Digestion System
     J. Comp. Chem., 2022  1-16
     doi.org/10.1002/jcc.26942
  6. Lehtola,S.; Steigemann,C.; Oliveira,M.; Marques,M.
     Recent developments in Libxc - A comprehensive library of functionals for density functional theory
     Software X, 2018 7 
     doi.org/10.1016/j.softx.2017.11.002
  7. Grimme,S.; Antony,J.; Ehrlich,S.; Krieg,H.
     A consistent and accurate ab initio parametrization of density functional dispersion correction (DFT-D) for the 94 elements H-Pu
     J. Chem. Phys., 2010 132 154104-XXXX
     doi.org/10.1063/1.3382344
  8. Grimme,S.; Ehrlich,S.; Goerigk,L.
     Effect of the damping function in dispersion corrected density functional theory
     J. Comput. Chem., 2011 32(7)1456-1465
     doi.org/10.1002/jcc.21759

List of suggested additional citations. These are papers that are important in the 'surrounding' of 
of this run, or papers that preceded the highly important papers. If you like your results we are grateful for a citation.

  1. Neese,F.
     The ORCA program system
     WIRES Comput. Molec. Sci., 2012 2(1)73-78
     doi.org/10.1002/wcms.81
  2. Neese,F.
     Software update: the ORCA program system, version 4.0
     WIRES Comput. Molec. Sci., 2018 8(1)1-6
     doi.org/10.1002/wcms.1327
  3. Neese,F.; Wennmohs,F.; Becker,U.; Riplinger,C.
     The ORCA quantum chemistry program package
     J. Chem. Phys., 2020 152 Art. No. L224108
     doi.org/10.1063/5.0004608

List of optional additional citations

  1. Neese,F.
     Approximate second-order SCF convergence for spin unrestricted wavefunctions
     Chem. Phys. Lett., 2000 325(1-3)93-98
     doi.org/10.1016/s0009-2614(00)00662-x

Timings for individual modules:

Sum of individual times          ...     2839.804 sec (=  47.330 min)
Startup calculation              ...       13.021 sec (=   0.217 min)   0.5 %
SCF iterations                   ...      729.720 sec (=  12.162 min)  25.7 %
Property integrals               ...      683.952 sec (=  11.399 min)  24.1 %
SCF Response                     ...     1256.213 sec (=  20.937 min)  44.2 %
Property calculations            ...      156.899 sec (=   2.615 min)   5.5 %
                             ****ORCA TERMINATED NORMALLY****
TOTAL RUN TIME: 0 days 0 hours 47 minutes 30 seconds 545 msec
