
                                 *****************
                                 * O   R   C   A *
                                 *****************

                                            #,                                       
                                            ###                                      
                                            ####                                     
                                            #####                                    
                                            ######                                   
                                           ########,                                 
                                     ,,################,,,,,                         
                               ,,#################################,,                 
                          ,,##########################################,,             
                       ,#########################################, ''#####,          
                    ,#############################################,,   '####,        
                  ,##################################################,,,,####,       
                ,###########''''           ''''###############################       
              ,#####''   ,,,,##########,,,,          '''####'''          '####       
            ,##' ,,,,###########################,,,                        '##       
           ' ,,###''''                  '''############,,,                           
         ,,##''                                '''############,,,,        ,,,,,,###''
      ,#''                                            '''#######################'''  
     '                                                          ''''####''''         
             ,#######,   #######,   ,#######,      ##                                
            ,#'     '#,  ##    ##  ,#'     '#,    #''#        ,####,   ,####,        
            ##       ##  ##   ,#'  ##            #'  '#       #'       #'  '#        
            ##       ##  #######   ##           ,######,      #####,   #    #        
            '#,     ,#'  ##    ##  '#,     ,#' ,#      #,     #,   #   #,  ,#        
             '#######'   ##     ##  '#######'  #'      '#     '####' # '####'        



                #########################################################
                #                        -***-                          #
                #          Department of theory and spectroscopy        #
                #                                                       #
                #                      Frank Neese                      #
                #                                                       #
                #     Directorship, Architecture, Infrastructure        #
                #                    SHARK, DRIVERS                     #
                #        Core code/Algorithms in most modules           #
                #                                                       #
                #        Max Planck Institute fuer Kohlenforschung      #
                #                Kaiser Wilhelm Platz 1                 #
                #                 D-45470 Muelheim/Ruhr                 #
                #                      Germany                          #
                #                                                       #
                #                  All rights reserved                  #
                #                        -***-                          #
                #########################################################


                         Program Version 6.0.0  -   RELEASE  -


 With contributions from (in alphabetic order):
   Daniel Aravena         : Magnetic Suceptibility
   Michael Atanasov       : Ab Initio Ligand Field Theory (pilot matlab implementation)
   Alexander A. Auer      : GIAO ZORA, VPT2 properties, NMR spectrum
   Ute Becker             : All parallelization in ORCA, NUMFREQ, NUMCALC
   Giovanni Bistoni       : ED, misc. LED, open-shell LED, HFLD
   Martin Brehm           : Molecular dynamics
   Dmytro Bykov           : pre 5.0 version of the SCF Hessian
   Marcos Casanova-Páez   : Triplet and SCS-CIS(D). UHF-(DLPNO)-IP/EA/STEOM-CCSD. UHF-CVS-IP/STEOM-CCSD
   Vijay G. Chilkuri      : MRCI spin determinant printing, contributions to CSF-ICE
   Pauline Colinet        : FMM embedding
   Dipayan Datta          : RHF DLPNO-CCSD density
   Achintya Kumar Dutta   : EOM-CC, STEOM-CC
   Nicolas Foglia         : Exact transition moments, OPA infrastructure, MCD improvements
   Dmitry Ganyushin       : Spin-Orbit,Spin-Spin,Magnetic field MRCI
   Miquel Garcia          : C-PCM and meta-GGA Hessian, CCSD/C-PCM, Gaussian charge scheme
   Tiago L. C. Gouveia    : GS-ROHF, GS-ROCIS
   Yang Guo               : DLPNO-NEVPT2, F12-NEVPT2, CIM, IAO-localization
   Andreas Hansen         : Spin unrestricted coupled pair/coupled cluster methods
   Ingolf Harden          : AUTO-CI MPn and infrastructure 
   Benjamin Helmich-Paris : MC-RPA, TRAH-(SCF,CASSCF), AVAS, COSX integrals, SCF dyn. polar.
   Lee Huntington         : MR-EOM, pCC
   Robert Izsak           : Overlap fitted RIJCOSX, COSX-SCS-MP3, EOM
   Riya Kayal             : Wick's Theorem for AUTO-CI, AUTO-CI UHF-CCSDT
   Emily Kempfer          : AUTO-CI, RHF CISDT and CCSDT
   Christian Kollmar      : KDIIS, OOCD, Brueckner-CCSD(T), CCSD density, CASPT2, CASPT2-K, improved NEVPT2
   Axel Koslowski         : Symmetry handling
   Simone Kossmann        : Meta GGA functionals, TD-DFT gradient, OOMP2, (MP2 Hessian; deprecated post 5.0)
   Lucas Lang             : DCDCAS
   Marvin Lechner         : AUTO-CI (C++ implementation), FIC-MRCC
   Spencer Leger          : CASSCF response
   Dagmar Lenk            : GEPOL surface, SMD, ORCA-2-JSON
   Dimitrios Liakos       : Extrapolation schemes; Compound Job, initial MDCI parallelization
   Dimitrios Manganas     : Further ROCIS development; embedding schemes. LFT, Crystal Embedding
   Dimitrios Pantazis     : SARC Basis sets
   Anastasios Papadopoulos: AUTO-CI, single reference methods and gradients
   Taras Petrenko         : pre 6.0 DFT Hessian and TD-DFT gradient, (ASA, deprecated), ECA, 1-Electron XAS/XES, NRVS
   Peter Pinski           : DLPNO-MP2, DLPNO-MP2 Gradient
   Christoph Reimann      : Effective Core Potentials
   Marius Retegan         : Local ZFS, SOC
   Christoph Riplinger    : Optimizer, TS searches, QM/MM, DLPNO-CCSD(T), (RO)-DLPNO pert. Triples
   Michael Roemelt        : Original ROCIS implementation
   Masaaki Saitow         : Open-shell DLPNO-CCSD energy and density
   Barbara Sandhoefer     : DKH picture change effects
   Kantharuban Sivalingam : CASSCF convergence/infrastructure, NEVPT2 and variants, FIC-MRCI
   Bernardo de Souza      : ESD, SOC TD-DFT
   Georgi Stoychev        : AutoAux, RI-MP2 NMR, DLPNO-MP2 response, X2C
   Van Anh Tran           : RI-MP2 g-tensors
   Willem Van den Heuvel  : Paramagnetic NMR
   Zikuan Wang            : NOTCH, Electric field optimization 
   Frank Wennmohs         : Technical directorship and infrastructure
   Hang Xu                : AUTO-CI-Response properties 


 We gratefully acknowledge several colleagues who have allowed us to
 interface, adapt or use parts of their codes:
   Stefan Grimme, W. Hujo, H. Kruse, P. Pracht,  : VdW corrections, initial TS optimization,
                  C. Bannwarth, S. Ehlert,         DFT functionals, gCP, sTDA/sTD-DF
                  L. Wittmann, M. Mueller
   Ed Valeev, F. Pavosevic, A. Kumar             : LibInt (2-el integral package), F12 methods
   Garnet Chan, S. Sharma, J. Yang, R. Olivares  : DMRG
   Ulf Ekstrom                                   : XCFun DFT Library
   Mihaly Kallay                                 : mrcc  (arbitrary order and MRCC methods)
   Frank Weinhold                                : gennbo (NPA and NBO analysis)
   Simon Mueller                                 : openCOSMO-RS
   Christopher J. Cramer and Donald G. Truhlar   : smd solvation model
   Lars Goerigk                                  : TD-DFT with DH, B97 family of functionals
   V. Asgeirsson, H. Jonsson                     : NEB implementation
   FAccTs GmbH                                   : IRC, NEB, NEB-TS, DLPNO-Multilevel, CI-OPT
                                                   MM, QMMM, 2- and 3-layer-ONIOM, Crystal-QMMM,
                                                   LR-CPCM, SF, NACMEs, symmetry and pop. for TD-DFT,
                                                   nearIR, NL-DFT gradient (VV10), updates on ESD,
                                                   ML-optimized integration grids, MBIS, APM,
                                                   GOAT, DOCKER, SOLVATOR, interface openCOSMO-RS
   S Lehtola, MJT Oliveira, MAL Marques          : LibXC Library
   Liviu Ungur et al                             : ANISO software


 Your calculation uses the libint2 library for the computation of 2-el integrals
 For citations please refer to: http://libint.valeyev.net

 Your ORCA version has been built with support for libXC version: 6.2.2
 For citations please refer to: https://libxc.gitlab.io

 This ORCA versions uses:
   CBLAS   interface :  Fast vector & matrix operations
   LAPACKE interface :  Fast linear algebra routines
   SCALAPACK package :  Parallel linear algebra routines
   Shared memory     :  Shared parallel matrices
   BLAS/LAPACK       :  OpenBLAS 0.3.27  USE64BITINT DYNAMIC_ARCH NO_AFFINITY Sandybridge SINGLE_THREADED
        Core in use  :  Sandybridge
   Copyright (c) 2011-2014, The OpenBLAS Project


NOTE: MaxCore=5000 MB was set to SCF,MP2,MDCI,CIPSI,MRCI and CIS
      => If you want to overwrite this, your respective input block should be placed after the MaxCore statement
Your calculation utilizes the atom-pairwise dispersion correction
with the Becke-Johnson damping scheme (D3BJ)


Your calculation utilizes the SMD solvation module
Please cite in your paper:
A.V. Marenich, C.J. Cramer, D.G. Truhlar J. Phys. Chem. B, 113, (2009), 6378 

Warning: RI is on but no J-basis has been assigned. Assigning Def2/J (nothing to worry about!)
================================================================================

----- Orbital basis set information -----
Your calculation utilizes the basis: aug-cc-pVTZ 
    H, B-Ne : Obtained from the ccRepo (grant-hill.group.shef.ac.uk/ccrepo) Feb. 2017
              R. A. Kendall, T. H. Dunning, Jr., R. J. Harrison, J. Chem. Phys. 96, 6796 (1992)
         He : Obtained from the ccRepo (grant-hill.group.shef.ac.uk/ccrepo) Feb. 2017
              D. E. Woon, T. H. Dunning, Jr., J. Chem. Phys. 100, 2975 (1994)
  Li-Be, Na : Obtained from the ccRepo (grant-hill.group.shef.ac.uk/ccrepo) Feb. 2017
              B. P. Prascher, D. E. Woon, K. A. Peterson, T. H. Dunning, Jr., A. K. Wilson, Theor. Chem. Acc. 128, 69 (2011)
         Mg : Obtained from the Peterson Research Group Website (tyr0.chem.wsu.edu/~kipeters) Feb. 2017
              B. P. Prascher, D. E. Woon, K. A. Peterson, T. H. Dunning, Jr., A. K. Wilson, Theor. Chem. Acc. 128, 69 (2011)
      Al-Ar : Obtained from the ccRepo (grant-hill.group.shef.ac.uk/ccrepo) Feb. 2017
              D. E. Woon, T. H. Dunning, Jr., J. Chem. Phys. 98, 1358 (1993)
      Sc-Zn : Obtained from the ccRepo (grant-hill.group.shef.ac.uk/ccrepo) Feb. 2017
              N. B. Balabanov, K. A. Peterson, J. Chem. Phys. 123, 064107 (2005)
              N. B. Balabanov, K. A. Peterson, J. Chem. Phys. 125, 074110 (2006)
      Ga-Kr : Obtained from the ccRepo (grant-hill.group.shef.ac.uk/ccrepo) Feb. 2017
              A. K. Wilson, D. E. Woon, K. A. Peterson, T. H. Dunning, Jr., J. Chem. Phys. 110, 7667 (1999)
     Ag, Au : Obtained from the Peterson Research Group Website (tyr0.chem.wsu.edu/~kipeters) Feb. 2017
              K. A. Peterson, C. Puzzarini, Theor. Chem. Acc. 114, 283 (2005)

----- AuxJ basis set information -----
Your calculation utilizes the auxiliary basis: def2/J
   F. Weigend, Phys. Chem. Chem. Phys. 8, 1057 (2006).

================================================================================
                                        WARNINGS
                       Please study these warnings very carefully!
================================================================================

Using LibXC functional ID 497 : Re-regularized SCAN exchange by Furness et al
[ 1]  J. W. Furness, A. D. Kaplan, J. Ning, J. P. Perdew, and J. Sun.,  J. Phys. Chem. Lett. 11, 8208-8215 (2020)
[ 2]  J. W. Furness, A. D. Kaplan, J. Ning, J. P. Perdew, and J. Sun.,  J. Phys. Chem. Lett. 11, 9248-9248 (2020)
Using LibXC functional ID 498 : Re-regularized SCAN correlation by Furness et al
[ 1]  J. W. Furness, A. D. Kaplan, J. Ning, J. P. Perdew, and J. Sun.,  J. Phys. Chem. Lett. 11, 8208-8215 (2020)
[ 2]  J. W. Furness, A. D. Kaplan, J. Ning, J. P. Perdew, and J. Sun.,  J. Phys. Chem. Lett. 11, 9248-9248 (2020)
Using LibXC functional ID 497 : Re-regularized SCAN exchange by Furness et al
[ 1]  J. W. Furness, A. D. Kaplan, J. Ning, J. P. Perdew, and J. Sun.,  J. Phys. Chem. Lett. 11, 8208-8215 (2020)
[ 2]  J. W. Furness, A. D. Kaplan, J. Ning, J. P. Perdew, and J. Sun.,  J. Phys. Chem. Lett. 11, 9248-9248 (2020)
Using LibXC functional ID 498 : Re-regularized SCAN correlation by Furness et al
[ 1]  J. W. Furness, A. D. Kaplan, J. Ning, J. P. Perdew, and J. Sun.,  J. Phys. Chem. Lett. 11, 8208-8215 (2020)
[ 2]  J. W. Furness, A. D. Kaplan, J. Ning, J. P. Perdew, and J. Sun.,  J. Phys. Chem. Lett. 11, 9248-9248 (2020)


WARNING: Found flag for RIJCOSX approximation but no HF exchange needed!
  ===> : RIJCOSX  will be disabled and Split-RI-J is turned on

================================================================================
                                       INPUT FILE
================================================================================
NAME = cs_rporg_140_red_freq_06.inp
|  1> !r2SCAN freq aug-cc-pVTZ d3 TightSCF SlowConv RIJCOSX defgrid2
|  2> 
|  3> %pal
|  4> nprocs 12
|  5> end
|  6> 
|  7> %scf
|  8> MaxIter 1500
|  9> end
| 10> 
| 11> %maxcore 5000
| 12> 
| 13> !CPCM
| 14> %cpcm smd true
| 15> SMDsolvent "MeCN"
| 16> surfacetype gepol_ses
| 17> rsolv 2.19
| 18> end 
| 19> 
| 20> * xyz 0 1
| 21> C           0.93942428661502     -1.26810109774645     -0.00015157932141
| 22> C           2.30872559857588     -1.03109154021365     -0.00058788714425
| 23> C           2.78910711744814      0.27359223675244     -0.00036843406844
| 24> C           1.89189712201250      1.34223004856964      0.00043890002790
| 25> C           0.52593880299877      1.11157479884994      0.00080976491356
| 26> C           0.03225431386771     -0.20173839077500      0.00038300937010
| 27> C          -1.39152501210631     -0.50779847232216      0.00060976146895
| 28> N          -2.27416444444970      0.41751576691135     -0.00156892313612
| 29> O          -3.56896224991841     -0.12197444677375     -0.00051396676830
| 30> H          -4.13025402339185      0.66727999414558     -0.00182655056489
| 31> H          -1.69102647224433     -1.55687353354248      0.00291603981801
| 32> H          -0.16764560601252      1.94324255282134      0.00160227312758
| 33> H           2.26416810760325      2.36004117007354      0.00024768271711
| 34> H           3.85634926541052      0.46077285425924     -0.00095342297794
| 35> H           2.99960613475906     -1.86581135846164     -0.00104625435386
| 36> H           0.56380145883230     -2.28545888254797      0.00021698689200
| 37> *
| 38> 
| 39>                          ****END OF INPUT****
================================================================================

                       ****************************
                       * Single Point Calculation *
                       ****************************

---------------------------------
CARTESIAN COORDINATES (ANGSTROEM)
---------------------------------
  C      0.939424   -1.268101   -0.000152
  C      2.308726   -1.031092   -0.000588
  C      2.789107    0.273592   -0.000368
  C      1.891897    1.342230    0.000439
  C      0.525939    1.111575    0.000810
  C      0.032254   -0.201738    0.000383
  C     -1.391525   -0.507798    0.000610
  N     -2.274164    0.417516   -0.001569
  O     -3.568962   -0.121974   -0.000514
  H     -4.130254    0.667280   -0.001827
  H     -1.691026   -1.556874    0.002916
  H     -0.167646    1.943243    0.001602
  H      2.264168    2.360041    0.000248
  H      3.856349    0.460773   -0.000953
  H      2.999606   -1.865811   -0.001046
  H      0.563801   -2.285459    0.000217

----------------------------
CARTESIAN COORDINATES (A.U.)
----------------------------
  NO LB      ZA    FRAG     MASS         X           Y           Z
   0 C     6.0000    0    12.011    1.775255   -2.396364   -0.000286
   1 C     6.0000    0    12.011    4.362859   -1.948481   -0.001111
   2 C     6.0000    0    12.011    5.270649    0.517014   -0.000696
   3 C     6.0000    0    12.011    3.575167    2.536447    0.000829
   4 C     6.0000    0    12.011    0.993880    2.100572    0.001530
   5 C     6.0000    0    12.011    0.060952   -0.381230    0.000724
   6 C     6.0000    0    12.011   -2.629601   -0.959600    0.001152
   7 N     7.0000    0    14.007   -4.297548    0.788990   -0.002965
   8 O     8.0000    0    15.999   -6.744361   -0.230498   -0.000971
   9 H     1.0000    0     1.008   -7.805049    1.260976   -0.003452
  10 H     1.0000    0     1.008   -3.195577   -2.942065    0.005511
  11 H     1.0000    0     1.008   -0.316804    3.672196    0.003028
  12 H     1.0000    0     1.008    4.278658    4.459831    0.000468
  13 H     1.0000    0     1.008    7.287444    0.870735   -0.001802
  14 H     1.0000    0     1.008    5.668434   -3.525872   -0.001977
  15 H     1.0000    0     1.008    1.065430   -4.318891    0.000410

--------------------------------
INTERNAL COORDINATES (ANGSTROEM)
--------------------------------
 C      0   0   0     0.000000000000     0.00000000     0.00000000
 C      1   0   0     1.389661758726     0.00000000     0.00000000
 C      2   1   0     1.390311551312   120.03349780     0.00000000
 C      3   2   1     1.395339815437   119.77016741     0.00000000
 C      4   3   2     1.385295676398   120.43171554     0.00000000
 C      1   2   3     1.400031095390   120.56837686     0.00000000
 C      6   1   2     1.456303675064   118.25642654   179.99039916
 N      7   6   1     1.278774239466   121.51591461   180.14001995
 O      8   7   6     1.402694607048   111.02819838   180.01337131
 H      9   8   7     0.968489933017   102.79957892   179.96827403
 H      7   6   1     1.090992634081   118.06538054     0.15254553
 H      5   4   3     1.082927150592   120.24250091   179.98984387
 H      4   3   2     1.083755139473   119.89342452   180.02217428
 H      3   2   1     1.083532522894   120.16134821   180.01502524
 H      2   1   3     1.083546630447   119.79395292   179.99678302
 H      1   2   3     1.084485826043   120.08477402   180.03292872

---------------------------
INTERNAL COORDINATES (A.U.)
---------------------------
 C      0   0   0     0.000000000000     0.00000000     0.00000000
 C      1   0   0     2.626080142775     0.00000000     0.00000000
 C      2   1   0     2.627308072807   120.03349780     0.00000000
 C      3   2   1     2.636810114932   119.77016741     0.00000000
 C      4   3   2     2.617829442897   120.43171554     0.00000000
 C      1   2   3     2.645675349261   120.56837686     0.00000000
 C      6   1   2     2.752015113694   118.25642654   179.99039916
 N      7   6   1     2.416533099705   121.51591461   180.14001995
 O      8   7   6     2.650708656849   111.02819838   180.01337131
 H      9   8   7     1.830180736863   102.79957892   179.96827403
 H      7   6   1     2.061677292538   118.06538054     0.15254553
 H      5   4   3     2.046435737606   120.24250091   179.98984387
 H      4   3   2     2.048000409833   119.89342452   180.02217428
 H      3   2   1     2.047579725467   120.16134821   180.01502524
 H      2   1   3     2.047606384878   119.79395292   179.99678302
 H      1   2   3     2.049381207341   120.08477402   180.03292872

---------------------
BASIS SET INFORMATION
---------------------
There are 4 groups of distinct atoms

 Group   1 Type C   : 19s6p3d2f contracted to 5s4p3d2f pattern {88111/3111/111/11}
 Group   2 Type N   : 19s6p3d2f contracted to 5s4p3d2f pattern {88111/3111/111/11}
 Group   3 Type O   : 19s6p3d2f contracted to 5s4p3d2f pattern {88111/3111/111/11}
 Group   4 Type H   : 6s3p2d contracted to 4s3p2d pattern {3111/111/11}

Atom   0C    basis set group =>   1
Atom   1C    basis set group =>   1
Atom   2C    basis set group =>   1
Atom   3C    basis set group =>   1
Atom   4C    basis set group =>   1
Atom   5C    basis set group =>   1
Atom   6C    basis set group =>   1
Atom   7N    basis set group =>   2
Atom   8O    basis set group =>   3
Atom   9H    basis set group =>   4
Atom  10H    basis set group =>   4
Atom  11H    basis set group =>   4
Atom  12H    basis set group =>   4
Atom  13H    basis set group =>   4
Atom  14H    basis set group =>   4
Atom  15H    basis set group =>   4
---------------------------------
AUXILIARY/J BASIS SET INFORMATION
---------------------------------
There are 4 groups of distinct atoms

 Group   1 Type C   : 12s5p4d2f1g contracted to 6s4p3d1f1g pattern {711111/2111/211/2/1}
 Group   2 Type N   : 12s5p4d2f1g contracted to 6s4p3d1f1g pattern {711111/2111/211/2/1}
 Group   3 Type O   : 12s5p4d2f1g contracted to 6s4p3d1f1g pattern {711111/2111/211/2/1}
 Group   4 Type H   : 5s2p1d contracted to 3s1p1d pattern {311/2/1}

Atom   0C    basis set group =>   1
Atom   1C    basis set group =>   1
Atom   2C    basis set group =>   1
Atom   3C    basis set group =>   1
Atom   4C    basis set group =>   1
Atom   5C    basis set group =>   1
Atom   6C    basis set group =>   1
Atom   7N    basis set group =>   2
Atom   8O    basis set group =>   3
Atom   9H    basis set group =>   4
Atom  10H    basis set group =>   4
Atom  11H    basis set group =>   4
Atom  12H    basis set group =>   4
Atom  13H    basis set group =>   4
Atom  14H    basis set group =>   4
Atom  15H    basis set group =>   4


           ************************************************************
           *        Program running with 12 parallel MPI-processes    *
           *              working on a common directory               *
           ************************************************************
------------------------------------------------------------------------------
                             ORCA STARTUP CALCULATIONS
                           -- RI-GTO INTEGRALS CHOSEN --
------------------------------------------------------------------------------
------------------------------------------------------------------------------
                   ___                                                        
                  /   \      - P O W E R E D   B Y -                         
                 /     \                                                     
                 |  |  |   _    _      __       _____    __    __             
                 |  |  |  | |  | |    /  \     |  _  \  |  |  /  |          
                  \  \/   | |  | |   /    \    | | | |  |  | /  /          
                 / \  \   | |__| |  /  /\  \   | |_| |  |  |/  /          
                |  |  |   |  __  | /  /__\  \  |    /   |      \           
                |  |  |   | |  | | |   __   |  |    \   |  |\   \          
                \     /   | |  | | |  |  |  |  | |\  \  |  | \   \       
                 \___/    |_|  |_| |__|  |__|  |_| \__\ |__|  \__/        
                                                                              
                      - O R C A' S   B I G   F R I E N D -                    
                                      &                                       
                       - I N T E G R A L  F E E D E R -                       
                                                                              
 v1 FN, 2020, v2 2021, v3 2022-2024                                           
------------------------------------------------------------------------------


----------------------
SHARK INTEGRAL PACKAGE
----------------------

Number of atoms                             ...     16
Number of basis functions                   ...    629
Number of shells                            ...    243
Maximum angular momentum                    ...      3
Integral batch strategy                     ... SHARK/LIBINT Hybrid
RI-J (if used) integral strategy            ... SPLIT-RIJ (Revised 2003 algorithm where possible)
Printlevel                                  ...      1
Contraction scheme used                     ... PARTIAL GENERAL contraction
Prescreening option                         ... SCHWARTZ
   Thresh                                   ... 2.500e-11
   Tcut                                     ... 2.500e-12
   Tpresel                                  ... 2.500e-12 
Coulomb Range Separation                    ... NOT USED
Exchange Range Separation                   ... NOT USED
Multipole approximations                    ... NOT USED
Finite Nucleus Model                        ... NOT USED
CABS basis                                  ... NOT available
Auxiliary Coulomb fitting basis             ... AVAILABLE
   # of basis functions in Aux-J            ...    518
   # of shells in Aux-J                     ...    170
   Maximum angular momentum in Aux-J        ...      4
Auxiliary J/K fitting basis                 ... NOT available
Auxiliary Correlation fitting basis         ... NOT available
Auxiliary 'external' fitting basis          ... NOT available

Checking pre-screening integrals            ... done (  0.1 sec) Dimension = 243
Save PGC pre-screening integrals            ... done (  0.1 sec) Dimension = 243
Calculate PGC overlap integrals             ... done (  0.2 sec) Dimension = 189
Calculating pre-screening integrals (ORCA)  ... done (  0.2 sec) Dimension = 189
Check shell pair data                       ... done (  0.0 sec)
Shell pair information
Shell pair cut-off parameter TPreSel        ...   2.5e-12
Total number of shell pairs                 ...     29646
Shell pairs after pre-screening             ...     24577
Total number of primitive shell pairs       ...     37998
Primitive shell pairs kept                  ...     29370
          la=0 lb=0:   5608 shell pairs
          la=1 lb=0:   6248 shell pairs
          la=1 lb=1:   1547 shell pairs
          la=2 lb=0:   4400 shell pairs
          la=2 lb=1:   2169 shell pairs
          la=2 lb=2:    796 shell pairs
          la=3 lb=0:   1987 shell pairs
          la=3 lb=1:    964 shell pairs
          la=3 lb=2:    695 shell pairs
          la=3 lb=3:    163 shell pairs

Calculating one electron integrals          ... done (  0.1 sec)
Calculating RI/J V-Matrix + Cholesky decomp.... done (  0.0 sec)
Calculating Nuclear repulsion               ... done (  0.0 sec) ENN=    392.778023942660 Eh

Diagonalization of the overlap matrix:
Smallest eigenvalue                        ... 6.012e-07
Time for diagonalization                   ...    0.096 sec
Threshold for overlap eigenvalues          ... 1.000e-07
Number of eigenvalues below threshold      ... 0

IMPORTANT:
Smallest eigenvalue of S below the DiffSThresh (1.000e-06) while
Thresh>1e-12 and/or TCut>1e-13! In order to avoid SCF convergence issues,
Thresh will be set to at least 1e-12 and TCut to at least 1e-13.
This can be turned off by adding %SCF DiffSThresh -1 END to the input.

Time for construction of square roots      ...    0.072 sec
Total time needed                          ...    0.221 sec

-------------------
DFT GRID GENERATION
-------------------

General Integration Accuracy     IntAcc      ... 4.388
Radial Grid Type                 RadialGrid  ... OptM3 with GC (2021)
Angular Grid (max. ang.)         AngularGrid ... 4 (Lebedev-302)
Angular grid pruning method      GridPruning ... 4 (adaptive)
Weight generation scheme         WeightScheme... mBecke (2022)
Basis function cutoff            BFCut       ... 1.0000e-11
Integration weight cutoff        WCut        ... 1.0000e-14
Partially contracted basis set               ... off
Rotationally invariant grid construction     ... off
Angular grids for H and He will be reduced by one unit
Diffuse basis detected: some atoms will have their outermost
                        angular grid increased by 1.

Total number of grid points                  ...    80580
Total number of batches                      ...     1266
Average number of points per batch           ...       63
Average number of grid points per atom       ...     5036

---------------------
SHARK GRID GENERATION
---------------------

General Integration Accuracy     IntAcc      ... 4.388
Radial Grid Type                 RadialGrid  ... OptM3 with GC (2021)
Angular Grid (max. ang.)         AngularGrid ... 4 (Lebedev-302)
Angular grid pruning method      GridPruning ... 4 (adaptive)
Weight generation scheme         WeightScheme... mBecke (2022)
Basis function cutoff            BFCut       ... 1.0000e-11
Integration weight cutoff        WCut        ... 1.0000e-14
Partially contracted basis set               ... off
Rotationally invariant grid construction     ... off
Angular grids for H and He will be reduced by one unit
Diffuse basis detected: some atoms will have their outermost
                        angular grid increased by 1.
Steep s-basis detected: some atoms will have their radial
                        grid points doubled.

Total number of grid points                  ...   137687
Total number of batches                      ...     2158
Average number of points per batch           ...       63
Average number of grid points per atom       ...     8605
Initializing property integral containers    ... done (  0.2 sec)

SHARK setup successfully completed in   4.5 seconds

Maximum memory used throughout the entire STARTUP-calculation: 56.5 MB


           ************************************************************
           *        Program running with 12 parallel MPI-processes    *
           *              working on a common directory               *
           ************************************************************
-------------------------------------------------------------------------------
                                 ORCA GUESS
                   Start orbitals & Density for SCF / CASSCF
-------------------------------------------------------------------------------

------------
SCF SETTINGS
------------
Hamiltonian:
 Density Functional     Method          .... DFT(GTOs)
  Functional kind                       .... Exchange
  Functional name                       .... Re-regularized SCAN exchange by Furness et al
  Functional family                     .... MGGA
  Functional refs                              
    [ 0] J. W. Furness, A. D. Kaplan, J. Ning, J. P. Perdew, and J. Sun.,  J. Phys. Chem. Lett. 11, 8208-8215 (2020), doi: 10.1021/acs.jpclett.0c02405
    [ 1] J. W. Furness, A. D. Kaplan, J. Ning, J. P. Perdew, and J. Sun.,  J. Phys. Chem. Lett. 11, 9248-9248 (2020), doi: 10.1021/acs.jpclett.0c03077
  Functional external parameters        .... 6
    Parameter  0 _c1        =  6.670000e-01 : c1 parameter        
    Parameter  1 _c2        =  8.000000e-01 : c2 parameter        
    Parameter  2 _d         =  1.240000e+00 : d parameter         
    Parameter  3 _k1        =  6.500000e-02 : k1 parameter        
    Parameter  4 _eta       =  1.000000e-03 : eta parameter       
    Parameter  5 _dp2       =  3.610000e-01 : dp2 parameter       
  Functional kind                       .... Correlation
  Functional name                       .... Re-regularized SCAN correlation by Furness et al
  Functional family                     .... MGGA
  Functional refs                              
    [ 0] J. W. Furness, A. D. Kaplan, J. Ning, J. P. Perdew, and J. Sun.,  J. Phys. Chem. Lett. 11, 8208-8215 (2020), doi: 10.1021/acs.jpclett.0c02405
    [ 1] J. W. Furness, A. D. Kaplan, J. Ning, J. P. Perdew, and J. Sun.,  J. Phys. Chem. Lett. 11, 9248-9248 (2020), doi: 10.1021/acs.jpclett.0c03077
  Functional external parameters        .... 1
    Parameter  0 _eta       =  1.000000e-03 : Regularization parameter
 Gradients option       PostSCFGGA      .... off
   NL short-range parameter             .... 12.300000
 RI-approximation to the Coulomb term is turned on
   Number of AuxJ basis functions       .... 518


General Settings:
 Integral files         IntName         .... cs_rporg_140_red_freq_06
 Hartree-Fock type      HFTyp           .... RHF
 Total Charge           Charge          ....    0
 Multiplicity           Mult            ....    1
 Number of Electrons    NEL             ....   64
 Basis Dimension        Dim             ....  575
 Nuclear Repulsion      ENuc            ....    392.7780239427 Eh

Convergence Acceleration:
 AO-DIIS                CNVDIIS         .... on
   Start iteration      DIISMaxIt       ....     0
   Startup error        DIISStart       ....  0.200000
   # of expansion vecs  DIISMaxEq       ....     5
   Bias factor          DIISBfac        ....   1.050
   Max. coefficient     DIISMaxC        ....  10.000
 MO-DIIS                CNVKDIIS        .... off
 Trust-Rad. Augm. Hess. CNVTRAH         .... auto
   Auto Start mean grad. ratio tolernc. ....  1.125000
   Auto Start start iteration           ....    50
   Auto Start num. interpolation iter.  ....    10
   Max. Number of Micro iterations      ....    24
   Max. Number of Macro iterations      .... Maxiter - #DIIS iter
   Number of Davidson start vectors     ....     2
   Converg. threshold    (grad. norm)   ....   1.000e-05
   Grad. Scal. Fac. for Micro threshold ....   0.100
   Minimum threshold for Micro iter.    ....   1.000e-02
   NR start threshold (gradient norm)   ....   1.000e-04
   Initial trust radius                 ....   0.400
   Minimum AH scaling param. (alpha)    ....   1.000
   Maximum AH scaling param. (alpha)    .... 1000.000
   Quad. conv. algorithm                .... NR
   White noise on init. David. guess    .... on
   Maximum white noise                  ....   0.010
   Pseudo random numbers                .... off
   Inactive MOs                         .... canonical
   Orbital update algorithm             .... Taylor
   Preconditioner                       .... Diag
   Full preconditioner red. dimension   ....   250
 SOSCF                  CNVSOSCF        .... on
   Start iteration      SOSCFMaxIt      ....   150
   Startup grad/error   SOSCFStart      ....  0.001000
   Hessian update       SOSCFHessUp     .... L-BFGS
 Level Shifting         CNVShift        .... on
   Level shift para.    LevelShift      ....    0.2500
   Turn off err/grad.   ShiftErr        ....    0.0000
 Zerner damping         CNVZerner       .... off
 Static damping         CNVDamp         .... on
   Fraction old density DampFac         ....    0.8500
   Max. Damping (<1)    DampMax         ....    0.9800
   Min. Damping (>=0)   DampMin         ....    0.0000
   Turn off err/grad.   DampErr         ....    0.0300

SCF Procedure:
 Maximum # iterations   MaxIter         ....  1500
 SCF integral mode      SCFMode         .... Direct
   Integral package                     .... SHARK and LIBINT hybrid scheme
 Reset frequency        DirectResetFreq ....    20
 Integral Threshold     Thresh          ....  1.000e-12 Eh
 Primitive CutOff       TCut            ....  1.000e-13 Eh

Convergence Tolerance:
 Convergence Check Mode ConvCheckMode   .... Total+1el-Energy
 Convergence forced     ConvForced      .... 0
 Energy Change          TolE            ....  1.000e-08 Eh
 1-El. energy change                    ....  1.000e-05 Eh
 Orbital Gradient       TolG            ....  1.000e-05
 Orbital Rotation angle TolX            ....  1.000e-05
 DIIS Error             TolErr          ....  5.000e-07

------------------------------
INITIAL GUESS: MODEL POTENTIAL
------------------------------
Loading Hartree-Fock densities                     ... done
Calculating cut-offs                               ... done
Initializing the effective Hamiltonian             ... done
Setting up the integral package (SHARK)            ... done
Starting the Coulomb interaction                   ... done (   0.3 sec)
Making the grid                                    ... done (   0.3 sec)
Mapping shells                                     ... done
Starting the XC term evaluation                    ... done (   0.3 sec)
  promolecular density results
     # of electrons  =     63.993439747
     EX              =    -52.511437202
     EC              =     -2.120046704
     EX+EC           =    -54.631483906
Transforming the Hamiltonian                       ... done (   0.1 sec)
Diagonalizing the Hamiltonian                      ... done (   0.1 sec)
Back transforming the eigenvectors                 ... done (   0.1 sec)
Now organizing SCF variables                       ... done
                      ------------------
                      INITIAL GUESS DONE (   2.2 sec)
                      ------------------
             **** ENERGY FILE WAS UPDATED (cs_rporg_140_red_freq_06.en.tmp) ****
Finished Guess after   3.5 sec
Maximum memory used throughout the entire GUESS-calculation: 39.3 MB


           ************************************************************
           *        Program running with 12 parallel MPI-processes    *
           *              working on a common directory               *
           ************************************************************

-------------------------------------------------------------------------------------------
                                      ORCA LEAN-SCF
                              memory conserving SCF solver
-------------------------------------------------------------------------------------------

--------------------
CPCM SOLVATION MODEL
--------------------
CPCM parameters:
  Epsilon                                         ...      35.6880
  Refrac                                          ...       1.3442
  Rsolv                                           ...       2.1900
  Surface type                                    ...    GEPOL SES
  Discretization scheme                           ... Constant num. charges
  Epsilon function type                           ...         CPCM
Solvent:                                          ... ACETONITRILE
SMD-CDS solvent descriptors:
  Soln                                            ...       1.3442
  Soln25                                          ...       1.3416
  Sola                                            ...       0.0700
  Solb                                            ...       0.3200
  Solg                                            ...      41.2500
  Solc                                            ...       0.0000
  Solh                                            ...       0.0000
Radii:
  Scheme                                          ... Element-dependent radii
  Radius for C  used is    3.4960 Bohr (=   1.8500 Ang.)
  Radius for N  used is    3.5716 Bohr (=   1.8900 Ang.)
  Radius for O  used is    4.0969 Bohr (=   2.1680 Ang.)
  Radius for H  used is    2.2677 Bohr (=   1.2000 Ang.)
Calculating surface                               ...        done! (  0.0s)
Cavity surface points                             ...          500
Cavity Volume                                     ...    1004.7521
Cavity Surface-area                               ...     583.7832
Calculating surface distance matrix               ...        done! (  0.0s)
Performing Cholesky decomposition & store         ...        done! (  0.0s)
Overall time for CPCM initialization              ...                 0.1s

----------------------------------------D-I-I-S--------------------------------------------
Iteration    Energy (Eh)           Delta-E    RMSDP     MaxDP     DIISErr   Damp  Time(sec)
-------------------------------------------------------------------------------------------
               ***  Starting incremental Fock matrix formation  ***
    1    -400.6455212667972887     0.00e+00  8.96e-04  4.19e-02  1.78e-01  0.850   5.0
    2    -400.6873540439453905    -4.18e-02  8.37e-04  3.45e-02  1.28e-01  0.850   5.5
                               ***Turning on AO-DIIS***
    3    -400.7161196672586243    -2.88e-02  6.71e-04  2.84e-02  8.39e-02  0.850   6.0
    4    -400.7350759308395141    -1.90e-02  5.55e-04  2.34e-02  7.03e-02  0.850   5.2
    5    -400.7489520788071218    -1.39e-02  4.64e-04  1.97e-02  6.06e-02  0.850   5.1
    6    -400.7598904964411872    -1.09e-02  3.90e-04  1.66e-02  5.14e-02  0.850   5.2
    7    -400.7688273422233465    -8.94e-03  3.30e-04  1.41e-02  4.23e-02  0.850   5.9
    8    -400.7761881959540347    -7.36e-03  2.79e-04  1.21e-02  3.45e-02  0.850   5.2
    9    -400.7822381709981414    -6.05e-03  2.37e-04  1.05e-02  2.92e-02  0.850   5.0
   10    -400.7872318377081342    -4.99e-03  1.34e-03  6.02e-02  2.51e-02  0.000   5.1
   11    -400.8132700481812094    -2.60e-02  4.44e-05  2.48e-03  1.66e-03  0.000   6.0
   12    -400.8132883745988124    -1.83e-05  1.31e-05  1.02e-03  1.22e-03  0.000   5.9
                              *** Initializing SOSCF ***
---------------------------------------S-O-S-C-F--------------------------------------
Iteration    Energy (Eh)           Delta-E    RMSDP     MaxDP     MaxGrad    Time(sec)
--------------------------------------------------------------------------------------
   13    -400.8132909548283465    -2.58e-06  8.56e-06  7.10e-04  3.34e-04     5.9
               *** Restarting incremental Fock matrix formation ***
   14    -400.8132911443007629    -1.89e-07  3.91e-06  2.31e-04  2.14e-05     4.7
   15    -400.8132911246980825     1.96e-08  1.50e-06  1.02e-04  5.71e-05     4.1
   16    -400.8132911870482644    -6.24e-08  1.24e-06  7.78e-05  6.77e-06     4.0
   17    -400.8132911741202520     1.29e-08  5.71e-07  4.61e-05  1.48e-05     4.5
   18    -400.8132911906457707    -1.65e-08  1.58e-06  1.30e-04  2.88e-06     4.1
   19    -400.8132911912745726    -6.29e-10  5.92e-07  4.26e-05  4.02e-06     4.2
                 **** Energy Check signals convergence ****

               *****************************************************
               *                     SUCCESS                       *
               *           SCF CONVERGED AFTER  19 CYCLES          *
               *****************************************************


SMD CDS free energy correction energy :                -1.32673     Kcal/mol
Total Energy after SMD CDS correction =              -400.815405466 Eh
             **** ENERGY FILE WAS UPDATED (cs_rporg_140_red_freq_06.en.tmp) ****

----------------
TOTAL SCF ENERGY
----------------

Total Energy       :       -400.81540546571443 Eh          -10906.74167 eV

Components:
Nuclear Repulsion  :        392.77802394266047 Eh           10688.03340 eV
Electronic Energy  :       -793.57898197790519 Eh          -21594.38194 eV
One Electron Energy:      -1321.17902872087257 Eh          -35951.10909 eV
Two Electron Energy:        527.60004674296738 Eh           14356.72715 eV
CPCM Dielectric    :         -0.01233315602987 Eh              -0.33560 eV
SMD CDS (Gcds)     :         -0.00211427443989 Eh              -0.05753 eV

Virial components:
Potential Energy   :       -799.50636338704680 Eh          -21755.67418 eV
Kinetic Energy     :        398.69095792133243 Eh           10848.93251 eV
Virial Ratio       :          2.00532855712469

DFT components:
N(Alpha)           :       31.999979108400 electrons
N(Beta)            :       31.999979108400 electrons
N(Total)           :       63.999958216800 electrons
E(X)               :      -53.785819800541 Eh       
E(C)               :       -2.077062054548 Eh       
E(XC)              :      -55.862881855089 Eh       

CPCM Solvation Model Properties:
Surface-charge          :         -0.03377348607326
Corrected charge        :          0.00000000000000
Outlying charge corr.   :          0.00008206286657 Eh               0.00223 eV
Free-energy (cav+disp)  :         -0.00211427443989 Eh              -0.05753 eV

---------------
SCF CONVERGENCE
---------------

  Last Energy change         ...    6.2880e-10  Tolerance :   1.0000e-08
  Last MAX-Density change    ...    4.2608e-05  Tolerance :   1.0000e-07
  Last RMS-Density change    ...    5.9174e-07  Tolerance :   5.0000e-09
  Last DIIS Error            ...    3.3406e-04  Tolerance :   5.0000e-07
  Last Orbital Gradient      ...    4.0232e-06  Tolerance :   1.0000e-05
  Last Orbital Rotation      ...    6.6224e-06  Tolerance :   1.0000e-05


----------------
ORBITAL ENERGIES
----------------

  NO   OCC          E(Eh)            E(eV) 
   0   2.0000     -19.003859      -517.1213 
   1   2.0000     -14.218908      -386.9162 
   2   2.0000     -10.073985      -274.1271 
   3   2.0000     -10.058612      -273.7087 
   4   2.0000     -10.044771      -273.3321 
   5   2.0000     -10.043242      -273.2905 
   6   2.0000     -10.042611      -273.2733 
   7   2.0000     -10.042173      -273.2614 
   8   2.0000     -10.041872      -273.2532 
   9   2.0000      -1.051812       -28.6213 
  10   2.0000      -0.851233       -23.1632 
  11   2.0000      -0.817660       -22.2497 
  12   2.0000      -0.726364       -19.7654 
  13   2.0000      -0.718957       -19.5638 
  14   2.0000      -0.610272       -16.6064 
  15   2.0000      -0.579898       -15.7798 
  16   2.0000      -0.537550       -14.6275 
  17   2.0000      -0.500624       -13.6227 
  18   2.0000      -0.481495       -13.1021 
  19   2.0000      -0.438412       -11.9298 
  20   2.0000      -0.424749       -11.5580 
  21   2.0000      -0.405192       -11.0258 
  22   2.0000      -0.393844       -10.7170 
  23   2.0000      -0.390686       -10.6311 
  24   2.0000      -0.381718       -10.3871 
  25   2.0000      -0.353824        -9.6280 
  26   2.0000      -0.320498        -8.7212 
  27   2.0000      -0.312586        -8.5059 
  28   2.0000      -0.278628        -7.5819 
  29   2.0000      -0.259113        -7.0508 
  30   2.0000      -0.245123        -6.6701 
  31   2.0000      -0.215733        -5.8704 
  32   0.0000      -0.079269        -2.1570 
  33   0.0000      -0.040224        -1.0946 
  34   0.0000       0.007180         0.1954 
  35   0.0000       0.008127         0.2211 
  36   0.0000       0.013919         0.3788 
  37   0.0000       0.024309         0.6615 
  38   0.0000       0.034058         0.9268 
  39   0.0000       0.041067         1.1175 
  40   0.0000       0.046207         1.2574 
  41   0.0000       0.049659         1.3513 
  42   0.0000       0.055320         1.5053 
*Only the first 10 virtual orbitals were printed.

                    ********************************
                    * MULLIKEN POPULATION ANALYSIS *
                    ********************************

-----------------------
MULLIKEN ATOMIC CHARGES
-----------------------
   0 C :   -1.017219
   1 C :   -0.550724
   2 C :   -0.166551
   3 C :   -0.687218
   4 C :   -0.719920
   5 C :    1.955195
   6 C :   -0.000886
   7 N :   -0.492226
   8 O :   -0.310739
   9 H :    0.175611
  10 H :    0.431104
  11 H :   -0.001544
  12 H :    0.516930
  13 H :    0.418081
  14 H :    0.506391
  15 H :   -0.056286
Sum of atomic charges:   -0.0000000

--------------------------------
MULLIKEN REDUCED ORBITAL CHARGES
--------------------------------
  0 C s       :     4.200300  s :     4.200300
      pz      :     0.947365  p :     2.762828
      px      :     0.827197
      py      :     0.988266
      dz2     :    -0.020017  d :     0.071876
      dxz     :     0.001295
      dyz     :     0.003220
      dx2y2   :    -0.019902
      dxy     :     0.107279
      f0      :     0.000587  f :    -0.017785
      f+1     :    -0.001141
      f-1     :    -0.000076
      f+2     :     0.000198
      f-2     :    -0.000118
      f+3     :     0.001218
      f-3     :    -0.018453

  1 C s       :     3.576345  s :     3.576345
      pz      :     0.955607  p :     2.874332
      px      :     1.026092
      py      :     0.892632
      dz2     :     0.003474  d :     0.108393
      dxz     :     0.021077
      dyz     :     0.018685
      dx2y2   :    -0.031897
      dxy     :     0.097054
      f0      :     0.000402  f :    -0.008346
      f+1     :     0.000696
      f-1     :    -0.000037
      f+2     :     0.000068
      f-2     :     0.000497
      f+3     :     0.000508
      f-3     :    -0.010479

  2 C s       :     3.597657  s :     3.597657
      pz      :     0.936626  p :     2.711018
      px      :     0.926164
      py      :     0.848228
      dz2     :    -0.022063  d :    -0.137593
      dxz     :     0.002939
      dyz     :     0.028258
      dx2y2   :    -0.118763
      dxy     :    -0.027965
      f0      :     0.000130  f :    -0.004531
      f+1     :     0.000160
      f-1     :     0.000280
      f+2     :     0.000804
      f-2     :    -0.000098
      f+3     :    -0.001179
      f-3     :    -0.004629

  3 C s       :     3.708398  s :     3.708398
      pz      :     0.952432  p :     2.861258
      px      :     1.020097
      py      :     0.888728
      dz2     :     0.004788  d :     0.127096
      dxz     :     0.019642
      dyz     :     0.017166
      dx2y2   :    -0.001431
      dxy     :     0.086930
      f0      :     0.000413  f :    -0.009533
      f+1     :     0.000180
      f-1     :    -0.000016
      f+2     :     0.000792
      f-2     :     0.000074
      f+3     :    -0.003910
      f-3     :    -0.007067

  4 C s       :     4.065709  s :     4.065709
      pz      :     0.943542  p :     2.616840
      px      :     0.730359
      py      :     0.942940
      dz2     :    -0.019760  d :     0.059641
      dxz     :     0.012874
      dyz     :    -0.002162
      dx2y2   :    -0.109241
      dxy     :     0.177929
      f0      :     0.000082  f :    -0.022271
      f+1     :     0.000282
      f-1     :    -0.000385
      f+2     :     0.000207
      f-2     :    -0.000382
      f+3     :    -0.007336
      f-3     :    -0.014739

  5 C s       :     2.656916  s :     2.656916
      pz      :     0.986261  p :     1.660686
      px      :     0.173729
      py      :     0.500696
      dz2     :    -0.024840  d :    -0.165639
      dxz     :     0.028401
      dyz     :    -0.012616
      dx2y2   :    -0.132027
      dxy     :    -0.024557
      f0      :     0.001113  f :    -0.107158
      f+1     :    -0.006497
      f-1     :    -0.001044
      f+2     :    -0.001712
      f-2     :    -0.002042
      f+3     :    -0.043282
      f-3     :    -0.053694

  6 C s       :     3.777068  s :     3.777068
      pz      :     0.820191  p :     2.260185
      px      :     0.571232
      py      :     0.868762
      dz2     :     0.008069  d :    -0.023689
      dxz     :     0.032406
      dyz     :     0.000456
      dx2y2   :    -0.005830
      dxy     :    -0.058789
      f0      :     0.000465  f :    -0.012678
      f+1     :    -0.001265
      f-1     :     0.000802
      f+2     :     0.001340
      f-2     :     0.000917
      f+3     :    -0.009076
      f-3     :    -0.005862

  7 N s       :     4.083404  s :     4.083404
      pz      :     1.207435  p :     3.282853
      px      :     0.728587
      py      :     1.346831
      dz2     :    -0.002214  d :     0.115947
      dxz     :     0.037096
      dyz     :     0.013155
      dx2y2   :     0.048286
      dxy     :     0.019625
      f0      :     0.001489  f :     0.010021
      f+1     :    -0.000185
      f-1     :    -0.000047
      f+2     :     0.000606
      f-2     :     0.005134
      f+3     :     0.000835
      f-3     :     0.002189

  8 O s       :     3.915602  s :     3.915602
      pz      :     1.825227  p :     4.357033
      px      :     1.138849
      py      :     1.392957
      dz2     :     0.000012  d :     0.033561
      dxz     :     0.011206
      dyz     :     0.003011
      dx2y2   :     0.015157
      dxy     :     0.004175
      f0      :     0.000840  f :     0.004543
      f+1     :     0.000360
      f-1     :     0.000129
      f+2     :     0.000398
      f-2     :     0.000625
      f+3     :     0.001682
      f-3     :     0.000508

  9 H s       :     0.709532  s :     0.709532
      pz      :     0.043499  p :     0.090285
      px      :     0.034187
      py      :     0.012598
      dz2     :     0.000986  d :     0.024572
      dxz     :     0.004123
      dyz     :     0.007182
      dx2y2   :     0.010600
      dxy     :     0.001681

 10 H s       :     0.633253  s :     0.633253
      pz      :     0.001826  p :    -0.065659
      px      :    -0.009894
      py      :    -0.057591
      dz2     :    -0.001457  d :     0.001302
      dxz     :     0.001051
      dyz     :     0.002944
      dx2y2   :    -0.003200
      dxy     :     0.001963

 11 H s       :     0.949352  s :     0.949352
      pz      :     0.015246  p :     0.043505
      px      :     0.010070
      py      :     0.018189
      dz2     :    -0.000016  d :     0.008687
      dxz     :     0.002101
      dyz     :     0.003028
      dx2y2   :     0.002222
      dxy     :     0.001351

 12 H s       :     0.469561  s :     0.469561
      pz      :     0.019982  p :     0.004439
      px      :    -0.006610
      py      :    -0.008934
      dz2     :    -0.000121  d :     0.009070
      dxz     :     0.000420
      dyz     :     0.005108
      dx2y2   :     0.000684
      dxy     :     0.002979

 13 H s       :     0.578887  s :     0.578887
      pz      :     0.016372  p :    -0.005950
      px      :    -0.018755
      py      :    -0.003567
      dz2     :    -0.000294  d :     0.008981
      dxz     :     0.005431
      dyz     :    -0.000219
      dx2y2   :     0.001914
      dxy     :     0.002148

 14 H s       :     0.488710  s :     0.488710
      pz      :     0.019599  p :    -0.003704
      px      :    -0.013412
      py      :    -0.009891
      dz2     :    -0.000223  d :     0.008602
      dxz     :     0.002045
      dyz     :     0.003332
      dx2y2   :     0.001966
      dxy     :     0.001483

 15 H s       :     1.005437  s :     1.005437
      pz      :     0.017765  p :     0.042117
      px      :    -0.026613
      py      :     0.050966
      dz2     :    -0.000158  d :     0.008732
      dxz     :     0.000483
      dyz     :     0.005055
      dx2y2   :     0.002716
      dxy     :     0.000635



                     *******************************
                     * LOEWDIN POPULATION ANALYSIS *
                     *******************************

----------------------
LOEWDIN ATOMIC CHARGES
----------------------
   0 C :    0.201675
   1 C :    0.200792
   2 C :    0.197725
   3 C :    0.198971
   4 C :    0.196730
   5 C :   -0.177852
   6 C :   -0.027387
   7 N :    0.139403
   8 O :    0.668355
   9 H :   -0.519213
  10 H :   -0.184512
  11 H :   -0.190458
  12 H :   -0.176736
  13 H :   -0.177576
  14 H :   -0.176608
  15 H :   -0.173310

-------------------------------
LOEWDIN REDUCED ORBITAL CHARGES
-------------------------------
  0 C s       :     2.482858  s :     2.482858
      pz      :     0.593107  p :     2.269511
      px      :     0.851043
      py      :     0.825361
      dz2     :     0.069439  d :     0.702355
      dxz     :     0.119480
      dyz     :     0.047893
      dx2y2   :     0.246052
      dxy     :     0.219492
      f0      :     0.020413  f :     0.343601
      f+1     :     0.030607
      f-1     :     0.020938
      f+2     :     0.031610
      f-2     :     0.041635
      f+3     :     0.080780
      f-3     :     0.117618

  1 C s       :     2.491117  s :     2.491117
      pz      :     0.598826  p :     2.284002
      px      :     0.842609
      py      :     0.842567
      dz2     :     0.067306  d :     0.689789
      dxz     :     0.085808
      dyz     :     0.072870
      dx2y2   :     0.176596
      dxy     :     0.287209
      f0      :     0.019248  f :     0.334300
      f+1     :     0.026305
      f-1     :     0.024359
      f+2     :     0.056453
      f-2     :     0.013005
      f+3     :     0.076700
      f-3     :     0.118230

  2 C s       :     2.492821  s :     2.492821
      pz      :     0.595564  p :     2.282554
      px      :     0.833525
      py      :     0.853465
      dz2     :     0.067504  d :     0.692613
      dxz     :     0.041540
      dyz     :     0.118201
      dx2y2   :     0.278038
      dxy     :     0.187330
      f0      :     0.019411  f :     0.334288
      f+1     :     0.020131
      f-1     :     0.030431
      f+2     :     0.016489
      f-2     :     0.053360
      f+3     :     0.076225
      f-3     :     0.118241

  3 C s       :     2.491144  s :     2.491144
      pz      :     0.597080  p :     2.282626
      px      :     0.851262
      py      :     0.834284
      dz2     :     0.067488  d :     0.692036
      dxz     :     0.110462
      dyz     :     0.048787
      dx2y2   :     0.240893
      dxy     :     0.224407
      f0      :     0.019201  f :     0.335222
      f+1     :     0.029713
      f-1     :     0.021058
      f+2     :     0.031531
      f-2     :     0.038108
      f+3     :     0.076815
      f-3     :     0.118796

  4 C s       :     2.483394  s :     2.483394
      pz      :     0.593562  p :     2.276930
      px      :     0.851541
      py      :     0.831827
      dz2     :     0.069309  d :     0.701610
      dxz     :     0.093043
      dyz     :     0.072927
      dx2y2   :     0.191523
      dxy     :     0.274808
      f0      :     0.020549  f :     0.341336
      f+1     :     0.027340
      f-1     :     0.023998
      f+2     :     0.057236
      f-2     :     0.016899
      f+3     :     0.078557
      f-3     :     0.116758

  5 C s       :     2.470921  s :     2.470921
      pz      :     0.614930  p :     2.283505
      px      :     0.818572
      py      :     0.850003
      dz2     :     0.090277  d :     0.922978
      dxz     :     0.134009
      dyz     :     0.120466
      dx2y2   :     0.303659
      dxy     :     0.274568
      f0      :     0.029934  f :     0.500448
      f+1     :     0.035579
      f-1     :     0.034135
      f+2     :     0.052946
      f-2     :     0.055391
      f+3     :     0.113764
      f-3     :     0.178699

  6 C s       :     2.513299  s :     2.513299
      pz      :     0.601670  p :     2.279230
      px      :     0.834639
      py      :     0.842920
      dz2     :     0.082072  d :     0.817857
      dxz     :     0.151540
      dyz     :     0.046512
      dx2y2   :     0.281519
      dxy     :     0.256213
      f0      :     0.028788  f :     0.417002
      f+1     :     0.037990
      f-1     :     0.024144
      f+2     :     0.032571
      f-2     :     0.050665
      f+3     :     0.137582
      f-3     :     0.105262

  7 N s       :     2.861959  s :     2.861959
      pz      :     0.893522  p :     2.972969
      px      :     0.858993
      py      :     1.220455
      dz2     :     0.070296  d :     0.703118
      dxz     :     0.167307
      dyz     :     0.019672
      dx2y2   :     0.229097
      dxy     :     0.216747
      f0      :     0.021817  f :     0.322551
      f+1     :     0.028287
      f-1     :     0.014383
      f+2     :     0.023046
      f-2     :     0.052963
      f+3     :     0.089170
      f-3     :     0.092885

  8 O s       :     3.058728  s :     3.058728
      pz      :     1.421146  p :     3.827699
      px      :     1.076544
      py      :     1.330008
      dz2     :     0.036037  d :     0.342450
      dxz     :     0.070445
      dyz     :     0.006780
      dx2y2   :     0.077614
      dxy     :     0.151574
      f0      :     0.009928  f :     0.102768
      f+1     :     0.010393
      f-1     :     0.004256
      f+2     :     0.010486
      f-2     :     0.006680
      f+3     :     0.038106
      f-3     :     0.022920

  9 H s       :     0.597879  s :     0.597879
      pz      :     0.156443  p :     0.539359
      px      :     0.158114
      py      :     0.224802
      dz2     :     0.037768  d :     0.381975
      dxz     :     0.043770
      dyz     :     0.080041
      dx2y2   :     0.134588
      dxy     :     0.085808

 10 H s       :     0.655050  s :     0.655050
      pz      :     0.067031  p :     0.302207
      px      :     0.091210
      py      :     0.143967
      dz2     :     0.027009  d :     0.227254
      dxz     :     0.008116
      dyz     :     0.057139
      dx2y2   :     0.061547
      dxy     :     0.073444

 11 H s       :     0.652543  s :     0.652543
      pz      :     0.078600  p :     0.314480
      px      :     0.120318
      py      :     0.115562
      dz2     :     0.025330  d :     0.223435
      dxz     :     0.029052
      dyz     :     0.035240
      dx2y2   :     0.083326
      dxy     :     0.050487

 12 H s       :     0.661921  s :     0.661921
      pz      :     0.081166  p :     0.300854
      px      :     0.085636
      py      :     0.134052
      dz2     :     0.022798  d :     0.213961
      dxz     :     0.010514
      dyz     :     0.052781
      dx2y2   :     0.060779
      dxy     :     0.067089

 13 H s       :     0.663392  s :     0.663392
      pz      :     0.081439  p :     0.301261
      px      :     0.139696
      py      :     0.080126
      dz2     :     0.022697  d :     0.212923
      dxz     :     0.057654
      dyz     :     0.005063
      dx2y2   :     0.049415
      dxy     :     0.078095

 14 H s       :     0.662007  s :     0.662007
      pz      :     0.081543  p :     0.300790
      px      :     0.103468
      py      :     0.115779
      dz2     :     0.022742  d :     0.213811
      dxz     :     0.026525
      dyz     :     0.036929
      dx2y2   :     0.081195
      dxy     :     0.046420

 15 H s       :     0.648927  s :     0.648927
      pz      :     0.079836  p :     0.305322
      px      :     0.093165
      py      :     0.132320
      dz2     :     0.024098  d :     0.219061
      dxz     :     0.010647
      dyz     :     0.052975
      dx2y2   :     0.063581
      dxy     :     0.067760



                      *****************************
                      * MAYER POPULATION ANALYSIS *
                      *****************************

  NA   - Mulliken gross atomic population
  ZA   - Total nuclear charge
  QA   - Mulliken gross atomic charge
  VA   - Mayer's total valence
  BVA  - Mayer's bonded valence
  FA   - Mayer's free valence

  ATOM       NA         ZA         QA         VA         BVA        FA
  0 C      7.0172     6.0000    -1.0172     2.4020     2.4020    -0.0000
  1 C      6.5507     6.0000    -0.5507     2.7379     2.7379    -0.0000
  2 C      6.1666     6.0000    -0.1666     2.7445     2.7445     0.0000
  3 C      6.6872     6.0000    -0.6872     2.6605     2.6605    -0.0000
  4 C      6.7199     6.0000    -0.7199     2.4978     2.4978     0.0000
  5 C      4.0448     6.0000     1.9552    -0.0556    -0.0556     0.0000
  6 C      6.0009     6.0000    -0.0009     2.0814     2.0814    -0.0000
  7 N      7.4922     7.0000    -0.4922     1.7809     1.7809     0.0000
  8 O      8.3107     8.0000    -0.3107     1.7863     1.7863    -0.0000
  9 H      0.8244     1.0000     0.1756     1.0282     1.0282     0.0000
 10 H      0.5689     1.0000     0.4311     0.5163     0.5163    -0.0000
 11 H      1.0015     1.0000    -0.0015     1.1986     1.1986     0.0000
 12 H      0.4831     1.0000     0.5169     0.5864     0.5864     0.0000
 13 H      0.5819     1.0000     0.4181     0.7152     0.7152     0.0000
 14 H      0.4936     1.0000     0.5064     0.5733     0.5733     0.0000
 15 H      1.0563     1.0000    -0.0563     1.2437     1.2437     0.0000

  Mayer bond orders larger than 0.100000
B(  0-C ,  1-C ) :   1.0727 B(  0-C ,  2-C ) :  -0.1272 B(  0-C ,  4-C ) :  -0.4583 
B(  0-C ,  6-C ) :   0.1099 B(  0-C , 11-H ) :   0.1431 B(  0-C , 13-H ) :   0.1015 
B(  0-C , 14-H ) :  -0.1955 B(  0-C , 15-H ) :   1.7704 B(  1-C ,  2-C ) :   1.1374 
B(  1-C ,  3-C ) :   0.1252 B(  1-C ,  5-C ) :   0.1065 B(  1-C , 11-H ) :  -0.1085 
B(  1-C , 14-H ) :   0.5531 B(  1-C , 15-H ) :  -0.1627 B(  2-C ,  3-C ) :   1.0761 
B(  2-C ,  4-C ) :  -0.1392 B(  2-C ,  5-C ) :  -0.1502 B(  2-C ,  6-C ) :   0.1321 
B(  2-C , 13-H ) :   0.6927 B(  3-C ,  4-C ) :   1.0890 B(  3-C ,  5-C ) :   0.1297 
B(  3-C , 12-H ) :   0.5130 B(  3-C , 15-H ) :  -0.1155 B(  4-C ,  5-C ) :   0.3140 
B(  4-C ,  6-C ) :   0.2313 B(  4-C , 11-H ) :   1.3562 B(  4-C , 12-H ) :  -0.1188 
B(  4-C , 15-H ) :   0.1423 B(  5-C ,  7-N ) :  -0.1024 B(  5-C , 11-H ) :  -0.2064 
B(  5-C , 14-H ) :   0.1314 B(  5-C , 15-H ) :  -0.2995 B(  6-C ,  7-N ) :   1.0363 
B(  6-C , 10-H ) :   0.5871 B(  6-C , 15-H ) :  -0.1284 B(  7-N ,  8-O ) :   0.6902 
B(  7-N , 11-H ) :   0.1052 B(  8-O ,  9-H ) :   0.9997 B( 11-H , 15-H ) :   0.1808 


-------
TIMINGS
-------

Total SCF time: 0 days 0 hours 1 min 42 sec 

Total time                  ....     102.099 sec
Sum of individual times     ....      99.708 sec  ( 97.7%)

SCF preparation             ....       2.845 sec  (  2.8%)
Fock matrix formation       ....      67.576 sec  ( 66.2%)
  Startup                   ....       3.953 sec  (  5.8% of F)
  Split-RI-J                ....      13.379 sec  ( 19.8% of F)
  XC integration            ....      38.505 sec  ( 57.0% of F)
    XC Preparation          ....       0.000 sec  (  0.0% of XC)
    Basis function eval.    ....       2.787 sec  (  7.2% of XC)
    Density eval.           ....      11.373 sec  ( 29.5% of XC)
    XC-Functional eval.     ....       0.543 sec  (  1.4% of XC)
    XC-Potential eval.      ....      15.382 sec  ( 39.9% of XC)
  CPCM terms                ....       4.930 sec  (  7.3% of F)
Diagonalization             ....       0.000 sec  (  0.0%)
Density matrix formation    ....       7.725 sec  (  7.6%)
Total Energy calculation    ....       4.057 sec  (  4.0%)
Population analysis         ....       0.784 sec  (  0.8%)
Orbital Transformation      ....       1.013 sec  (  1.0%)
Orbital Orthonormalization  ....       0.000 sec  (  0.0%)
DIIS solution               ....      12.795 sec  ( 12.5%)
SOSCF solution              ....       2.912 sec  (  2.9%)
Finished LeanSCF after 102.6 sec

Maximum memory used throughout the entire LEANSCF-calculation: 54.3 MB


           ************************************************************
           *        Program running with 12 parallel MPI-processes    *
           *              working on a common directory               *
           ************************************************************

------------------------------------------------------------------------------
                         ORCA PROPERTY INTEGRAL CALCULATIONS
------------------------------------------------------------------------------

GBWName                                   ... cs_rporg_140_red_freq_06.gbw
Number of atoms                           ...     16
Number of basis functions                 ...    629
Max core memory                           ...   5000 MB

Dipole integrals                          ... YES
Quadrupole integrals                      ...  NO
Linear momentum integrals                 ...  NO
Angular momentum integrals                ...  NO
Higher moments length integrals           ...  NO
Higher moments velocity integrals         ...  NO
Kinetic energy integrals                  ...  NO
GIAO right hand sides                     ...  NO
GIAO dipole derivative integrals          ...  NO
SOC integrals                             ...  NO
EPR diamagnetic integrals (GIAO)          ...  NO
EPR gauge integrals                       ...  NO
Field gradient integrals                  ...  NO (   0 nuclei)
Spin-dipole/Fermi contact integrals       ...  NO (   0 nuclei)
Contact density integrals                 ...  NO (   0 nuclei)
Nucleus-orbit integrals                   ...  NO (   0 nuclei)
Geometric perturbations                   ... YES (  16 nuclei)

Choice of electric origin   ... Center of mass
Position of electric origin ... ( -0.0000,  0.0037, -0.0002) 
Choice of magnetic origin   ... GIAO
Position of magnetic origin ... (  0.0000,  0.0000,  0.0000) 

Calculating integrals                     ... Electric Dipole (Length)     done (  0.1 sec)
Calculating integrals                     ... Geometrical perturbation right hand sides

-----------------------
GEOMETRIC PERTURBATIONS (16 nuclei)
-----------------------

MaxCore                            ...   5000 MB
Number of batches                  ...      1

BATCH   0: Atoms    0 -   15 ( 48 perturbations)
   => H(core) and overlap derivative integrals     ... done (     0.9 sec)
   => Making and storing internal U-coefficients   ... done (     0.2 sec)
   => RI-J derivative integrals                    ... done (    11.5 sec)
   => RI-J response operators                      ... done (     2.7 sec)
   => XC derivative integrals                      ... done (   300.2 sec)
   => XC response operators                        ... done (    77.7 sec)
   => CPCM derivative integrals                    ... done (     6.6 sec)
   => CPCM response operators                      ... done (    10.9 sec)
   => Completing and storing right hand sides      ... done (     0.1 sec)
   => Total time for right hand sides = 409.4 sec

  geometrical perturbations done (409.7 sec)

Property integrals calculated in 409.9 sec

Maximum memory used throughout the entire PROPINT-calculation: 533.9 MB


-------------------------------------------------------------------------------
                          DFT DISPERSION CORRECTION                            
                                                                               
                              DFTD3 V3.1  Rev 1                                
                          USING Becke-Johnson damping                          
-------------------------------------------------------------------------------
The R2SCAN functional is recognized
Active option DFTDOPT                   ...         4   

molecular C6(AA) [au] = 3023.685315 


            DFT-D V3
 parameters
 s6 scaling factor         :     1.0000 
 a1 scaling factor         :     0.4948 
 s8 scaling factor         :     0.7898 
 a2 scaling factor         :     5.7308 
 ad hoc parameters k1-k3   :    16.0000     1.3333    -4.0000 

 Edisp/kcal,au: -2.940779269352  -0.004686429572 
 E6   /kcal   :  -2.300433703 
 E8   /kcal   :  -0.640345567 
 % E8         :  21.774689906 

-------------------------   ----------------
Dispersion correction           -0.004686430
-------------------------   ----------------


-------------------------   --------------------
FINAL SINGLE POINT ENERGY      -400.820091895286
-------------------------   --------------------



           ************************************************************
           *        Program running with 12 parallel MPI-processes    *
           *              working on a common directory               *
           ************************************************************
------------------------------------------------------------------------------
                            ORCA SCF RESPONSE CALCULATION
------------------------------------------------------------------------------

GBWName                                 ... cs_rporg_140_red_freq_06.gbw
Number of atoms                         ...     16
Number of basis functions               ...    629
Max core memory                         ...   5000 MB

Electric field perturbation             ...  NO
Quadrupolar field perturbation          ...  NO
Magnetic field perturbation (no GIAO)   ...  NO
Magnetic field perturbation (with GIAO) ...  NO
Linear momentum (velocity) perturbation ...  NO
Spin-orbit coupling perturbation        ...  NO
Choice of electric origin               ... Center of mass
Position of electric origin             ...    -0.000024     0.003722    -0.000241
Choice of magnetic origin               ... GIAO
Position of magnetic origin             ...     0.000000     0.000000     0.000000
Nuclear geometric perturbations         ... YES (  48 perturbations)
Nucleus-orbit perturbations             ...  NO (   0 perturbations)
Spin-dipole/Fermi contact perturbations ...  NO (   0 perturbations)

Total number of real perturbations      ...     48
Total number of imaginary perturbations ...      0
Total number of triplet perturbations   ...      0
Total number of SOC perturbations       ...      0

Using XC Grid                  ... (cs_rporg_140_red_freq_06.grid_cpscf.tmp) 
Recalculating density on grid  ... (cs_rporg_140_red_freq_06.grho_cpscf0.tmp) done
Calculating the xc-kernel      ... (cs_rporg_140_red_freq_06.fxc_cpscf0.tmp) done

                                **********************
                                * REAL PERTURBATIONS *
                                **********************



-------------------
SHARK CP-SCF DRIVER
-------------------

Dimension of the orbital basis          ...    575
Dimension of the CPSCF-problem          ...  17376
Number of operators                     ...      1
Max. number of iterations               ...    128
Max. DIIS space dimension               ...     20
Convergence Tolerance                   ... 1.0e-04
Number of perturbations                 ...     48
Perturbation type                       ... REAL

--------------------
DIIS EQUATION SOLVER
--------------------

  ITERATION   0:   ||err||_max =   3.3772e-01 (  37.7 sec   0/ 48 done)
  ITERATION   1:   ||err||_max =   3.6577e-01 (  39.2 sec   0/ 48 done)
  ITERATION   2:   ||err||_max =   3.0055e-02 (  40.4 sec   0/ 48 done)
  ITERATION   3:   ||err||_max =   1.2767e-02 (  36.5 sec   0/ 48 done)
  ITERATION   4:   ||err||_max =   5.2598e-03 (  35.5 sec   0/ 48 done)
  ITERATION   5:   ||err||_max =   2.1418e-03 (  36.0 sec  10/ 48 done)
  ITERATION   6:   ||err||_max =   1.0087e-03 (  31.6 sec  17/ 48 done)
  ITERATION   7:   ||err||_max =   3.2435e-04 (  26.4 sec  22/ 48 done)
  ITERATION   8:   ||err||_max =   1.3093e-04 (  26.5 sec  41/ 48 done)
  ITERATION   9:   ||err||_max =   4.5069e-05 (   6.9 sec  48/ 48 done)

CP-SCF equations solved in 324.7 sec
Response densities calculated in   0.3 sec

Maximum memory used throughout the entire SCFRESP-calculation: 394.9 MB


           ************************************************************
           *        Program running with 12 parallel MPI-processes    *
           *              working on a common directory               *
           ************************************************************

------------------------------------------------------------------------------
                              ORCA PROPERTY CALCULATIONS
------------------------------------------------------------------------------

GBWName                                 ... cs_rporg_140_red_freq_06.gbw
Number of atoms                         ...     16
Number of basis functions               ...    629
Max core memory                         ...   5000 MB

Electric properties:
Dipole moment                           ... YES
Quadrupole moment                       ...  NO
Static polarizability (Dipole/Dipole)   ...  NO
Static polarizability (Dipole/Quad.)    ...  NO
Static polarizability (Quad./Quad.)     ...  NO
Static polarizability (Velocity)        ...  NO

Atomic electric properties:
Dipole moment                           ...  NO
Quadrupole moment                       ...  NO
Static polarizability                   ...  NO

Choice of electric origin               ... Center of mass
Position of electric origin             ...    -0.000024     0.003722    -0.000241

General magnetic properties:
Magnetizability                         ...  NO

EPR properties:
g-Tensor (aka g-matrix)                 ...  NO
Zero-Field splitting spin-orbit         ...  NO
Zero-field splitting spin-spin          ...  NO
Hyperfine couplings                     ...  NO (   0 nuclei)
Quadrupole couplings                    ...  NO (   0 nuclei)
Contact density                         ...  NO (   0 nuclei)

NMR properties:
Chemical shifts                         ...  NO (   0 nuclei)
Spin-rotation constants                 ...  NO (   0 nuclei)
Spin-spin couplings                     ...  NO (   0 nuclei,    0 pairs)

Choice of magnetic origin               ... GIAO
Position of magnetic origin             ...     0.000000     0.000000     0.000000

Properties with geometric perturbations:
SCF Hessian                             ... YES
IR spectrum                             ... YES
VCD spectrum                            ...  NO
X-ray spectroscopy properties:
SCF XES/XAS/RIXS spectra                ...  NO


-------------
DIPOLE MOMENT
-------------

Method             : SCF
Type of density    : Electron Density
Multiplicity       :   1
Irrep              :   0
Energy             :  -400.8154054657144343 Eh
Relativity type    : 
Basis              : AO
                                X                 Y                 Z
Electronic contribution:     -2.988703506       0.153208850      -0.000992239
Nuclear contribution   :      3.401340621      -0.272172150       0.001907427
                        -----------------------------------------
Total Dipole Moment    :      0.412637115      -0.118963300       0.000915188
                        -----------------------------------------
Magnitude (a.u.)       :      0.429444400
Magnitude (Debye)      :      1.091560918



--------------------
Rotational spectrum 
--------------------
 
Rotational constants in cm-1:             0.173860             0.029911             0.025521 
Rotational constants in MHz :          5212.203420           896.714049           765.087603 

Dipole components along the rotational axes: 
x,y,z [a.u.] :     0.411168     0.123947     0.000894 
x,y,z [Debye]:     1.045105     0.315048     0.002271 

 

Dipole moment calculation done in   0.2 sec 

-----------
SCF HESSIAN
-----------

Occupied/Occupied contributions to the Hessian:
   => Occupied/Occupied contributions              ... done (  2.0 sec)
Perturbed density contributions to the Hessian:
   => Perturbed density contributions              ... done (  0.1 sec)
Explicit contributions to the Hessian:
   => Nuclear repulsion Hessian                    ... done (  0.0 sec)
   => HCore and overlap Hessian                    ... done (  7.8 sec)
   => RI-J Hessian                                 ... done ( 18.6 sec)
   => XC-Hessian                                   ... done ( 48.5 sec)
   => CPCM-Hessian                                 ... done (  3.9 sec)
   => Van der Waals-Hessian                        ... done (  0.4 sec)
   => SMD-Hessian                                  ... done (  1.0 sec)
   => Explicit contributions done
Dipole derivatives                                 ... done (  0.2 sec)
Mass weighting the Hessian           ... done
Calculating normal modes             ... done
Scaling frequencies                  ... done

-----------------------
VIBRATIONAL FREQUENCIES
-----------------------

Scaling factor for frequencies =  1.000000000  (already applied!)

     0:       0.00 cm**-1
     1:       0.00 cm**-1
     2:       0.00 cm**-1
     3:       0.00 cm**-1
     4:       0.00 cm**-1
     5:       0.00 cm**-1
     6:      59.07 cm**-1
     7:     142.16 cm**-1
     8:     155.25 cm**-1
     9:     304.92 cm**-1
    10:     377.23 cm**-1
    11:     403.93 cm**-1
    12:     418.65 cm**-1
    13:     442.07 cm**-1
    14:     518.91 cm**-1
    15:     627.62 cm**-1
    16:     652.54 cm**-1
    17:     700.59 cm**-1
    18:     771.19 cm**-1
[...]
      4       0.032026   0.002682   0.034284  -0.039194   0.027858  -0.000044
      5       0.000019  -0.000003   0.000020  -0.000023   0.000019  -0.000001
      6       0.028223  -0.038742   0.042672   0.036110  -0.044161  -0.000089
      7       0.004953  -0.008073   0.004806   0.008978  -0.007270  -0.000024
      8      -0.000009   0.000017  -0.000019  -0.000013   0.000017  -0.000000
      9      -0.008507   0.020334   0.011907  -0.007017  -0.015524   0.000016
     10      -0.022586   0.053758   0.038108  -0.009107  -0.041823   0.000087
     11      -0.000006   0.000021   0.000014   0.000001  -0.000015   0.000001
     12      -0.004552   0.013150   0.017577   0.037265   0.034902  -0.000070
     13       0.007122  -0.017570  -0.024000  -0.044406  -0.039385  -0.000010
     14       0.000009  -0.000012  -0.000022  -0.000040  -0.000038   0.000000
     15      -0.001942  -0.001024   0.001681   0.000266   0.001414   0.000148
     16       0.000862   0.000980  -0.000502   0.002474   0.001287   0.000163
     17       0.000002  -0.000001  -0.000002   0.000002   0.000002  -0.000001
     18      -0.000513  -0.000184   0.000361   0.000165   0.000563  -0.000841
     19      -0.000788  -0.000674   0.000583  -0.000410   0.000400  -0.000464
     20       0.000001  -0.000001  -0.000002  -0.000000  -0.000000   0.000001
     21       0.000112   0.000042   0.000038   0.000117   0.000080  -0.000005
     22      -0.000024   0.000085   0.000066   0.000170   0.000201  -0.000249
     23      -0.000000   0.000002   0.000001   0.000002   0.000001   0.000002
     24       0.000029   0.000070  -0.000051   0.000017  -0.000092   0.037029
     25      -0.000022   0.000090   0.000013   0.000083  -0.000039  -0.051228
     26      -0.000001  -0.000001  -0.000001  -0.000001   0.000001   0.000085
     27       0.000148   0.000546  -0.000426   0.000179  -0.000801  -0.578105
     28       0.000071  -0.000671   0.000195  -0.000441   0.000674   0.813474
     29       0.000000   0.000003  -0.000001   0.000000  -0.000002  -0.001362
     30       0.005190   0.003012  -0.003596  -0.000909  -0.004325   0.001997
     31       0.011263   0.006485  -0.008165  -0.001185  -0.009276   0.007162
     32      -0.000019  -0.000013   0.000011   0.000003   0.000015  -0.000004
     33       0.063396  -0.170333  -0.222610  -0.423206  -0.378188   0.000217
     34      -0.078744   0.206311   0.272384   0.511210   0.454471   0.000153
     35      -0.000069   0.000195   0.000243   0.000444   0.000385  -0.000002
     36       0.097924  -0.232105  -0.154349   0.044615   0.166398  -0.000321
     37       0.267730  -0.632593  -0.426453   0.112461   0.456334  -0.000685
     38       0.000064  -0.000145  -0.000098   0.000026   0.000110  -0.000001
     39      -0.338593   0.459917  -0.486999  -0.408343   0.482512  -0.000184
     40      -0.059712   0.081665  -0.082783  -0.074424   0.083986  -0.000019
     41       0.000144  -0.000186   0.000211   0.000169  -0.000210  -0.000002
     42       0.310331   0.012226   0.345357  -0.358237   0.244854  -0.000583
     43      -0.376544  -0.017301  -0.412541   0.433110  -0.297893   0.000517
     44      -0.000232  -0.000023  -0.000244   0.000255  -0.000174   0.000001
     45       0.253601   0.171572  -0.124378   0.078819  -0.046767   0.000258
     46       0.693247   0.467985  -0.337590   0.206532  -0.124442   0.000495
     47      -0.000018  -0.000021   0.000010  -0.000009   0.000000   0.000003


-----------
IR SPECTRUM
-----------

 Mode   freq       eps      Int      T**2         TX        TY        TZ
       cm**-1   L/(mol*cm) km/mol    a.u.
----------------------------------------------------------------------------
  6:     59.07   0.000001    0.00  0.000005  (-0.000324  0.000276  0.002191)
  7:    142.16   0.000427    2.16  0.000938  ( 0.002210 -0.000864 -0.030529)
  8:    155.25   0.000770    3.89  0.001547  (-0.037488  0.010882 -0.004830)
  9:    304.92   0.000120    0.61  0.000123  (-0.000348  0.000041  0.011067)
 10:    377.23   0.000623    3.15  0.000515  (-0.019735 -0.007912  0.007963)
 11:    403.93   0.003148   15.91  0.002432  ( 0.000099 -0.000376  0.049316)
 12:    418.65   0.034019  171.92  0.025358  (-0.001277  0.000889 -0.159236)
 13:    442.07   0.001577    7.97  0.001113  ( 0.027212 -0.008070 -0.017532)
 14:    518.91   0.003029   15.31  0.001822  (-0.000163  0.000283 -0.042678)
 15:    627.62   0.000008    0.04  0.000004  (-0.001908 -0.000604 -0.000036)
 16:    652.54   0.013808   69.78  0.006603  (-0.080816 -0.008446 -0.000784)
 17:    700.59   0.016409   82.92  0.007309  (-0.000046 -0.000324  0.085492)
 18:    771.19   0.012771   64.54  0.005168  ( 0.000119 -0.000117  0.071888)
 19:    854.98   0.000000    0.00  0.000000  (-0.000171 -0.000079 -0.000001)
 20:    880.24   0.017605   88.97  0.006241  ( 0.078747  0.006335  0.000464)
 21:    930.95   0.000032    0.16  0.000011  (-0.000681  0.000333 -0.003168)
 22:    958.99   0.066966  338.42  0.021791  (-0.144730  0.029056 -0.000448)
 23:    971.50   0.005521   27.90  0.001773  (-0.000997 -0.000237  0.042098)
 24:    992.21   0.000017    0.08  0.000005  (-0.000081 -0.000425  0.002247)
 25:   1010.19   0.000110    0.56  0.000034  (-0.000241  0.000048  0.005827)
 26:   1015.18   0.000008    0.04  0.000003  (-0.000009  0.001605 -0.000046)
 27:   1044.56   0.001047    5.29  0.000313  ( 0.017136  0.004358 -0.000085)
 28:   1098.02   0.002669   13.49  0.000759  (-0.008742 -0.026117 -0.000048)
 29:   1163.85   0.000062    0.31  0.000017  (-0.003950  0.001037 -0.000035)
 30:   1182.59   0.000109    0.55  0.000029  ( 0.005333 -0.000510  0.000028)
 31:   1235.65   0.007646   38.64  0.001931  ( 0.043803 -0.003491  0.000050)
 32:   1287.03   0.020706  104.64  0.005021  ( 0.061471  0.035238  0.000493)
 33:   1338.21   0.000032    0.16  0.000008  ( 0.002675  0.000613 -0.000046)
 34:   1368.50   0.000166    0.84  0.000038  (-0.001768  0.005901  0.000060)
 35:   1435.18   0.001731    8.75  0.000376  (-0.019390  0.000550 -0.000316)
 36:   1471.21   0.002986   15.09  0.000633  (-0.006696 -0.024260 -0.000086)
 37:   1520.60   0.002788   14.09  0.000572  ( 0.023901  0.000976  0.000060)
 38:   1605.84   0.000246    1.24  0.000048  ( 0.003753 -0.005811  0.000009)
 39:   1630.75   0.000049    0.25  0.000009  ( 0.001670 -0.002562 -0.000008)
 40:   1665.00   0.000073    0.37  0.000014  (-0.001233  0.003497 -0.000073)
 41:   3089.41   0.006546   33.08  0.000661  ( 0.015911  0.020200  0.000081)
 42:   3160.02   0.001520    7.68  0.000150  (-0.008872 -0.008448 -0.000104)
 43:   3165.67   0.000174    0.88  0.000017  (-0.004142  0.000070  0.000008)
 44:   3175.17   0.005116   25.85  0.000503  ( 0.009187  0.020454  0.000112)
 45:   3184.87   0.006508   32.89  0.000638  ( 0.016602 -0.019026 -0.000023)
 46:   3190.69   0.003341   16.88  0.000327  (-0.016192 -0.008036 -0.000032)
 47:   3692.06   0.073004  368.93  0.006171  (-0.069846  0.035946 -0.000073)

* The epsilon (eps) is given for a Dirac delta lineshape.
** The dipole moment derivative (T) already includes vibrational overlap.

The first frequency considered to be a vibration is 6
The total number of vibrations considered is 42


--------------------------
THERMOCHEMISTRY AT 298.15K
--------------------------

Temperature         ...   298.15 K
Pressure            ...     1.00 atm
Total Mass          ...   121.14 AMU
Quasi RRHO          ...     True
Cut-Off Frequency   ...     1.00 cm^-1

Throughout the following assumptions are being made:
  (1) The electronic state is orbitally nondegenerate
  (2) There are no thermally accessible electronically excited states
  (3) Hindered rotations indicated by low frequency modes are not
      treated as such but are treated as vibrations and this may
      cause some error
  (4) All equations used are the standard statistical mechanics
      equations for an ideal gas
  (5) All vibrations are strictly harmonic

freq.      59.07  E(vib)   ...       0.51 
freq.     142.16  E(vib)   ...       0.41 
freq.     155.25  E(vib)   ...       0.40 
freq.     304.92  E(vib)   ...       0.26 
freq.     377.23  E(vib)   ...       0.21 
freq.     403.93  E(vib)   ...       0.19 
freq.     418.65  E(vib)   ...       0.18 
freq.     442.07  E(vib)   ...       0.17 
freq.     518.91  E(vib)   ...       0.13 
freq.     627.62  E(vib)   ...       0.09 
freq.     652.54  E(vib)   ...       0.08 
freq.     700.59  E(vib)   ...       0.07 
freq.     771.19  E(vib)   ...       0.05 
freq.     854.98  E(vib)   ...       0.04 
freq.     880.24  E(vib)   ...       0.04 
freq.     930.95  E(vib)   ...       0.03 
freq.     958.99  E(vib)   ...       0.03 
freq.     971.50  E(vib)   ...       0.03 
freq.     992.21  E(vib)   ...       0.02 
freq.    1010.19  E(vib)   ...       0.02 
freq.    1015.18  E(vib)   ...       0.02 
freq.    1044.56  E(vib)   ...       0.02 
freq.    1098.02  E(vib)   ...       0.02 
freq.    1163.85  E(vib)   ...       0.01 
freq.    1182.59  E(vib)   ...       0.01 
freq.    1235.65  E(vib)   ...       0.01 
freq.    1287.03  E(vib)   ...       0.01 
freq.    1338.21  E(vib)   ...       0.01 
freq.    1368.50  E(vib)   ...       0.01 
freq.    1435.18  E(vib)   ...       0.00 
freq.    1471.21  E(vib)   ...       0.00 
freq.    1520.60  E(vib)   ...       0.00 
freq.    1605.84  E(vib)   ...       0.00 
freq.    1630.75  E(vib)   ...       0.00 
freq.    1665.00  E(vib)   ...       0.00 
freq.    3089.41  E(vib)   ...       0.00 
freq.    3160.02  E(vib)   ...       0.00 
freq.    3165.67  E(vib)   ...       0.00 
freq.    3175.17  E(vib)   ...       0.00 
freq.    3184.87  E(vib)   ...       0.00 
freq.    3190.69  E(vib)   ...       0.00 
freq.    3692.06  E(vib)   ...       0.00 

------------
INNER ENERGY
------------

The inner energy is: U= E(el) + E(ZPE) + E(vib) + E(rot) + E(trans)
    E(el)   - is the total energy from the electronic structure calculation
              = E(kin-el) + E(nuc-el) + E(el-el) + E(nuc-nuc)
    E(ZPE)  - the the zero temperature vibrational energy from the frequency calculation
    E(vib)  - the the finite temperature correction to E(ZPE) due to population
              of excited vibrational states
    E(rot)  - is the rotational thermal energy
    E(trans)- is the translational thermal energy

Summary of contributions to the inner energy U:
Electronic energy                ...   -400.82009190 Eh
Zero point energy                ...      0.12505606 Eh      78.47 kcal/mol
Thermal vibrational correction   ...      0.00493560 Eh       3.10 kcal/mol
Thermal rotational correction    ...      0.00141627 Eh       0.89 kcal/mol
Thermal translational correction ...      0.00141627 Eh       0.89 kcal/mol
-----------------------------------------------------------------------
Total thermal energy                   -400.68726769 Eh


Summary of corrections to the electronic energy:
(perhaps to be used in another calculation)
Total thermal correction                  0.00776814 Eh       4.87 kcal/mol
Non-thermal (ZPE) correction              0.12505606 Eh      78.47 kcal/mol
-----------------------------------------------------------------------
Total correction                          0.13282421 Eh      83.35 kcal/mol


--------
ENTHALPY
--------

The enthalpy is H = U + kB*T
                kB is Boltzmann's constant
Total thermal energy              ...   -400.68726769 Eh 
Thermal Enthalpy correction       ...      0.00094421 Eh       0.59 kcal/mol
-----------------------------------------------------------------------
Total Enthalpy                    ...   -400.68632348 Eh


Note: Only C1 symmetry has been detected, increase convergence thresholds 
      if your molecule has a higher symmetry. Symmetry factor of 1.0 is   
      used for the rotational entropy correction. 
 

Note: Rotational entropy computed according to Herzberg 
Infrared and Raman Spectra, Chapter V,1, Van Nostrand Reinhold, 1945 
Point Group:  C1, Symmetry Number:   1  
Rotational constants in cm-1:     0.173860     0.029911     0.025521 

Vibrational entropy computed according to the QRRHO of S. Grimme
Chem.Eur.J. 2012 18 9955 using a reference frequency of 100.0 cm-1


-------
ENTROPY
-------

The entropy contributions are T*S = T*(S(el)+S(vib)+S(rot)+S(trans))
     S(el)   - electronic entropy
     S(vib)  - vibrational entropy
     S(rot)  - rotational entropy
     S(trans)- translational entropy
The entropies will be listed as multiplied by the temperature to get
units of energy

Electronic entropy                ...      0.00000000 Eh      0.00 kcal/mol
Vibrational entropy               ...      0.00815944 Eh      5.12 kcal/mol
Rotational entropy                ...      0.01372530 Eh      8.61 kcal/mol
Translational entropy             ...      0.01914284 Eh     12.01 kcal/mol
-----------------------------------------------------------------------
Final entropy term                ...      0.04102758 Eh     25.75 kcal/mol

In case the symmetry of your molecule has not been determined correctly
or in case you have a reason to use a different symmetry number we print 
out the resulting rotational entropy values for sn=1,12:

 non-linear molecules -----------------------------------
|  sn= 1 | S(rot)=       0.01372530 Eh      8.61 kcal/mol|
|  sn= 2 | S(rot)=       0.01307085 Eh      8.20 kcal/mol|
|  sn= 3 | S(rot)=       0.01268801 Eh      7.96 kcal/mol|
|  sn= 4 | S(rot)=       0.01241639 Eh      7.79 kcal/mol|
|  sn= 5 | S(rot)=       0.01220570 Eh      7.66 kcal/mol|
|  sn= 6 | S(rot)=       0.01203356 Eh      7.55 kcal/mol|
|  sn= 7 | S(rot)=       0.01188801 Eh      7.46 kcal/mol|
|  sn= 8 | S(rot)=       0.01176193 Eh      7.38 kcal/mol|
|  sn= 9 | S(rot)=       0.01165072 Eh      7.31 kcal/mol|
|  sn=10 | S(rot)=       0.01155124 Eh      7.25 kcal/mol|
|  sn=11 | S(rot)=       0.01146125 Eh      7.19 kcal/mol|
|  sn=12 | S(rot)=       0.01137910 Eh      7.14 kcal/mol|
 linear molecules ---------------------------------------
|  Dinfh | S(rot)=       0.00878932 Eh      5.52 kcal/mol|
|  Cinfv | S(rot)=       0.00944377 Eh      5.93 kcal/mol|
 --------------------------------------------------------


-------------------
GIBBS FREE ENERGY
-------------------

The Gibbs free energy is G = H - T*S

Total enthalpy                    ...   -400.68632348 Eh 
Total entropy correction          ...     -0.04102758 Eh    -25.75 kcal/mol
-----------------------------------------------------------------------
Final Gibbs free energy         ...   -400.72735106 Eh

For completeness - the Gibbs free energy minus the electronic energy
G-E(el)                           ...      0.09274083 Eh     58.20 kcal/mol


Maximum memory used throughout the entire PROP-calculation: 106.8 MB

--------------------------------
SUGGESTED CITATIONS FOR THIS RUN
--------------------------------

Below you find a list of papers that are relevant to this ORCA run
We neither can nor want to force you to cite these papers, but we appreciate if you do
You receive ORCA, which is the product of decades of hard work by many enthusiastic individuals, for free
The only thing we kindly ask in return is that you cite our papers,
We deeply appreciate it, if you show your appreciation for ORCA by not just citing the generic ORCA reference.

Please note that relegating all ORCA citations to the supporting information does *not* help us.
SI sections are not indexed - citations you put there will not count into any citation statistics
But we need these citations in order to attract the funding resources that allow us to do what we are doing

Therefore, if you are a happy ORCA user, please consider citing a few of the papers listed below in the main body of your paper

In addition to the list printed below, the program has created the file cs_rporg_140_red_freq_06.bibtex that contains the list in bibtex format
You can import this file easily into all common literature databanks and citation aid programs


List of essential papers. We consider these as the minimum necessary citations

  1. Neese,F.
     Software update: the ORCA program system, version 5.0
     WIRES Comput. Molec. Sci., 2022 12(1)e1606
     doi.org/10.1002/wcms.1606

List of papers to cite with high priority. The work reported in these papers was absolutely
necessary for this run to complete.
Our perspective: the developers of density functionals and basis sets usually get cited in chemistry papers
Good! But without the algorithms to do something with them, the functionals or basis sets would not do anything.
Hence, in our opinion, the algorithm design and method developments papers are equally worthy of getting cited

  1. Neese,F.
     An improvement of the resolution of the identity approximation for the formation of the Coulomb matrix
     J. Comp. Chem., 2003 24(14)1740-1747
     doi.org/10.1002/jcc.10318
  2. Bykov,D.; Petrenko,T.; Izsak,R.; Kossmann,S.; Becker,U.; Valeev,E.; Neese,F.
     Efficient implementation of the analytic second derivatives of Hartree-Fock and hybrid DFT energies: a detailed analysis of different approximations
     Molec. Phys., 2015 113 1961-1977
     doi.org/10.1080/00268976.2015.1025114
  3. Garcia-Rates,M.; Neese,F.
     Efficient implementation of the analytical second derivatives of hartree-fock and hybrid DFT energies within the framework of the conductor-like polarizable continuum model
     J. Comput. Chem., 2019 40 1816-1828
     doi.org/10.1002/jcc.25833
  4. Garcia-Rates,M.; Neese,F.
     Effect of the Solute Cavity on the Solvation Energy and its Derivatives within the Framework of the Gaussian Charge Scheme
     J. Comput. Chem., 2020 41 922-939
     doi.org/10.1002/jcc.26139
  5. Neese,F.
     The SHARK Integral Generation and Digestion System
     J. Comp. Chem., 2022  1-16
     doi.org/10.1002/jcc.26942
  6. Lehtola,S.; Steigemann,C.; Oliveira,M.; Marques,M.
     Recent developments in Libxc - A comprehensive library of functionals for density functional theory
     Software X, 2018 7 
     doi.org/10.1016/j.softx.2017.11.002
  7. Grimme,S.; Antony,J.; Ehrlich,S.; Krieg,H.
     A consistent and accurate ab initio parametrization of density functional dispersion correction (DFT-D) for the 94 elements H-Pu
     J. Chem. Phys., 2010 132 154104-XXXX
     doi.org/10.1063/1.3382344
  8. Grimme,S.; Ehrlich,S.; Goerigk,L.
     Effect of the damping function in dispersion corrected density functional theory
     J. Comput. Chem., 2011 32(7)1456-1465
     doi.org/10.1002/jcc.21759

List of suggested additional citations. These are papers that are important in the 'surrounding' of 
of this run, or papers that preceded the highly important papers. If you like your results we are grateful for a citation.

  1. Neese,F.
     The ORCA program system
     WIRES Comput. Molec. Sci., 2012 2(1)73-78
     doi.org/10.1002/wcms.81
  2. Neese,F.
     Software update: the ORCA program system, version 4.0
     WIRES Comput. Molec. Sci., 2018 8(1)1-6
     doi.org/10.1002/wcms.1327
  3. Neese,F.; Wennmohs,F.; Becker,U.; Riplinger,C.
     The ORCA quantum chemistry program package
     J. Chem. Phys., 2020 152 Art. No. L224108
     doi.org/10.1063/5.0004608

List of optional additional citations

  1. Neese,F.
     Approximate second-order SCF convergence for spin unrestricted wavefunctions
     Chem. Phys. Lett., 2000 325(1-3)93-98
     doi.org/10.1016/s0009-2614(00)00662-x

Timings for individual modules:

Sum of individual times          ...      940.759 sec (=  15.679 min)
Startup calculation              ...        6.156 sec (=   0.103 min)   0.7 %
SCF iterations                   ...      108.590 sec (=   1.810 min)  11.5 %
Property integrals               ...      411.861 sec (=   6.864 min)  43.8 %
SCF Response                     ...      328.913 sec (=   5.482 min)  35.0 %
Property calculations            ...       85.239 sec (=   1.421 min)   9.1 %
                             ****ORCA TERMINATED NORMALLY****
TOTAL RUN TIME: 0 days 0 hours 15 minutes 44 seconds 607 msec
