
                                 *****************
                                 * O   R   C   A *
                                 *****************

                                            #,                                       
                                            ###                                      
                                            ####                                     
                                            #####                                    
                                            ######                                   
                                           ########,                                 
                                     ,,################,,,,,                         
                               ,,#################################,,                 
                          ,,##########################################,,             
                       ,#########################################, ''#####,          
                    ,#############################################,,   '####,        
                  ,##################################################,,,,####,       
                ,###########''''           ''''###############################       
              ,#####''   ,,,,##########,,,,          '''####'''          '####       
            ,##' ,,,,###########################,,,                        '##       
           ' ,,###''''                  '''############,,,                           
         ,,##''                                '''############,,,,        ,,,,,,###''
      ,#''                                            '''#######################'''  
     '                                                          ''''####''''         
             ,#######,   #######,   ,#######,      ##                                
            ,#'     '#,  ##    ##  ,#'     '#,    #''#        ,####,   ,####,        
            ##       ##  ##   ,#'  ##            #'  '#       #'       #'  '#        
            ##       ##  #######   ##           ,######,      #####,   #    #        
            '#,     ,#'  ##    ##  '#,     ,#' ,#      #,     #,   #   #,  ,#        
             '#######'   ##     ##  '#######'  #'      '#     '####' # '####'        



                #########################################################
                #                        -***-                          #
                #          Department of theory and spectroscopy        #
                #                                                       #
                #                      Frank Neese                      #
                #                                                       #
                #     Directorship, Architecture, Infrastructure        #
                #                    SHARK, DRIVERS                     #
                #        Core code/Algorithms in most modules           #
                #                                                       #
                #        Max Planck Institute fuer Kohlenforschung      #
                #                Kaiser Wilhelm Platz 1                 #
                #                 D-45470 Muelheim/Ruhr                 #
                #                      Germany                          #
                #                                                       #
                #                  All rights reserved                  #
                #                        -***-                          #
                #########################################################


                         Program Version 6.0.0  -   RELEASE  -


 With contributions from (in alphabetic order):
   Daniel Aravena         : Magnetic Suceptibility
   Michael Atanasov       : Ab Initio Ligand Field Theory (pilot matlab implementation)
   Alexander A. Auer      : GIAO ZORA, VPT2 properties, NMR spectrum
   Ute Becker             : All parallelization in ORCA, NUMFREQ, NUMCALC
   Giovanni Bistoni       : ED, misc. LED, open-shell LED, HFLD
   Martin Brehm           : Molecular dynamics
   Dmytro Bykov           : pre 5.0 version of the SCF Hessian
   Marcos Casanova-Páez   : Triplet and SCS-CIS(D). UHF-(DLPNO)-IP/EA/STEOM-CCSD. UHF-CVS-IP/STEOM-CCSD
   Vijay G. Chilkuri      : MRCI spin determinant printing, contributions to CSF-ICE
   Pauline Colinet        : FMM embedding
   Dipayan Datta          : RHF DLPNO-CCSD density
   Achintya Kumar Dutta   : EOM-CC, STEOM-CC
   Nicolas Foglia         : Exact transition moments, OPA infrastructure, MCD improvements
   Dmitry Ganyushin       : Spin-Orbit,Spin-Spin,Magnetic field MRCI
   Miquel Garcia          : C-PCM and meta-GGA Hessian, CCSD/C-PCM, Gaussian charge scheme
   Tiago L. C. Gouveia    : GS-ROHF, GS-ROCIS
   Yang Guo               : DLPNO-NEVPT2, F12-NEVPT2, CIM, IAO-localization
   Andreas Hansen         : Spin unrestricted coupled pair/coupled cluster methods
   Ingolf Harden          : AUTO-CI MPn and infrastructure 
   Benjamin Helmich-Paris : MC-RPA, TRAH-(SCF,CASSCF), AVAS, COSX integrals, SCF dyn. polar.
   Lee Huntington         : MR-EOM, pCC
   Robert Izsak           : Overlap fitted RIJCOSX, COSX-SCS-MP3, EOM
   Riya Kayal             : Wick's Theorem for AUTO-CI, AUTO-CI UHF-CCSDT
   Emily Kempfer          : AUTO-CI, RHF CISDT and CCSDT
   Christian Kollmar      : KDIIS, OOCD, Brueckner-CCSD(T), CCSD density, CASPT2, CASPT2-K, improved NEVPT2
   Axel Koslowski         : Symmetry handling
   Simone Kossmann        : Meta GGA functionals, TD-DFT gradient, OOMP2, (MP2 Hessian; deprecated post 5.0)
   Lucas Lang             : DCDCAS
   Marvin Lechner         : AUTO-CI (C++ implementation), FIC-MRCC
   Spencer Leger          : CASSCF response
   Dagmar Lenk            : GEPOL surface, SMD, ORCA-2-JSON
   Dimitrios Liakos       : Extrapolation schemes; Compound Job, initial MDCI parallelization
   Dimitrios Manganas     : Further ROCIS development; embedding schemes. LFT, Crystal Embedding
   Dimitrios Pantazis     : SARC Basis sets
   Anastasios Papadopoulos: AUTO-CI, single reference methods and gradients
   Taras Petrenko         : pre 6.0 DFT Hessian and TD-DFT gradient, (ASA, deprecated), ECA, 1-Electron XAS/XES, NRVS
   Peter Pinski           : DLPNO-MP2, DLPNO-MP2 Gradient
   Christoph Reimann      : Effective Core Potentials
   Marius Retegan         : Local ZFS, SOC
   Christoph Riplinger    : Optimizer, TS searches, QM/MM, DLPNO-CCSD(T), (RO)-DLPNO pert. Triples
   Michael Roemelt        : Original ROCIS implementation
   Masaaki Saitow         : Open-shell DLPNO-CCSD energy and density
   Barbara Sandhoefer     : DKH picture change effects
   Kantharuban Sivalingam : CASSCF convergence/infrastructure, NEVPT2 and variants, FIC-MRCI
   Bernardo de Souza      : ESD, SOC TD-DFT
   Georgi Stoychev        : AutoAux, RI-MP2 NMR, DLPNO-MP2 response, X2C
   Van Anh Tran           : RI-MP2 g-tensors
   Willem Van den Heuvel  : Paramagnetic NMR
   Zikuan Wang            : NOTCH, Electric field optimization 
   Frank Wennmohs         : Technical directorship and infrastructure
   Hang Xu                : AUTO-CI-Response properties 


 We gratefully acknowledge several colleagues who have allowed us to
 interface, adapt or use parts of their codes:
   Stefan Grimme, W. Hujo, H. Kruse, P. Pracht,  : VdW corrections, initial TS optimization,
                  C. Bannwarth, S. Ehlert,         DFT functionals, gCP, sTDA/sTD-DF
                  L. Wittmann, M. Mueller
   Ed Valeev, F. Pavosevic, A. Kumar             : LibInt (2-el integral package), F12 methods
   Garnet Chan, S. Sharma, J. Yang, R. Olivares  : DMRG
   Ulf Ekstrom                                   : XCFun DFT Library
   Mihaly Kallay                                 : mrcc  (arbitrary order and MRCC methods)
   Frank Weinhold                                : gennbo (NPA and NBO analysis)
   Simon Mueller                                 : openCOSMO-RS
   Christopher J. Cramer and Donald G. Truhlar   : smd solvation model
   Lars Goerigk                                  : TD-DFT with DH, B97 family of functionals
   V. Asgeirsson, H. Jonsson                     : NEB implementation
   FAccTs GmbH                                   : IRC, NEB, NEB-TS, DLPNO-Multilevel, CI-OPT
                                                   MM, QMMM, 2- and 3-layer-ONIOM, Crystal-QMMM,
                                                   LR-CPCM, SF, NACMEs, symmetry and pop. for TD-DFT,
                                                   nearIR, NL-DFT gradient (VV10), updates on ESD,
                                                   ML-optimized integration grids, MBIS, APM,
                                                   GOAT, DOCKER, SOLVATOR, interface openCOSMO-RS
   S Lehtola, MJT Oliveira, MAL Marques          : LibXC Library
   Liviu Ungur et al                             : ANISO software


 Your calculation uses the libint2 library for the computation of 2-el integrals
 For citations please refer to: http://libint.valeyev.net

 Your ORCA version has been built with support for libXC version: 6.2.2
 For citations please refer to: https://libxc.gitlab.io

 This ORCA versions uses:
   CBLAS   interface :  Fast vector & matrix operations
   LAPACKE interface :  Fast linear algebra routines
   SCALAPACK package :  Parallel linear algebra routines
   Shared memory     :  Shared parallel matrices
   BLAS/LAPACK       :  OpenBLAS 0.3.27  USE64BITINT DYNAMIC_ARCH NO_AFFINITY Sandybridge SINGLE_THREADED
        Core in use  :  Sandybridge
   Copyright (c) 2011-2014, The OpenBLAS Project


NOTE: MaxCore=5000 MB was set to SCF,MP2,MDCI,CIPSI,MRCI and CIS
      => If you want to overwrite this, your respective input block should be placed after the MaxCore statement
Your calculation utilizes the atom-pairwise dispersion correction
with the Becke-Johnson damping scheme (D3BJ)


Your calculation utilizes the SMD solvation module
Please cite in your paper:
A.V. Marenich, C.J. Cramer, D.G. Truhlar J. Phys. Chem. B, 113, (2009), 6378 

Warning: RI is on but no J-basis has been assigned. Assigning Def2/J (nothing to worry about!)
================================================================================

----- Orbital basis set information -----
Your calculation utilizes the basis: aug-cc-pVTZ 
    H, B-Ne : Obtained from the ccRepo (grant-hill.group.shef.ac.uk/ccrepo) Feb. 2017
              R. A. Kendall, T. H. Dunning, Jr., R. J. Harrison, J. Chem. Phys. 96, 6796 (1992)
         He : Obtained from the ccRepo (grant-hill.group.shef.ac.uk/ccrepo) Feb. 2017
              D. E. Woon, T. H. Dunning, Jr., J. Chem. Phys. 100, 2975 (1994)
  Li-Be, Na : Obtained from the ccRepo (grant-hill.group.shef.ac.uk/ccrepo) Feb. 2017
              B. P. Prascher, D. E. Woon, K. A. Peterson, T. H. Dunning, Jr., A. K. Wilson, Theor. Chem. Acc. 128, 69 (2011)
         Mg : Obtained from the Peterson Research Group Website (tyr0.chem.wsu.edu/~kipeters) Feb. 2017
              B. P. Prascher, D. E. Woon, K. A. Peterson, T. H. Dunning, Jr., A. K. Wilson, Theor. Chem. Acc. 128, 69 (2011)
      Al-Ar : Obtained from the ccRepo (grant-hill.group.shef.ac.uk/ccrepo) Feb. 2017
              D. E. Woon, T. H. Dunning, Jr., J. Chem. Phys. 98, 1358 (1993)
      Sc-Zn : Obtained from the ccRepo (grant-hill.group.shef.ac.uk/ccrepo) Feb. 2017
              N. B. Balabanov, K. A. Peterson, J. Chem. Phys. 123, 064107 (2005)
              N. B. Balabanov, K. A. Peterson, J. Chem. Phys. 125, 074110 (2006)
      Ga-Kr : Obtained from the ccRepo (grant-hill.group.shef.ac.uk/ccrepo) Feb. 2017
              A. K. Wilson, D. E. Woon, K. A. Peterson, T. H. Dunning, Jr., J. Chem. Phys. 110, 7667 (1999)
     Ag, Au : Obtained from the Peterson Research Group Website (tyr0.chem.wsu.edu/~kipeters) Feb. 2017
              K. A. Peterson, C. Puzzarini, Theor. Chem. Acc. 114, 283 (2005)

----- AuxJ basis set information -----
Your calculation utilizes the auxiliary basis: def2/J
   F. Weigend, Phys. Chem. Chem. Phys. 8, 1057 (2006).

================================================================================
                                        WARNINGS
                       Please study these warnings very carefully!
================================================================================

Using LibXC functional ID 497 : Re-regularized SCAN exchange by Furness et al
[ 1]  J. W. Furness, A. D. Kaplan, J. Ning, J. P. Perdew, and J. Sun.,  J. Phys. Chem. Lett. 11, 8208-8215 (2020)
[ 2]  J. W. Furness, A. D. Kaplan, J. Ning, J. P. Perdew, and J. Sun.,  J. Phys. Chem. Lett. 11, 9248-9248 (2020)
Using LibXC functional ID 498 : Re-regularized SCAN correlation by Furness et al
[ 1]  J. W. Furness, A. D. Kaplan, J. Ning, J. P. Perdew, and J. Sun.,  J. Phys. Chem. Lett. 11, 8208-8215 (2020)
[ 2]  J. W. Furness, A. D. Kaplan, J. Ning, J. P. Perdew, and J. Sun.,  J. Phys. Chem. Lett. 11, 9248-9248 (2020)
Using LibXC functional ID 497 : Re-regularized SCAN exchange by Furness et al
[ 1]  J. W. Furness, A. D. Kaplan, J. Ning, J. P. Perdew, and J. Sun.,  J. Phys. Chem. Lett. 11, 8208-8215 (2020)
[ 2]  J. W. Furness, A. D. Kaplan, J. Ning, J. P. Perdew, and J. Sun.,  J. Phys. Chem. Lett. 11, 9248-9248 (2020)
Using LibXC functional ID 498 : Re-regularized SCAN correlation by Furness et al
[ 1]  J. W. Furness, A. D. Kaplan, J. Ning, J. P. Perdew, and J. Sun.,  J. Phys. Chem. Lett. 11, 8208-8215 (2020)
[ 2]  J. W. Furness, A. D. Kaplan, J. Ning, J. P. Perdew, and J. Sun.,  J. Phys. Chem. Lett. 11, 9248-9248 (2020)


WARNING: Found flag for RIJCOSX approximation but no HF exchange needed!
  ===> : RIJCOSX  will be disabled and Split-RI-J is turned on

WARNING: your system is open-shell and RHF/RKS was chosen
  ===> : WILL SWITCH to UHF/UKS


================================================================================
                                       INPUT FILE
================================================================================
NAME = cs_rporg_100_ox_freq_06.inp
|  1> !r2SCAN freq aug-cc-pVTZ d3 TightSCF SlowConv RIJCOSX defgrid2
|  2> 
|  3> %pal
|  4> nprocs 12
|  5> end
|  6> 
|  7> %scf
|  8> MaxIter 1500
|  9> end
| 10> 
| 11> %maxcore 5000
| 12> 
| 13> !CPCM
| 14> %cpcm smd true
| 15> SMDsolvent "MeCN"
| 16> surfacetype gepol_ses
| 17> rsolv 2.19
| 18> end 
| 19> 
| 20> * xyz 1 2
| 21> C           0.87074173150924     -1.42521117009038     -0.00077633354437
| 22> C           2.10038413544098     -0.72361553515306      0.00059400959819
| 23> C           2.17109107208912      0.67897874793942     -0.00018819116619
| 24> C           1.02743704324914      1.44703287807426     -0.00113389418009
| 25> C          -0.22145384293133      0.77159194041753     -0.00143498082550
| 26> C          -0.23957255843211     -0.64416544623900     -0.00226080613127
| 27> O          -1.55446536386289     -1.08929008959254     -0.00245387903863
| 28> C          -2.31268133102755      0.00255266905010     -0.00011771057880
| 29> C          -1.55281612555641      1.18100325403041      0.00030968819915
| 30> H          -1.95478062194049      2.18141710818445      0.00296404553735
| 31> H          -3.38114379147553     -0.15000770782054      0.00229844195648
| 32> H           1.06536464609561      2.52803266004670     -0.00170875987452
| 33> H           3.14227279138779      1.15449472874872      0.00057557089407
| 34> H           3.01743172735386     -1.29834737417914      0.00317713559608
| 35> H           0.83125198810059     -2.50550606341691      0.00022626355806
| 36> *
| 37> 
| 38>                          ****END OF INPUT****
================================================================================

                       ****************************
                       * Single Point Calculation *
                       ****************************

---------------------------------
CARTESIAN COORDINATES (ANGSTROEM)
---------------------------------
  C      0.870742   -1.425211   -0.000776
  C      2.100384   -0.723616    0.000594
  C      2.171091    0.678979   -0.000188
  C      1.027437    1.447033   -0.001134
  C     -0.221454    0.771592   -0.001435
  C     -0.239573   -0.644165   -0.002261
  O     -1.554465   -1.089290   -0.002454
  C     -2.312681    0.002553   -0.000118
  C     -1.552816    1.181003    0.000310
  H     -1.954781    2.181417    0.002964
  H     -3.381144   -0.150008    0.002298
  H      1.065365    2.528033   -0.001709
  H      3.142273    1.154495    0.000576
  H      3.017432   -1.298347    0.003177
  H      0.831252   -2.505506    0.000226

----------------------------
CARTESIAN COORDINATES (A.U.)
----------------------------
  NO LB      ZA    FRAG     MASS         X           Y           Z
   0 C     6.0000    0    12.011    1.645463   -2.693259   -0.001467
   1 C     6.0000    0    12.011    3.969151   -1.367435    0.001123
   2 C     6.0000    0    12.011    4.102768    1.283084   -0.000356
   3 C     6.0000    0    12.011    1.941575    2.734496   -0.002143
   4 C     6.0000    0    12.011   -0.418487    1.458097   -0.002712
   5 C     6.0000    0    12.011   -0.452727   -1.217296   -0.004272
   6 O     8.0000    0    15.999   -2.937514   -2.058460   -0.004637
   7 C     6.0000    0    12.011   -4.370334    0.004824   -0.000222
   8 C     6.0000    0    12.011   -2.934397    2.231773    0.000585
   9 H     1.0000    0     1.008   -3.694000    4.122281    0.005601
  10 H     1.0000    0     1.008   -6.389436   -0.283473    0.004343
  11 H     1.0000    0     1.008    2.013247    4.777289   -0.003229
  12 H     1.0000    0     1.008    5.938035    2.181679    0.001088
  13 H     1.0000    0     1.008    5.702120   -2.453521    0.006004
  14 H     1.0000    0     1.008    1.570839   -4.734720    0.000428

--------------------------------
INTERNAL COORDINATES (ANGSTROEM)
--------------------------------
 C      0   0   0     0.000000000000     0.00000000     0.00000000
 C      1   0   0     1.415718458716     0.00000000     0.00000000
 C      2   1   0     1.404375592814   122.59359956     0.00000000
 C      3   2   1     1.377625703467   120.99857033     0.05951833
 C      4   3   2     1.419841187070   117.70954904     0.00000000
 C      1   2   3     1.357509649635   115.16800251   359.96983055
 O      6   1   2     1.388192737040   126.17341637   180.06777627
 C      7   6   1     1.329292112422   106.07523501   179.82112187
 C      5   4   3     1.392891307741   134.50061670   179.84939508
 H      9   5   4     1.078151372280   128.98357116   359.96417378
 H      8   7   6     1.079301874255   116.65162821   180.13028441
 H      4   3   2     1.081665087794   121.87505820   179.99780204
 H      3   2   1     1.081346365989   118.97346613   180.02230216
 H      2   1   3     1.082265977089   118.21612986   179.94789980
 H      1   2   3     1.081016883116   121.80113317   180.02357691

---------------------------
INTERNAL COORDINATES (A.U.)
---------------------------
 C      0   0   0     0.000000000000     0.00000000     0.00000000
 C      1   0   0     2.675320169711     0.00000000     0.00000000
 C      2   1   0     2.653885259582   122.59359956     0.00000000
 C      3   2   1     2.603335294603   120.99857033     0.05951833
 C      4   3   2     2.683110997224   117.70954904     0.00000000
 C      1   2   3     2.565321461966   115.16800251   359.96983055
 O      6   1   2     2.623304094105   126.17341637   180.06777627
 C      7   6   1     2.511998044459   106.07523501   179.82112187
 C      5   4   3     2.632183105950   134.50061670   179.84939508
 H      9   5   4     2.037410824521   128.98357116   359.96417378
 H      8   7   6     2.039584958170   116.65162821   180.13028441
 H      4   3   2     2.044050784555   121.87505820   179.99780204
 H      3   2   1     2.043448487630   118.97346613   180.02230216
 H      2   1   3     2.045186300758   118.21612986   179.94789980
 H      1   2   3     2.042825855235   121.80113317   180.02357691

---------------------
BASIS SET INFORMATION
---------------------
There are 3 groups of distinct atoms

 Group   1 Type C   : 19s6p3d2f contracted to 5s4p3d2f pattern {88111/3111/111/11}
 Group   2 Type O   : 19s6p3d2f contracted to 5s4p3d2f pattern {88111/3111/111/11}
 Group   3 Type H   : 6s3p2d contracted to 4s3p2d pattern {3111/111/11}

Atom   0C    basis set group =>   1
Atom   1C    basis set group =>   1
Atom   2C    basis set group =>   1
Atom   3C    basis set group =>   1
Atom   4C    basis set group =>   1
Atom   5C    basis set group =>   1
Atom   6O    basis set group =>   2
Atom   7C    basis set group =>   1
Atom   8C    basis set group =>   1
Atom   9H    basis set group =>   3
Atom  10H    basis set group =>   3
Atom  11H    basis set group =>   3
Atom  12H    basis set group =>   3
Atom  13H    basis set group =>   3
Atom  14H    basis set group =>   3
---------------------------------
AUXILIARY/J BASIS SET INFORMATION
---------------------------------
There are 3 groups of distinct atoms

 Group   1 Type C   : 12s5p4d2f1g contracted to 6s4p3d1f1g pattern {711111/2111/211/2/1}
 Group   2 Type O   : 12s5p4d2f1g contracted to 6s4p3d1f1g pattern {711111/2111/211/2/1}
 Group   3 Type H   : 5s2p1d contracted to 3s1p1d pattern {311/2/1}

Atom   0C    basis set group =>   1
Atom   1C    basis set group =>   1
Atom   2C    basis set group =>   1
Atom   3C    basis set group =>   1
Atom   4C    basis set group =>   1
Atom   5C    basis set group =>   1
Atom   6O    basis set group =>   2
Atom   7C    basis set group =>   1
Atom   8C    basis set group =>   1
Atom   9H    basis set group =>   3
Atom  10H    basis set group =>   3
Atom  11H    basis set group =>   3
Atom  12H    basis set group =>   3
Atom  13H    basis set group =>   3
Atom  14H    basis set group =>   3


           ************************************************************
           *        Program running with 12 parallel MPI-processes    *
           *              working on a common directory               *
           ************************************************************
------------------------------------------------------------------------------
                             ORCA STARTUP CALCULATIONS
                           -- RI-GTO INTEGRALS CHOSEN --
------------------------------------------------------------------------------
------------------------------------------------------------------------------
                   ___                                                        
                  /   \      - P O W E R E D   B Y -                         
                 /     \                                                     
                 |  |  |   _    _      __       _____    __    __             
                 |  |  |  | |  | |    /  \     |  _  \  |  |  /  |          
                  \  \/   | |  | |   /    \    | | | |  |  | /  /          
                 / \  \   | |__| |  /  /\  \   | |_| |  |  |/  /          
                |  |  |   |  __  | /  /__\  \  |    /   |      \           
                |  |  |   | |  | | |   __   |  |    \   |  |\   \          
                \     /   | |  | | |  |  |  |  | |\  \  |  | \   \       
                 \___/    |_|  |_| |__|  |__|  |_| \__\ |__|  \__/        
                                                                              
                      - O R C A' S   B I G   F R I E N D -                    
                                      &                                       
                       - I N T E G R A L  F E E D E R -                       
                                                                              
 v1 FN, 2020, v2 2021, v3 2022-2024                                           
------------------------------------------------------------------------------


----------------------
SHARK INTEGRAL PACKAGE
----------------------

Number of atoms                             ...     15
Number of basis functions                   ...    606
Number of shells                            ...    234
Maximum angular momentum                    ...      3
Integral batch strategy                     ... SHARK/LIBINT Hybrid
RI-J (if used) integral strategy            ... SPLIT-RIJ (Revised 2003 algorithm where possible)
Printlevel                                  ...      1
Contraction scheme used                     ... PARTIAL GENERAL contraction
Prescreening option                         ... SCHWARTZ
   Thresh                                   ... 2.500e-11
   Tcut                                     ... 2.500e-12
   Tpresel                                  ... 2.500e-12 
Coulomb Range Separation                    ... NOT USED
Exchange Range Separation                   ... NOT USED
Multipole approximations                    ... NOT USED
Finite Nucleus Model                        ... NOT USED
CABS basis                                  ... NOT available
Auxiliary Coulomb fitting basis             ... AVAILABLE
   # of basis functions in Aux-J            ...    507
   # of shells in Aux-J                     ...    165
   Maximum angular momentum in Aux-J        ...      4
Auxiliary J/K fitting basis                 ... NOT available
Auxiliary Correlation fitting basis         ... NOT available
Auxiliary 'external' fitting basis          ... NOT available

Checking pre-screening integrals            ... done (  0.1 sec) Dimension = 234
Save PGC pre-screening integrals            ... done (  0.1 sec) Dimension = 234
Calculate PGC overlap integrals             ... done (  0.2 sec) Dimension = 180
Calculating pre-screening integrals (ORCA)  ... done (  0.3 sec) Dimension = 180
Check shell pair data                       ... done (  0.1 sec)
Shell pair information
Shell pair cut-off parameter TPreSel        ...   2.5e-12
Total number of shell pairs                 ...     27495
Shell pairs after pre-screening             ...     23652
Total number of primitive shell pairs       ...     35025
Primitive shell pairs kept                  ...     28223
          la=0 lb=0:   5387 shell pairs
          la=1 lb=0:   5935 shell pairs
          la=1 lb=1:   1426 shell pairs
          la=2 lb=0:   4264 shell pairs
          la=2 lb=1:   2018 shell pairs
          la=2 lb=2:    748 shell pairs
          la=3 lb=0:   2061 shell pairs
          la=3 lb=1:    952 shell pairs
          la=3 lb=2:    690 shell pairs
          la=3 lb=3:    171 shell pairs

Calculating one electron integrals          ... done (  0.1 sec)
Calculating RI/J V-Matrix + Cholesky decomp.... done (  0.1 sec)
Calculating Nuclear repulsion               ... done (  0.0 sec) ENN=    402.464779867747 Eh

Diagonalization of the overlap matrix:
Smallest eigenvalue                        ... 7.077e-07
Time for diagonalization                   ...    0.099 sec
Threshold for overlap eigenvalues          ... 1.000e-07
Number of eigenvalues below threshold      ... 0

IMPORTANT:
Smallest eigenvalue of S below the DiffSThresh (1.000e-06) while
Thresh>1e-12 and/or TCut>1e-13! In order to avoid SCF convergence issues,
Thresh will be set to at least 1e-12 and TCut to at least 1e-13.
This can be turned off by adding %SCF DiffSThresh -1 END to the input.

Time for construction of square roots      ...    0.076 sec
Total time needed                          ...    0.318 sec

-------------------
DFT GRID GENERATION
-------------------

General Integration Accuracy     IntAcc      ... 4.388
Radial Grid Type                 RadialGrid  ... OptM3 with GC (2021)
Angular Grid (max. ang.)         AngularGrid ... 4 (Lebedev-302)
Angular grid pruning method      GridPruning ... 4 (adaptive)
Weight generation scheme         WeightScheme... mBecke (2022)
Basis function cutoff            BFCut       ... 1.0000e-11
Integration weight cutoff        WCut        ... 1.0000e-14
Partially contracted basis set               ... off
Rotationally invariant grid construction     ... off
Angular grids for H and He will be reduced by one unit
Diffuse basis detected: some atoms will have their outermost
                        angular grid increased by 1.

Total number of grid points                  ...    76983
Total number of batches                      ...     1210
Average number of points per batch           ...       63
Average number of grid points per atom       ...     5132

---------------------
SHARK GRID GENERATION
---------------------

General Integration Accuracy     IntAcc      ... 4.388
Radial Grid Type                 RadialGrid  ... OptM3 with GC (2021)
Angular Grid (max. ang.)         AngularGrid ... 4 (Lebedev-302)
Angular grid pruning method      GridPruning ... 4 (adaptive)
Weight generation scheme         WeightScheme... mBecke (2022)
Basis function cutoff            BFCut       ... 1.0000e-11
Integration weight cutoff        WCut        ... 1.0000e-14
Partially contracted basis set               ... off
Rotationally invariant grid construction     ... off
Angular grids for H and He will be reduced by one unit
Diffuse basis detected: some atoms will have their outermost
                        angular grid increased by 1.
Steep s-basis detected: some atoms will have their radial
                        grid points doubled.

Total number of grid points                  ...   133835
Total number of batches                      ...     2098
Average number of points per batch           ...       63
Average number of grid points per atom       ...     8922
Initializing property integral containers    ... done (  0.3 sec)

SHARK setup successfully completed in   4.9 seconds

Maximum memory used throughout the entire STARTUP-calculation: 55.8 MB


           ************************************************************
           *        Program running with 12 parallel MPI-processes    *
           *              working on a common directory               *
           ************************************************************
-------------------------------------------------------------------------------
                                 ORCA GUESS
                   Start orbitals & Density for SCF / CASSCF
-------------------------------------------------------------------------------

------------
SCF SETTINGS
------------
Hamiltonian:
 Density Functional     Method          .... DFT(GTOs)
  Functional kind                       .... Exchange
  Functional name                       .... Re-regularized SCAN exchange by Furness et al
  Functional family                     .... MGGA
  Functional refs                              
    [ 0] J. W. Furness, A. D. Kaplan, J. Ning, J. P. Perdew, and J. Sun.,  J. Phys. Chem. Lett. 11, 8208-8215 (2020), doi: 10.1021/acs.jpclett.0c02405
    [ 1] J. W. Furness, A. D. Kaplan, J. Ning, J. P. Perdew, and J. Sun.,  J. Phys. Chem. Lett. 11, 9248-9248 (2020), doi: 10.1021/acs.jpclett.0c03077
  Functional external parameters        .... 6
    Parameter  0 _c1        =  6.670000e-01 : c1 parameter        
    Parameter  1 _c2        =  8.000000e-01 : c2 parameter        
    Parameter  2 _d         =  1.240000e+00 : d parameter         
    Parameter  3 _k1        =  6.500000e-02 : k1 parameter        
    Parameter  4 _eta       =  1.000000e-03 : eta parameter       
    Parameter  5 _dp2       =  3.610000e-01 : dp2 parameter       
  Functional kind                       .... Correlation
  Functional name                       .... Re-regularized SCAN correlation by Furness et al
  Functional family                     .... MGGA
  Functional refs                              
    [ 0] J. W. Furness, A. D. Kaplan, J. Ning, J. P. Perdew, and J. Sun.,  J. Phys. Chem. Lett. 11, 8208-8215 (2020), doi: 10.1021/acs.jpclett.0c02405
    [ 1] J. W. Furness, A. D. Kaplan, J. Ning, J. P. Perdew, and J. Sun.,  J. Phys. Chem. Lett. 11, 9248-9248 (2020), doi: 10.1021/acs.jpclett.0c03077
  Functional external parameters        .... 1
    Parameter  0 _eta       =  1.000000e-03 : Regularization parameter
 Gradients option       PostSCFGGA      .... off
   NL short-range parameter             .... 12.300000
 RI-approximation to the Coulomb term is turned on
   Number of AuxJ basis functions       .... 507


General Settings:
 Integral files         IntName         .... cs_rporg_100_ox_freq_06
 Hartree-Fock type      HFTyp           .... UHF
 Total Charge           Charge          ....    1
 Multiplicity           Mult            ....    2
 Number of Electrons    NEL             ....   61
 Basis Dimension        Dim             ....  552
 Nuclear Repulsion      ENuc            ....    402.4647798677 Eh

Convergence Acceleration:
 AO-DIIS                CNVDIIS         .... on
   Start iteration      DIISMaxIt       ....     0
   Startup error        DIISStart       ....  0.200000
   # of expansion vecs  DIISMaxEq       ....     5
   Bias factor          DIISBfac        ....   1.050
   Max. coefficient     DIISMaxC        ....  10.000
 MO-DIIS                CNVKDIIS        .... off
 Trust-Rad. Augm. Hess. CNVTRAH         .... auto
   Auto Start mean grad. ratio tolernc. ....  1.125000
   Auto Start start iteration           ....    50
   Auto Start num. interpolation iter.  ....    10
   Max. Number of Micro iterations      ....    24
   Max. Number of Macro iterations      .... Maxiter - #DIIS iter
   Number of Davidson start vectors     ....     2
   Converg. threshold    (grad. norm)   ....   1.000e-05
   Grad. Scal. Fac. for Micro threshold ....   0.100
   Minimum threshold for Micro iter.    ....   1.000e-02
   NR start threshold (gradient norm)   ....   1.000e-04
   Initial trust radius                 ....   0.400
   Minimum AH scaling param. (alpha)    ....   1.000
   Maximum AH scaling param. (alpha)    .... 1000.000
   Quad. conv. algorithm                .... NR
   White noise on init. David. guess    .... on
   Maximum white noise                  ....   0.010
   Pseudo random numbers                .... off
   Inactive MOs                         .... canonical
   Orbital update algorithm             .... Taylor
   Preconditioner                       .... Diag
   Full preconditioner red. dimension   ....   250
 SOSCF                  CNVSOSCF        .... on
   Start iteration      SOSCFMaxIt      ....   150
   Startup grad/error   SOSCFStart      ....  0.001000
   Hessian update       SOSCFHessUp     .... L-BFGS
 Level Shifting         CNVShift        .... on
   Level shift para.    LevelShift      ....    0.2500
   Turn off err/grad.   ShiftErr        ....    0.0000
 Zerner damping         CNVZerner       .... off
 Static damping         CNVDamp         .... on
   Fraction old density DampFac         ....    0.8500
   Max. Damping (<1)    DampMax         ....    0.9800
   Min. Damping (>=0)   DampMin         ....    0.0000
   Turn off err/grad.   DampErr         ....    0.0300

SCF Procedure:
 Maximum # iterations   MaxIter         ....  1500
 SCF integral mode      SCFMode         .... Direct
   Integral package                     .... SHARK and LIBINT hybrid scheme
 Reset frequency        DirectResetFreq ....    20
 Integral Threshold     Thresh          ....  1.000e-12 Eh
 Primitive CutOff       TCut            ....  1.000e-13 Eh

Convergence Tolerance:
 Convergence Check Mode ConvCheckMode   .... Total+1el-Energy
 Convergence forced     ConvForced      .... 0
 Energy Change          TolE            ....  1.000e-08 Eh
 1-El. energy change                    ....  1.000e-05 Eh
 Orbital Gradient       TolG            ....  1.000e-05
 Orbital Rotation angle TolX            ....  1.000e-05
 DIIS Error             TolErr          ....  5.000e-07

------------------------------
INITIAL GUESS: MODEL POTENTIAL
------------------------------
Loading Hartree-Fock densities                     ... done
Calculating cut-offs                               ... done
Initializing the effective Hamiltonian             ... done
Setting up the integral package (SHARK)            ... done
Starting the Coulomb interaction                   ... done (   0.4 sec)
Making the grid                                    ... done (   0.5 sec)
Mapping shells                                     ... done
Starting the XC term evaluation                    ... done (   0.3 sec)
  promolecular density results
     # of electrons  =     61.992919920
     EX              =    -50.864391171
     EC              =     -2.072193318
     EX+EC           =    -52.936584489
Transforming the Hamiltonian                       ... done (   0.1 sec)
Diagonalizing the Hamiltonian                      ... done (   0.1 sec)
Back transforming the eigenvectors                 ... done (   0.2 sec)
Now organizing SCF variables                       ... done
                      ------------------
                      INITIAL GUESS DONE (   2.7 sec)
                      ------------------
             **** ENERGY FILE WAS UPDATED (cs_rporg_100_ox_freq_06.en.tmp) ****
Finished Guess after   4.5 sec
Maximum memory used throughout the entire GUESS-calculation: 38.2 MB


           ************************************************************
           *        Program running with 12 parallel MPI-processes    *
           *              working on a common directory               *
           ************************************************************

-------------------------------------------------------------------------------------------
                                      ORCA LEAN-SCF
                              memory conserving SCF solver
-------------------------------------------------------------------------------------------

--------------------
CPCM SOLVATION MODEL
--------------------
CPCM parameters:
  Epsilon                                         ...      35.6880
  Refrac                                          ...       1.3442
  Rsolv                                           ...       2.1900
  Surface type                                    ...    GEPOL SES
  Discretization scheme                           ... Constant num. charges
  Epsilon function type                           ...         CPCM
Solvent:                                          ... ACETONITRILE
SMD-CDS solvent descriptors:
  Soln                                            ...       1.3442
  Soln25                                          ...       1.3416
  Sola                                            ...       0.0700
  Solb                                            ...       0.3200
  Solg                                            ...      41.2500
  Solc                                            ...       0.0000
  Solh                                            ...       0.0000
Radii:
  Scheme                                          ... Element-dependent radii
  Radius for C  used is    3.4960 Bohr (=   1.8500 Ang.)
  Radius for O  used is    4.0969 Bohr (=   2.1680 Ang.)
  Radius for H  used is    2.2677 Bohr (=   1.2000 Ang.)
Calculating surface                               ...        done! (  0.0s)
Cavity surface points                             ...          502
Cavity Volume                                     ...     912.7414
Cavity Surface-area                               ...     527.0938
Calculating surface distance matrix               ...        done! (  0.0s)
Performing Cholesky decomposition & store         ...        done! (  0.0s)
Overall time for CPCM initialization              ...                 0.1s

----------------------------------------D-I-I-S--------------------------------------------
Iteration    Energy (Eh)           Delta-E    RMSDP     MaxDP     DIISErr   Damp  Time(sec)
-------------------------------------------------------------------------------------------
               ***  Starting incremental Fock matrix formation  ***
    1    -383.2821112623817044     0.00e+00  4.56e-04  2.44e-02  6.24e-02  0.850  10.1
Warning: op=1 Small HOMO/LUMO gap (   0.016) - skipping pre-diagonalization
         Will do a full diagonalization
    2    -383.3092610125448800    -2.71e-02  4.12e-04  2.04e-02  4.85e-02  0.850  11.8
                               ***Turning on AO-DIIS***
    3    -383.3280254332106551    -1.88e-02  3.17e-04  1.49e-02  3.43e-02  0.850  10.3
    4    -383.3401253983098513    -1.21e-02  2.64e-04  1.24e-02  2.71e-02  0.850  10.1
    5    -383.3488524190611315    -8.73e-03  1.47e-03  7.00e-02  2.26e-02  0.000  11.0
    6    -383.3903407487188133    -4.15e-02  1.55e-04  1.08e-02  4.65e-03  0.000  10.3
    7    -383.3907116929411814    -3.71e-04  4.26e-05  3.17e-03  2.13e-03  0.000  10.1
    8    -383.3908597570059555    -1.48e-04  3.39e-05  3.21e-03  1.49e-03  0.000  10.0
    9    -383.3909196389304270    -5.99e-05  2.19e-05  1.84e-03  1.20e-03  0.000   9.4
                              *** Initializing SOSCF ***
---------------------------------------S-O-S-C-F--------------------------------------
Iteration    Energy (Eh)           Delta-E    RMSDP     MaxDP     MaxGrad    Time(sec)
--------------------------------------------------------------------------------------
   10    -383.3909616341899209    -4.20e-05  1.68e-05  1.52e-03  7.41e-04    11.4
               *** Restarting incremental Fock matrix formation ***
   11    -383.3909838041889770    -2.22e-05  8.96e-06  6.68e-04  6.78e-04     9.5
   12    -383.3909949839382989    -1.12e-05  1.69e-05  1.29e-03  5.89e-04     9.8
   13    -383.3910037665739310    -8.78e-06  1.30e-05  1.18e-03  2.26e-04     8.9
   14    -383.3910054733976267    -1.71e-06  6.16e-06  7.84e-04  1.49e-04     8.8
   15    -383.3910059947291984    -5.21e-07  4.53e-06  3.82e-04  7.43e-05     8.8
   16    -383.3910062328126287    -2.38e-07  1.58e-06  1.12e-04  1.91e-05     9.5
   17    -383.3910062439198327    -1.11e-08  7.58e-07  7.84e-05  3.44e-05     8.5
   18    -383.3910062703768062    -2.65e-08  4.48e-07  2.76e-05  7.69e-06     8.5
   19    -383.3910062717726532    -1.40e-09  3.12e-07  2.55e-05  5.70e-06     8.3
                 **** Energy Check signals convergence ****

               *****************************************************
               *                     SUCCESS                       *
               *           SCF CONVERGED AFTER  19 CYCLES          *
               *****************************************************


SMD CDS free energy correction energy :                -1.64287     Kcal/mol
Total Energy after SMD CDS correction =              -383.393624359 Eh
             **** ENERGY FILE WAS UPDATED (cs_rporg_100_ox_freq_06.en.tmp) ****

----------------
TOTAL SCF ENERGY
----------------

Total Energy       :       -383.39362435860681 Eh          -10432.67091 eV

Components:
Nuclear Repulsion  :        402.46477986774721 Eh           10951.62343 eV
Electronic Energy  :       -785.76812596605157 Eh          -21381.83774 eV
One Electron Energy:      -1303.43953296177483 Eh          -35468.39287 eV
Two Electron Energy:        517.67140699572326 Eh           14086.55513 eV
CPCM Dielectric    :         -0.08766017346833 Eh              -2.38535 eV
SMD CDS (Gcds)     :         -0.00261808683416 Eh              -0.07124 eV

Virial components:
Potential Energy   :       -764.74952562382691 Eh          -20809.89255 eV
Kinetic Energy     :        381.35590126522015 Eh           10377.22164 eV
Virial Ratio       :          2.00534336321170

DFT components:
N(Alpha)           :       30.999992600516 electrons
N(Beta)            :       29.999993613280 electrons
N(Total)           :       60.999986213796 electrons
E(X)               :      -51.804286425338 Eh       
E(C)               :       -1.985570839465 Eh       
E(XC)              :      -53.789857264803 Eh       

CPCM Solvation Model Properties:
Surface-charge          :         -1.02716188171519
Corrected charge        :         -1.00000000000000
Outlying charge corr.   :          0.00005649069424 Eh               0.00154 eV
Free-energy (cav+disp)  :         -0.00261808683416 Eh              -0.07124 eV

---------------
SCF CONVERGENCE
---------------

  Last Energy change         ...    1.3958e-09  Tolerance :   1.0000e-08
  Last MAX-Density change    ...    2.5488e-05  Tolerance :   1.0000e-07
  Last RMS-Density change    ...    3.1171e-07  Tolerance :   5.0000e-09
  Last DIIS Error            ...    7.4118e-04  Tolerance :   5.0000e-07
  Last Orbital Gradient      ...    5.6985e-06  Tolerance :   1.0000e-05
  Last Orbital Rotation      ...    8.9837e-05  Tolerance :   1.0000e-05


----------------------
UHF SPIN CONTAMINATION
----------------------

Warning: in a DFT calculation there is little theoretical justification to 
         calculate <S**2> as in Hartree-Fock theory. We will do it anyways
         but you should keep in mind that the values have only limited relevance

Expectation value of <S**2>     :     0.775913
Ideal value S*(S+1) for S=0.5   :     0.750000
Deviation                       :     0.025913

----------------
ORBITAL ENERGIES
----------------
                 SPIN UP ORBITALS
  NO   OCC          E(Eh)            E(eV) 
   0   1.0000     -19.083067      -519.2766 
   1   1.0000     -10.172941      -276.8198 
   2   1.0000     -10.146576      -276.1024 
   3   1.0000     -10.105367      -274.9810 
   4   1.0000     -10.102516      -274.9034 
   5   1.0000     -10.100356      -274.8447 
   6   1.0000     -10.094369      -274.6817 
   7   1.0000     -10.089870      -274.5593 
   8   1.0000     -10.070910      -274.0434 
   9   1.0000      -1.140222       -31.0270 
  10   1.0000      -0.877301       -23.8726 
  11   1.0000      -0.823793       -22.4165 
  12   1.0000      -0.769575       -20.9412 
  13   1.0000      -0.746345       -20.3091 
  14   1.0000      -0.651316       -17.7232 
  15   1.0000      -0.615959       -16.7611 
  16   1.0000      -0.601287       -16.3618 
  17   1.0000      -0.532245       -14.4831 
  18   1.0000      -0.511276       -13.9125 
  19   1.0000      -0.489988       -13.3333 
  20   1.0000      -0.486811       -13.2468 
  21   1.0000      -0.448784       -12.2120 
  22   1.0000      -0.436254       -11.8711 
  23   1.0000      -0.423469       -11.5232 
  24   1.0000      -0.397788       -10.8244 
  25   1.0000      -0.383332       -10.4310 
  26   1.0000      -0.370363       -10.0781 
  27   1.0000      -0.351839        -9.5740 
  28   1.0000      -0.332834        -9.0569 
  29   1.0000      -0.276537        -7.5250 
  30   1.0000      -0.262585        -7.1453 
  31   0.0000      -0.111882        -3.0445 
  32   0.0000      -0.062006        -1.6873 
  33   0.0000      -0.036683        -0.9982 
  34   0.0000       0.005841         0.1589 
  35   0.0000       0.018353         0.4994 
  36   0.0000       0.024137         0.6568 
  37   0.0000       0.033553         0.9130 
  38   0.0000       0.039945         1.0870 
  39   0.0000       0.043717         1.1896 
  40   0.0000       0.044455         1.2097 
  41   0.0000       0.059642         1.6229 

                 SPIN DOWN ORBITALS
  NO   OCC          E(Eh)            E(eV) 
   0   1.0000     -19.082379      -519.2579 
   1   1.0000     -10.166823      -276.6533 
   2   1.0000     -10.144824      -276.0547 
   3   1.0000     -10.102600      -274.9057 
   4   1.0000     -10.102065      -274.8912 
   5   1.0000     -10.094877      -274.6956 
   6   1.0000     -10.090333      -274.5719 
   7   1.0000     -10.090243      -274.5695 
   8   1.0000     -10.073070      -274.1022 
   9   1.0000      -1.136948       -30.9379 
  10   1.0000      -0.871888       -23.7253 
  11   1.0000      -0.814872       -22.1738 
  12   1.0000      -0.766265       -20.8511 
  13   1.0000      -0.731934       -19.9169 
  14   1.0000      -0.646506       -17.5923 
  15   1.0000      -0.610343       -16.6083 
  16   1.0000      -0.596180       -16.2229 
  17   1.0000      -0.530353       -14.4316 
  18   1.0000      -0.506987       -13.7958 
  19   1.0000      -0.484954       -13.1963 
  20   1.0000      -0.474801       -12.9200 
  21   1.0000      -0.447571       -12.1790 
  22   1.0000      -0.433942       -11.8082 
  23   1.0000      -0.422022       -11.4838 
  24   1.0000      -0.395362       -10.7584 
  25   1.0000      -0.369016       -10.0414 
  26   1.0000      -0.367817       -10.0088 
  27   1.0000      -0.350652        -9.5417 
  28   1.0000      -0.310342        -8.4448 
  29   1.0000      -0.270109        -7.3500 
  30   0.0000      -0.220993        -6.0135 
  31   0.0000      -0.078285        -2.1303 
  32   0.0000      -0.050141        -1.3644 
  33   0.0000      -0.010096        -0.2747 
  34   0.0000       0.007618         0.2073 
  35   0.0000       0.020554         0.5593 
  36   0.0000       0.025538         0.6949 
  37   0.0000       0.038120         1.0373 
  38   0.0000       0.041146         1.1196 
  39   0.0000       0.045967         1.2508 
  40   0.0000       0.046315         1.2603 
*Only the first 10 virtual orbitals were printed.

                    ********************************
                    * MULLIKEN POPULATION ANALYSIS *
                    ********************************

--------------------------------------------
MULLIKEN ATOMIC CHARGES AND SPIN POPULATIONS
--------------------------------------------
   0 C :   -0.843445   -0.017055
   1 C :   -0.105070    0.299379
   2 C :   -0.568833   -0.161918
   3 C :   -0.495000    0.242280
   4 C :    1.131228   -0.021383
   5 C :    0.400213    0.110129
   6 O :   -0.479307    0.012571
   7 C :   -0.373089    0.268443
   8 C :   -0.525242    0.198977
   9 H :    0.421942   -0.004170
  10 H :    0.622362    0.017941
  11 H :    0.170156    0.027678
  12 H :    0.640118    0.001410
  13 H :    0.382859    0.024827
  14 H :    0.621109    0.000892
Sum of atomic charges         :    1.0000000
Sum of atomic spin populations:    1.0000000

-----------------------------------------------------
MULLIKEN REDUCED ORBITAL CHARGES AND SPIN POPULATIONS
-----------------------------------------------------
CHARGE
  0 C s       :     3.980538  s :     3.980538
      pz      :     0.898702  p :     2.675384
      px      :     0.697199
      py      :     1.079484
      dz2     :     0.015516  d :     0.209027
      dxz     :     0.025361
      dyz     :     0.013385
      dx2y2   :     0.117702
      dxy     :     0.037063
      f0      :     0.000201  f :    -0.021503
      f+1     :    -0.000461
      f-1     :     0.001601
      f+2     :     0.000429
      f-2     :     0.000829
      f+3     :    -0.023193
      f-3     :    -0.000909

  1 C s       :     3.604351  s :     3.604351
      pz      :     0.815997  p :     2.638208
      px      :     0.904838
      py      :     0.917373
      dz2     :    -0.023669  d :    -0.137320
      dxz     :     0.008430
      dyz     :     0.024217
      dx2y2   :    -0.043408
      dxy     :    -0.102891
      f0      :     0.001210  f :    -0.000169
      f+1     :     0.000150
      f-1     :    -0.000133
      f+2     :     0.000998
      f-2     :     0.000712
      f+3     :    -0.001782
      f-3     :    -0.001323

  2 C s       :     3.594796  s :     3.594796
      pz      :     0.936029  p :     2.814960
      px      :     0.939524
      py      :     0.939406
      dz2     :     0.005160  d :     0.159647
      dxz     :     0.020408
      dyz     :     0.011690
      dx2y2   :     0.083195
      dxy     :     0.039194
      f0      :     0.000571  f :    -0.000571
      f+1     :    -0.000365
      f-1     :     0.000287
      f+2     :     0.000758
      f-2     :     0.000522
      f+3     :    -0.001485
      f-3     :    -0.000860

  3 C s       :     3.997808  s :     3.997808
      pz      :     0.888970  p :     2.558111
      px      :     0.744030
      py      :     0.925111
      dz2     :    -0.023911  d :    -0.042857
      dxz     :     0.009472
      dyz     :     0.006880
      dx2y2   :     0.034074
      dxy     :    -0.069373
      f0      :     0.000609  f :    -0.018063
      f+1     :     0.000275
      f-1     :     0.001773
      f+2     :     0.000294
      f-2     :     0.001192
      f+3     :    -0.022232
      f-3     :     0.000026

  4 C s       :     2.827231  s :     2.827231
      pz      :     0.902586  p :     1.943840
      px      :     0.147657
      py      :     0.893598
      dz2     :     0.009383  d :     0.177755
      dxz     :    -0.037636
      dyz     :    -0.013383
      dx2y2   :     0.142997
      dxy     :     0.076393
      f0      :     0.001579  f :    -0.080053
      f+1     :    -0.005592
      f-1     :     0.000578
      f+2     :    -0.002377
      f-2     :    -0.001629
      f+3     :    -0.067295
      f-3     :    -0.005318

  5 C s       :     3.457019  s :     3.457019
      pz      :     0.954060  p :     2.272829
      px      :     0.291881
      py      :     1.026887
      dz2     :    -0.044562  d :    -0.122755
      dxz     :     0.025209
      dyz     :    -0.025759
      dx2y2   :    -0.050683
      dxy     :    -0.026961
      f0      :     0.003281  f :    -0.007305
      f+1     :    -0.003004
      f-1     :    -0.000672
      f+2     :     0.007101
      f-2     :     0.002102
      f+3     :    -0.010651
      f-3     :    -0.005462

  6 O s       :     4.159574  s :     4.159574
      pz      :     1.611315  p :     4.223336
      px      :     1.209136
      py      :     1.402885
      dz2     :    -0.003919  d :     0.085917
      dxz     :     0.025363
      dyz     :     0.015629
      dx2y2   :     0.025717
      dxy     :     0.023127
      f0      :     0.001312  f :     0.010479
      f+1     :     0.000211
      f-1     :    -0.000063
      f+2     :     0.001263
      f-2     :     0.001468
      f+3     :     0.002177
      f-3     :     0.004111

  7 C s       :     3.842339  s :     3.842339
      pz      :     0.746439  p :     2.417178
      px      :     0.917730
      py      :     0.753009
      dz2     :    -0.000241  d :     0.068643
      dxz     :     0.003314
      dyz     :     0.043212
      dx2y2   :     0.009288
      dxy     :     0.013070
      f0      :     0.002810  f :     0.044930
      f+1     :    -0.001125
      f-1     :     0.001318
      f+2     :     0.001133
      f-2     :     0.011268
      f+3     :     0.002708
      f-3     :     0.026819

  8 C s       :     3.781482  s :     3.781482
      pz      :     0.897756  p :     2.733755
      px      :     0.955346
      py      :     0.880653
      dz2     :     0.015824  d :     0.012438
      dxz     :     0.004339
      dyz     :     0.024758
      dx2y2   :    -0.037011
      dxy     :     0.004528
      f0      :     0.000546  f :    -0.002434
      f+1     :     0.000862
      f-1     :     0.001100
      f+2     :     0.001526
      f-2     :     0.001323
      f+3     :    -0.014606
      f-3     :     0.006816

  9 H s       :     0.562635  s :     0.562635
      pz      :     0.018787  p :     0.008954
      px      :     0.016396
      py      :    -0.026228
      dz2     :    -0.000763  d :     0.006469
      dxz     :     0.000704
      dyz     :     0.004603
      dx2y2   :     0.000599
      dxy     :     0.001326

 10 H s       :     0.390407  s :     0.390407
      pz      :     0.006093  p :    -0.017578
      px      :    -0.020778
      py      :    -0.002893
      dz2     :    -0.000861  d :     0.004809
      dxz     :     0.002783
      dyz     :     0.000373
      dx2y2   :     0.001786
      dxy     :     0.000728

 11 H s       :     0.776381  s :     0.776381
      pz      :     0.014104  p :     0.044784
      px      :    -0.008640
      py      :     0.039320
      dz2     :    -0.000413  d :     0.008679
      dxz     :    -0.000033
      dyz     :     0.005320
      dx2y2   :     0.001335
      dxy     :     0.002469

 12 H s       :     0.395728  s :     0.395728
      pz      :     0.021345  p :    -0.046706
      px      :    -0.063685
      py      :    -0.004366
      dz2     :    -0.000008  d :     0.010860
      dxz     :     0.004628
      dyz     :     0.001305
      dx2y2   :     0.003024
      dxy     :     0.001911

 13 H s       :     0.585943  s :     0.585943
      pz      :     0.014635  p :     0.021262
      px      :     0.008710
      py      :    -0.002083
      dz2     :    -0.000138  d :     0.009935
      dxz     :     0.003787
      dyz     :     0.001080
      dx2y2   :     0.003641
      dxy     :     0.001566

 14 H s       :     0.418468  s :     0.418468
      pz      :     0.016867  p :    -0.046411
      px      :    -0.011131
      py      :    -0.052147
      dz2     :    -0.000094  d :     0.006835
      dxz     :    -0.000182
      dyz     :     0.006053
      dx2y2   :     0.000444
      dxy     :     0.000614


SPIN
  0 C s       :    -0.013598  s :    -0.013598
      pz      :    -0.006999  p :    -0.012633
      px      :    -0.004630
      py      :    -0.001004
      dz2     :    -0.000538  d :     0.010492
      dxz     :     0.009056
      dyz     :    -0.002457
      dx2y2   :     0.000861
      dxy     :     0.003569
      f0      :    -0.000126  f :    -0.001316
      f+1     :     0.000031
      f-1     :     0.000020
      f+2     :     0.000266
      f-2     :    -0.000195
      f+3     :    -0.000834
      f-3     :    -0.000478

  1 C s       :    -0.007903  s :    -0.007903
      pz      :     0.289145  p :     0.314852
      px      :    -0.001812
      py      :     0.027519
      dz2     :    -0.002202  d :    -0.004750
      dxz     :     0.002210
      dyz     :    -0.000257
      dx2y2   :    -0.001822
      dxy     :    -0.002679
      f0      :    -0.000739  f :    -0.002821
      f+1     :    -0.000476
      f-1     :    -0.000411
      f+2     :    -0.000452
      f-2     :     0.000027
      f+3     :    -0.000883
      f-3     :     0.000113

  2 C s       :    -0.027041  s :    -0.027041
      pz      :    -0.122233  p :    -0.148380
      px      :    -0.002565
      py      :    -0.023582
      dz2     :     0.001465  d :     0.013671
      dxz     :    -0.001787
      dyz     :     0.006364
      dx2y2   :     0.003249
      dxy     :     0.004380
      f0      :     0.000149  f :    -0.000168
      f+1     :     0.000264
      f-1     :     0.000138
      f+2     :     0.000409
      f-2     :     0.000127
      f+3     :    -0.000625
      f-3     :    -0.000630

  3 C s       :     0.013908  s :     0.013908
      pz      :     0.229597  p :     0.232703
      px      :     0.005269
      py      :    -0.002164
      dz2     :    -0.002260  d :    -0.002278
      dxz     :     0.002602
      dyz     :     0.000310
      dx2y2   :    -0.001290
      dxy     :    -0.001641
      f0      :    -0.000596  f :    -0.002052
      f+1     :    -0.000271
      f-1     :    -0.000344
      f+2     :    -0.000420
      f-2     :    -0.000262
      f+3     :    -0.000074
      f-3     :    -0.000085

  4 C s       :     0.001844  s :     0.001844
      pz      :     0.009221  p :    -0.021672
      px      :    -0.028665
      py      :    -0.002228
      dz2     :     0.000406  d :    -0.000289
      dxz     :    -0.010700
      dyz     :     0.001456
      dx2y2   :    -0.003494
      dxy     :     0.012043
      f0      :    -0.000414  f :    -0.001266
      f+1     :    -0.000057
      f-1     :     0.000069
      f+2     :    -0.001048
      f-2     :    -0.000699
      f+3     :     0.001536
      f-3     :    -0.000653

  5 C s       :     0.004951  s :     0.004951
      pz      :     0.077596  p :     0.101064
      px      :     0.007366
      py      :     0.016102
      dz2     :    -0.000495  d :     0.002518
      dxz     :    -0.002653
      dyz     :     0.000014
      dx2y2   :     0.000457
      dxy     :     0.005195
      f0      :    -0.000323  f :     0.001595
      f+1     :     0.000027
      f-1     :    -0.000152
      f+2     :     0.000293
      f-2     :    -0.000865
      f+3     :     0.002250
      f-3     :     0.000367

  6 O s       :     0.003066  s :     0.003066
      pz      :     0.014533  p :     0.001997
      px      :    -0.008278
      py      :    -0.004258
      dz2     :     0.000148  d :     0.006656
      dxz     :     0.006506
      dyz     :     0.001339
      dx2y2   :    -0.000809
      dxy     :    -0.000528
      f0      :    -0.000034  f :     0.000851
      f+1     :    -0.000012
      f-1     :     0.000023
      f+2     :     0.000313
      f-2     :     0.000596
      f+3     :     0.000053
      f-3     :    -0.000088

  7 C s       :    -0.037177  s :    -0.037177
      pz      :     0.297760  p :     0.304603
      px      :     0.006786
      py      :     0.000057
      dz2     :    -0.002522  d :     0.003822
      dxz     :     0.001497
      dyz     :     0.009778
      dx2y2   :    -0.002884
      dxy     :    -0.002049
      f0      :    -0.000619  f :    -0.002805
      f+1     :    -0.000577
      f-1     :    -0.000377
      f+2     :    -0.000073
      f-2     :     0.000129
      f+3     :    -0.000306
      f-3     :    -0.000981

  8 C s       :    -0.003807  s :    -0.003807
      pz      :     0.176039  p :     0.201826
      px      :     0.010943
      py      :     0.014843
      dz2     :    -0.001502  d :     0.003296
      dxz     :     0.000893
      dyz     :     0.001798
      dx2y2   :    -0.005124
      dxy     :     0.007230
      f0      :    -0.000407  f :    -0.002338
      f+1     :    -0.000191
      f-1     :    -0.000139
      f+2     :    -0.000731
      f-2     :     0.000297
      f+3     :    -0.000553
      f-3     :    -0.000614

  9 H s       :    -0.009212  s :    -0.009212
      pz      :     0.001955  p :     0.004658
      px      :    -0.000535
      py      :     0.003238
      dz2     :     0.000114  d :     0.000385
      dxz     :    -0.000237
      dyz     :     0.000571
      dx2y2   :     0.000028
      dxy     :    -0.000091

 10 H s       :     0.011361  s :     0.011361
      pz      :     0.003442  p :     0.005978
      px      :     0.003584
      py      :    -0.001048
      dz2     :     0.000086  d :     0.000602
      dxz     :     0.000819
      dyz     :    -0.000044
      dx2y2   :    -0.000030
      dxy     :    -0.000229

 11 H s       :     0.018632  s :     0.018632
      pz      :     0.006430  p :     0.008108
      px      :     0.000045
      py      :     0.001633
      dz2     :     0.000126  d :     0.000938
      dxz     :    -0.000018
      dyz     :     0.000971
      dx2y2   :    -0.000054
      dxy     :    -0.000087

 12 H s       :     0.002662  s :     0.002662
      pz      :    -0.004753  p :    -0.000809
      px      :     0.002829
      py      :     0.001114
      dz2     :    -0.000041  d :    -0.000443
      dxz     :    -0.000410
      dyz     :    -0.000155
      dx2y2   :     0.000093
      dxy     :     0.000070

 13 H s       :     0.016010  s :     0.016010
      pz      :     0.006311  p :     0.007892
      px      :     0.001279
      py      :     0.000301
      dz2     :     0.000128  d :     0.000925
      dxz     :     0.000972
      dyz     :     0.000164
      dx2y2   :    -0.000227
      dxy     :    -0.000112

 14 H s       :     0.002292  s :     0.002292
      pz      :    -0.001119  p :    -0.001478
      px      :     0.000405
      py      :    -0.000763
      dz2     :     0.000079  d :     0.000078
      dxz     :    -0.000126
      dyz     :    -0.000006
      dx2y2   :     0.000093
      dxy     :     0.000038



                     *******************************
                     * LOEWDIN POPULATION ANALYSIS *
                     *******************************

-------------------------------------------
LOEWDIN ATOMIC CHARGES AND SPIN POPULATIONS
-------------------------------------------
   0 C :    0.306485    0.050099
   1 C :    0.281984    0.151855
   2 C :    0.260205    0.018442
   3 C :    0.302084    0.111515
   4 C :   -0.105278    0.079713
   5 C :   -0.320073    0.057100
   6 O :    0.669993    0.057142
   7 C :    0.110881    0.216998
   8 C :    0.346020    0.149801
   9 H :   -0.130513    0.020852
  10 H :   -0.130432    0.037413
  11 H :   -0.140766    0.023793
  12 H :   -0.162118   -0.011196
  13 H :   -0.146209    0.036082
  14 H :   -0.142263    0.000393

----------------------------------------------------
LOEWDIN REDUCED ORBITAL CHARGES AND SPIN POPULATIONS
----------------------------------------------------
CHARGE
  0 C s       :     2.494939  s :     2.494939
      pz      :     0.575520  p :     2.258291
      px      :     0.831909
      py      :     0.850863
      dz2     :     0.064897  d :     0.619690
      dxz     :     0.096158
      dyz     :     0.040142
      dx2y2   :     0.244629
      dxy     :     0.173864
      f0      :     0.021950  f :     0.320594
      f+1     :     0.029891
      f-1     :     0.020759
      f+2     :     0.012111
      f-2     :     0.053357
      f+3     :     0.124987
      f-3     :     0.057539

  1 C s       :     2.495627  s :     2.495627
      pz      :     0.520029  p :     2.208185
      px      :     0.834641
      py      :     0.853515
      dz2     :     0.067896  d :     0.678966
      dxz     :     0.060893
      dyz     :     0.095454
      dx2y2   :     0.190463
      dxy     :     0.264261
      f0      :     0.020777  f :     0.335237
      f+1     :     0.022785
      f-1     :     0.027754
      f+2     :     0.051063
      f-2     :     0.018195
      f+3     :     0.136126
      f-3     :     0.058538

  2 C s       :     2.489835  s :     2.489835
      pz      :     0.596491  p :     2.276443
      px      :     0.841760
      py      :     0.838192
      dz2     :     0.067788  d :     0.650010
      dxz     :     0.045828
      dyz     :     0.075960
      dx2y2   :     0.218041
      dxy     :     0.242392
      f0      :     0.020979  f :     0.323508
      f+1     :     0.022667
      f-1     :     0.029062
      f+2     :     0.030919
      f-2     :     0.024780
      f+3     :     0.136769
      f-3     :     0.058332

  3 C s       :     2.491852  s :     2.491852
      pz      :     0.543271  p :     2.225692
      px      :     0.835766
      py      :     0.846655
      dz2     :     0.064790  d :     0.656502
      dxz     :     0.115590
      dyz     :     0.037769
      dx2y2   :     0.268189
      dxy     :     0.170165
      f0      :     0.021342  f :     0.323869
      f+1     :     0.028880
      f-1     :     0.020089
      f+2     :     0.013579
      f-2     :     0.053514
      f+3     :     0.129069
      f-3     :     0.057396

  4 C s       :     2.458090  s :     2.458090
      pz      :     0.590439  p :     2.242136
      px      :     0.849573
      py      :     0.802124
      dz2     :     0.089483  d :     0.892680
      dxz     :     0.136678
      dyz     :     0.100546
      dx2y2   :     0.277340
      dxy     :     0.288632
      f0      :     0.032917  f :     0.512373
      f+1     :     0.039909
      f-1     :     0.033415
      f+2     :     0.081275
      f-2     :     0.030946
      f+3     :     0.187935
      f-3     :     0.105976

  5 C s       :     2.453660  s :     2.453660
      pz      :     0.619070  p :     2.180678
      px      :     0.730260
      py      :     0.831348
      dz2     :     0.101852  d :     1.033028
      dxz     :     0.168648
      dyz     :     0.127137
      dx2y2   :     0.306703
      dxy     :     0.328688
      f0      :     0.042927  f :     0.652708
      f+1     :     0.050927
      f-1     :     0.037617
      f+2     :     0.086209
      f-2     :     0.057823
      f+3     :     0.226796
      f-3     :     0.150408

  6 O s       :     2.992565  s :     2.992565
      pz      :     1.259112  p :     3.754033
      px      :     1.161658
      py      :     1.333262
      dz2     :     0.044219  d :     0.447414
      dxz     :     0.081419
      dyz     :     0.040823
      dx2y2   :     0.146735
      dxy     :     0.134218
      f0      :     0.008743  f :     0.135995
      f+1     :     0.009671
      f-1     :     0.007784
      f+2     :     0.012775
      f-2     :     0.015733
      f+3     :     0.034938
      f-3     :     0.046352

  7 C s       :     2.510027  s :     2.510027
      pz      :     0.510207  p :     2.114262
      px      :     0.845057
      py      :     0.758997
      dz2     :     0.077894  d :     0.797059
      dxz     :     0.055550
      dyz     :     0.145331
      dx2y2   :     0.308772
      dxy     :     0.209513
      f0      :     0.032965  f :     0.467770
      f+1     :     0.027467
      f-1     :     0.037561
      f+2     :     0.010826
      f-2     :     0.088536
      f+3     :     0.102978
      f-3     :     0.167436

  8 C s       :     2.501927  s :     2.501927
      pz      :     0.552985  p :     2.226730
      px      :     0.821771
      py      :     0.851973
      dz2     :     0.064409  d :     0.602147
      dxz     :     0.080503
      dyz     :     0.047042
      dx2y2   :     0.182603
      dxy     :     0.227592
      f0      :     0.022457  f :     0.323176
      f+1     :     0.025671
      f-1     :     0.025048
      f+2     :     0.031336
      f-2     :     0.032522
      f+3     :     0.082922
      f-3     :     0.103220

  9 H s       :     0.657657  s :     0.657657
      pz      :     0.065714  p :     0.275728
      px      :     0.074371
      py      :     0.135643
      dz2     :     0.020654  d :     0.197128
      dxz     :     0.009164
      dyz     :     0.047794
      dx2y2   :     0.058303
      dxy     :     0.061213

 10 H s       :     0.672706  s :     0.672706
      pz      :     0.058177  p :     0.266069
      px      :     0.144945
      py      :     0.062947
      dz2     :     0.022741  d :     0.191657
      dxz     :     0.049420
      dyz     :     0.006160
      dx2y2   :     0.043370
      dxy     :     0.069965

 11 H s       :     0.650599  s :     0.650599
      pz      :     0.067560  p :     0.284323
      px      :     0.071983
      py      :     0.144781
      dz2     :     0.022492  d :     0.205844
      dxz     :     0.003134
      dyz     :     0.054082
      dx2y2   :     0.045219
      dxy     :     0.080916

 12 H s       :     0.652338  s :     0.652338
      pz      :     0.077300  p :     0.296000
      px      :     0.129924
      py      :     0.088776
      dz2     :     0.022960  d :     0.213780
      dxz     :     0.050384
      dyz     :     0.012516
      dx2y2   :     0.069214
      dxy     :     0.058705

 13 H s       :     0.650711  s :     0.650711
      pz      :     0.064922  p :     0.288346
      px      :     0.126579
      py      :     0.096845
      dz2     :     0.023133  d :     0.207152
      dxz     :     0.037453
      dyz     :     0.017270
      dx2y2   :     0.076142
      dxy     :     0.053154

 14 H s       :     0.649996  s :     0.649996
      pz      :     0.069511  p :     0.284231
      px      :     0.070291
      py      :     0.144430
      dz2     :     0.022123  d :     0.208035
      dxz     :     0.002769
      dyz     :     0.057538
      dx2y2   :     0.046106
      dxy     :     0.079500


SPIN
  0 C s       :    -0.000729  s :    -0.000729
      pz      :    -0.001831  p :    -0.006031
      px      :    -0.003196
      py      :    -0.001003
      dz2     :     0.000050  d :     0.037055
      dxz     :     0.033741
      dyz     :     0.000907
      dx2y2   :     0.000968
      dxy     :     0.001390
      f0      :     0.001887  f :     0.019804
      f+1     :    -0.000235
      f-1     :    -0.000044
      f+2     :     0.001685
      f-2     :     0.015408
      f+3     :     0.000407
      f-3     :     0.000695

  1 C s       :     0.006244  s :     0.006244
      pz      :     0.158205  p :     0.163668
      px      :     0.002254
      py      :     0.003210
      dz2     :    -0.001745  d :    -0.011359
      dxz     :    -0.002786
      dyz     :    -0.005010
      dx2y2   :    -0.000921
      dxy     :    -0.000896
      f0      :    -0.003207  f :    -0.006698
      f+1     :    -0.000350
      f-1     :    -0.000250
      f+2     :    -0.003866
      f-2     :     0.001960
      f+3     :    -0.000414
      f-3     :    -0.000572

  2 C s       :    -0.002628  s :    -0.002628
      pz      :    -0.053823  p :    -0.060132
      px      :    -0.002209
      py      :    -0.004099
      dz2     :     0.000536  d :     0.052093
      dxz     :     0.011378
      dyz     :     0.037306
      dx2y2   :     0.001712
      dxy     :     0.001161
      f0      :     0.003477  f :     0.029108
      f+1     :     0.000017
      f-1     :    -0.000162
      f+2     :     0.016741
      f-2     :     0.007593
      f+3     :     0.000503
      f-3     :     0.000940

  3 C s       :     0.004460  s :     0.004460
      pz      :     0.116344  p :     0.119786
      px      :     0.001529
      py      :     0.001914
      dz2     :    -0.001358  d :    -0.009435
      dxz     :    -0.005329
      dyz     :    -0.000903
      dx2y2   :    -0.001312
      dxy     :    -0.000534
      f0      :    -0.002376  f :    -0.003297
      f+1     :    -0.000132
      f-1     :    -0.000344
      f+2     :    -0.000796
      f-2     :     0.001333
      f+3     :    -0.000617
      f-3     :    -0.000364

  4 C s       :    -0.000105  s :    -0.000105
      pz      :     0.017342  p :     0.013485
      px      :    -0.001679
      py      :    -0.002179
      dz2     :    -0.000109  d :     0.039480
      dxz     :     0.034144
      dyz     :     0.003467
      dx2y2   :     0.001140
      dxy     :     0.000839
      f0      :     0.001478  f :     0.026853
      f+1     :    -0.000222
      f-1     :    -0.000124
      f+2     :     0.011784
      f-2     :     0.012924
      f+3     :     0.000225
      f-3     :     0.000788

  5 C s       :     0.002150  s :     0.002150
      pz      :     0.044326  p :     0.045829
      px      :     0.000981
      py      :     0.000523
      dz2     :    -0.000269  d :    -0.008121
      dxz     :    -0.003025
      dyz     :    -0.003998
      dx2y2   :    -0.000465
      dxy     :    -0.000363
      f0      :    -0.000708  f :     0.017242
      f+1     :    -0.000120
      f-1     :    -0.000102
      f+2     :     0.004980
      f-2     :     0.013949
      f+3     :    -0.000772
      f-3     :     0.000015

  6 O s       :     0.000988  s :     0.000988
      pz      :     0.018777  p :     0.014329
      px      :    -0.002277
      py      :    -0.002170
      dz2     :     0.000073  d :     0.029165
      dxz     :     0.017096
      dyz     :     0.010436
      dx2y2   :     0.000259
      dxy     :     0.001300
      f0      :     0.001377  f :     0.012660
      f+1     :    -0.000046
      f-1     :    -0.000018
      f+2     :     0.002586
      f-2     :     0.008316
      f+3     :     0.000303
      f-3     :     0.000143

  7 C s       :     0.006864  s :     0.006864
      pz      :     0.177410  p :     0.178948
      px      :     0.001496
      py      :     0.000042
      dz2     :    -0.001637  d :     0.022016
      dxz     :     0.000932
      dyz     :     0.023232
      dx2y2   :    -0.000709
      dxy     :     0.000199
      f0      :    -0.001734  f :     0.009170
      f+1     :    -0.000464
      f-1     :    -0.000335
      f+2     :     0.000952
      f-2     :     0.010585
      f+3     :     0.000235
      f-3     :    -0.000069

  8 C s       :     0.002936  s :     0.002936
      pz      :     0.093675  p :     0.091963
      px      :    -0.000289
      py      :    -0.001423
      dz2     :    -0.001059  d :     0.036581
      dxz     :     0.030964
      dyz     :     0.005862
      dx2y2   :    -0.000381
      dxy     :     0.001196
      f0      :     0.000141  f :     0.018320
      f+1     :    -0.000365
      f-1     :    -0.000302
      f+2     :     0.003370
      f-2     :     0.014982
      f+3     :     0.000348
      f-3     :     0.000145

  9 H s       :    -0.003015  s :    -0.003015
      pz      :     0.011759  p :     0.012557
      px      :    -0.000262
      py      :     0.001060
      dz2     :    -0.000064  d :     0.011310
      dxz     :    -0.000364
      dyz     :     0.011562
      dx2y2   :     0.000090
      dxy     :     0.000086

 10 H s       :    -0.006333  s :    -0.006333
      pz      :     0.021967  p :     0.024303
      px      :     0.002430
      py      :    -0.000094
      dz2     :    -0.000075  d :     0.019443
      dxz     :     0.016306
      dyz     :     0.002349
      dx2y2   :     0.000736
      dxy     :     0.000127

 11 H s       :    -0.003697  s :    -0.003697
      pz      :     0.013704  p :     0.015188
      px      :    -0.000053
      py      :     0.001537
      dz2     :    -0.000066  d :     0.012302
      dxz     :    -0.000156
      dyz     :     0.011794
      dx2y2   :     0.000566
      dxy     :     0.000164

 12 H s       :     0.001816  s :     0.001816
      pz      :    -0.007362  p :    -0.008567
      px      :    -0.000704
      py      :    -0.000501
      dz2     :     0.000020  d :    -0.004444
      dxz     :    -0.004264
      dyz     :     0.000558
      dx2y2   :    -0.000378
      dxy     :    -0.000380

 13 H s       :    -0.004791  s :    -0.004791
      pz      :     0.020916  p :     0.023077
      px      :     0.001590
      py      :     0.000571
      dz2     :    -0.000080  d :     0.017795
      dxz     :     0.013380
      dyz     :     0.003401
      dx2y2   :     0.000394
      dxy     :     0.000702

 14 H s       :     0.000431  s :     0.000431
      pz      :    -0.000411  p :    -0.000850
      px      :    -0.000339
      py      :    -0.000100
      dz2     :     0.000000  d :     0.000811
      dxz     :     0.001395
      dyz     :    -0.000196
      dx2y2   :    -0.000076
      dxy     :    -0.000312



                      *****************************
                      * MAYER POPULATION ANALYSIS *
                      *****************************

  NA   - Mulliken gross atomic population
  ZA   - Total nuclear charge
  QA   - Mulliken gross atomic charge
  VA   - Mayer's total valence
  BVA  - Mayer's bonded valence
  FA   - Mayer's free valence

  ATOM       NA         ZA         QA         VA         BVA        FA
  0 C      6.8434     6.0000    -0.8434     2.9189     2.9157     0.0031
  1 C      6.1051     6.0000    -0.1051     2.4288     2.3448     0.0840
  2 C      6.5688     6.0000    -0.5688     2.8906     2.8745     0.0161
  3 C      6.4950     6.0000    -0.4950     2.3081     2.2554     0.0527
  4 C      4.8688     6.0000     1.1312     2.1438     2.1375     0.0064
  5 C      5.5998     6.0000     0.4002     2.2080     2.2002     0.0078
  6 O      8.4793     8.0000    -0.4793     1.8037     1.8018     0.0019
  7 C      6.3731     6.0000    -0.3731     2.5271     2.4286     0.0985
  8 C      6.5252     6.0000    -0.5252     2.9783     2.9418     0.0364
  9 H      0.5781     1.0000     0.4219     0.7079     0.7078     0.0001
 10 H      0.3776     1.0000     0.6224     0.4608     0.4605     0.0003
 11 H      0.8298     1.0000     0.1702     1.1829     1.1824     0.0005
 12 H      0.3599     1.0000     0.6401     0.2102     0.2103    -0.0001
 13 H      0.6171     1.0000     0.3829     0.8675     0.8670     0.0005
 14 H      0.3789     1.0000     0.6211     0.2929     0.2928     0.0001

  Mayer bond orders larger than 0.100000
B(  0-C ,  1-C ) :   1.0514 B(  0-C ,  2-C ) :   0.3919 B(  0-C ,  4-C ) :   0.1183 
B(  0-C ,  5-C ) :   1.2370 B(  0-C , 13-H ) :   0.1081 B(  1-C ,  2-C ) :   1.0723 
B(  1-C ,  3-C ) :  -0.3578 B(  1-C ,  5-C ) :  -0.6861 B(  1-C ,  7-C ) :   0.1159 
B(  1-C ,  8-C ) :   0.1145 B(  1-C , 12-H ) :   0.1541 B(  1-C , 13-H ) :   0.7609 
B(  1-C , 14-H ) :   0.1521 B(  2-C ,  3-C ) :   1.1031 B(  2-C ,  5-C ) :   0.1023 
B(  2-C ,  8-C ) :   0.2075 B(  2-C , 12-H ) :   0.1975 B(  3-C ,  4-C ) :   0.6625 
B(  3-C ,  5-C ) :  -0.7206 B(  3-C ,  9-H ) :   0.1377 B(  3-C , 11-H ) :   1.2786 
[...]
     23      -0.000088  -0.000062   0.000044  -0.000001   0.000002  -0.000001
     24      -0.149250  -0.226302   0.099369   0.000016   0.000205  -0.000251
     25      -0.013944  -0.020052   0.023302  -0.000101  -0.000357  -0.000157
     26       0.000181   0.000256  -0.000074  -0.000003   0.000000  -0.000002
     27       0.224868   0.263131  -0.118005  -0.000704  -0.002209  -0.000374
     28       0.148084   0.201813  -0.071512   0.000958   0.003820  -0.000699
     29      -0.000459  -0.000594   0.000477  -0.000003   0.000011  -0.000005
     30       0.031216   0.009815  -0.122760   0.004276  -0.003476   0.003145
     31       0.093997   0.089159   0.021820   0.000420  -0.000605  -0.000076
     32       0.000009  -0.000003   0.000216  -0.000012   0.000010  -0.000010
     33      -0.252063   0.357943  -0.259591   0.013221   0.024697   0.024428
     34      -0.127140  -0.099113  -0.028257   0.313757   0.616660   0.683784
     35      -0.000504   0.000390  -0.000491  -0.000136  -0.000260  -0.000277
     36       0.084482   0.181417   0.012667  -0.573457  -0.370585   0.518202
     37      -0.532024  -0.040829  -0.141057  -0.279204  -0.184069   0.251652
     38       0.001453   0.000169   0.000523  -0.000376  -0.000260   0.000353
     39      -0.252250   0.264310   0.205667   0.576213  -0.518581   0.104592
     40      -0.545610   0.388482   0.132657  -0.359367   0.326121  -0.068906
     41      -0.001083   0.000733  -0.000165   0.001315  -0.001189   0.000238
     42      -0.030489  -0.015247   0.369577   0.003165  -0.005412   0.011212
     43      -0.067330   0.182499   0.236252   0.161460  -0.255026   0.419656
     44       0.000125  -0.000164   0.001541  -0.000133   0.000217  -0.000371
                 42         43         44    
      0      -0.001589   0.000373  -0.000450
      1      -0.076555  -0.000092   0.001039
      2       0.000061   0.000006   0.000002
      3       0.029666  -0.000345   0.000270
      4      -0.016795   0.000084  -0.000241
      5       0.000059   0.000003   0.000004
      6       0.023680   0.000021  -0.000231
      7       0.011879   0.000003   0.000250
      8       0.000018  -0.000003   0.000000
      9      -0.000653  -0.000126   0.000136
     10       0.019440  -0.000146  -0.000225
     11      -0.000006  -0.000006  -0.000001
     12      -0.000771   0.002734   0.003687
     13       0.000033  -0.001398  -0.001056
     14      -0.000001  -0.000008  -0.000004
     15      -0.004182  -0.001805   0.002086
     16       0.002600  -0.000011  -0.001219
     17      -0.000003   0.000004   0.000002
     18       0.000097  -0.000236   0.000929
     19      -0.000136  -0.000515  -0.001315
     20       0.000002  -0.000001   0.000006
     21      -0.000171   0.060258  -0.066803
     22      -0.000344   0.007714  -0.012900
     23      -0.000000  -0.000092   0.000092
     24      -0.000044  -0.026831  -0.020821
     25       0.000676   0.058937   0.060781
     26       0.000002   0.000109   0.000109
     27       0.002598   0.271485   0.250956
     28      -0.005656  -0.671335  -0.635583
     29      -0.000006  -0.001340  -0.001263
     30       0.004377  -0.676946   0.715875
     31       0.000538  -0.097099   0.108192
     32      -0.000007   0.001213  -0.001285
     33      -0.007092  -0.000184  -0.000570
     34      -0.211470   0.003425   0.002460
     35       0.000082  -0.000010  -0.000005
     36      -0.256775  -0.001326  -0.000281
     37      -0.126235  -0.000417   0.000051
     38      -0.000174  -0.000007   0.000002
     39      -0.317018   0.002303  -0.001877
     40       0.197232  -0.001462   0.001277
     41      -0.000723   0.000012   0.000003
     42       0.025011  -0.000052  -0.000271
     43       0.851554  -0.000525  -0.008768
     44      -0.000756   0.000008   0.000012


-----------
IR SPECTRUM
-----------

 Mode   freq       eps      Int      T**2         TX        TY        TZ
       cm**-1   L/(mol*cm) km/mol    a.u.
----------------------------------------------------------------------------
  6:    177.63   0.003661   18.50  0.006432  ( 0.000109  0.000020 -0.080201)
  7:    226.61   0.000014    0.07  0.000020  (-0.000615 -0.000235  0.004373)
  8:    381.75   0.002951   14.91  0.002412  (-0.000646  0.000139  0.049107)
  9:    402.36   0.003736   18.88  0.002897  (-0.045100 -0.029380 -0.000061)
 10:    484.18   0.001679    8.48  0.001082  ( 0.000387 -0.000446  0.032887)
 11:    516.06   0.000611    3.09  0.000370  (-0.010335 -0.016209 -0.000198)
 12:    535.84   0.000129    0.65  0.000075  ( 0.000565 -0.000004  0.008645)
 13:    614.67   0.001054    5.33  0.000535  (-0.022980  0.002627  0.000227)
 14:    713.03   0.007976   40.31  0.003491  (-0.000018  0.000131 -0.059083)
 15:    764.80   0.001958    9.90  0.000799  ( 0.000621 -0.001159 -0.028237)
 16:    766.36   0.000550    2.78  0.000224  (-0.007596  0.012508 -0.003135)
 17:    804.71   0.021026  106.26  0.008154  ( 0.000387 -0.000309 -0.090297)
 18:    859.73   0.004897   24.75  0.001777  (-0.012038 -0.040402  0.000372)
 19:    868.63   0.000527    2.66  0.000189  ( 0.000214 -0.000094  0.013753)
 20:    887.82   0.004791   24.21  0.001684  (-0.040683 -0.005366 -0.000116)
 21:    907.91   0.000245    1.24  0.000084  (-0.000128 -0.000289 -0.009165)
 22:    960.98   0.001567    7.92  0.000509  ( 0.000250 -0.000162 -0.022559)
 23:    997.48   0.000222    1.12  0.000070  (-0.000019 -0.000328 -0.008334)
 24:   1004.93   0.001916    9.68  0.000595  (-0.019468  0.014696  0.000296)
 25:   1038.36   0.000789    3.99  0.000237  (-0.008942 -0.012536 -0.000045)
 26:   1097.31   0.003540   17.89  0.001007  ( 0.026008 -0.018171  0.000102)
 27:   1125.65   0.009723   49.13  0.002695  ( 0.051778 -0.003805 -0.000023)
 28:   1148.81   0.005396   27.27  0.001466  ( 0.028334  0.025748 -0.000037)
 29:   1180.26   0.014246   71.99  0.003767  (-0.033466 -0.051445 -0.000014)
 30:   1253.66   0.027852  140.75  0.006933  (-0.082741  0.009324  0.000080)
 31:   1278.53   0.000153    0.77  0.000037  (-0.006081  0.000663 -0.000060)
 32:   1372.60   0.014759   74.59  0.003356  (-0.030508  0.049243  0.000062)
 33:   1387.58   0.018796   94.99  0.004227  ( 0.047160  0.044757  0.000017)
 34:   1438.14   0.063366  320.22  0.013750  (-0.117022 -0.007464 -0.000059)
 35:   1447.49   0.002696   13.63  0.000581  (-0.020055  0.013380 -0.000127)
 36:   1496.42   0.020806  105.14  0.004339  ( 0.049661 -0.043273  0.000018)
 37:   1585.76   0.001772    8.96  0.000349  (-0.016286  0.009141 -0.000016)
 38:   1655.92   0.027462  138.78  0.005175  ( 0.064243 -0.032377  0.000078)
 39:   3197.89   0.000272    1.37  0.000027  ( 0.000018  0.005150  0.000043)
 40:   3206.40   0.000694    3.51  0.000068  ( 0.006430 -0.005116 -0.000066)
 41:   3215.29   0.000384    1.94  0.000037  (-0.005957  0.001340  0.000004)
 42:   3219.95   0.000432    2.19  0.000042  ( 0.004712  0.004438 -0.000072)
 43:   3255.18   0.003490   17.64  0.000335  (-0.011132 -0.014514 -0.000020)
 44:   3267.76   0.001220    6.16  0.000116  ( 0.009399 -0.005303 -0.000178)

* The epsilon (eps) is given for a Dirac delta lineshape.
** The dipole moment derivative (T) already includes vibrational overlap.

The first frequency considered to be a vibration is 6
The total number of vibrations considered is 39


--------------------------
THERMOCHEMISTRY AT 298.15K
--------------------------

Temperature         ...   298.15 K
Pressure            ...     1.00 atm
Total Mass          ...   118.13 AMU
Quasi RRHO          ...     True
Cut-Off Frequency   ...     1.00 cm^-1

Throughout the following assumptions are being made:
  (1) The electronic state is orbitally nondegenerate
      but the spin degeneracy is treated
  (2) There are no thermally accessible electronically excited states
  (3) Hindered rotations indicated by low frequency modes are not
      treated as such but are treated as vibrations and this may
      cause some error
  (4) All equations used are the standard statistical mechanics
      equations for an ideal gas
  (5) All vibrations are strictly harmonic

freq.     177.63  E(vib)   ...       0.37 
freq.     226.61  E(vib)   ...       0.33 
freq.     381.75  E(vib)   ...       0.21 
freq.     402.36  E(vib)   ...       0.19 
freq.     484.18  E(vib)   ...       0.15 
freq.     516.06  E(vib)   ...       0.13 
freq.     535.84  E(vib)   ...       0.12 
freq.     614.67  E(vib)   ...       0.10 
freq.     713.03  E(vib)   ...       0.07 
freq.     764.80  E(vib)   ...       0.06 
freq.     766.36  E(vib)   ...       0.06 
freq.     804.71  E(vib)   ...       0.05 
freq.     859.73  E(vib)   ...       0.04 
freq.     868.63  E(vib)   ...       0.04 
freq.     887.82  E(vib)   ...       0.04 
freq.     907.91  E(vib)   ...       0.03 
freq.     960.98  E(vib)   ...       0.03 
freq.     997.48  E(vib)   ...       0.02 
freq.    1004.93  E(vib)   ...       0.02 
freq.    1038.36  E(vib)   ...       0.02 
freq.    1097.31  E(vib)   ...       0.02 
freq.    1125.65  E(vib)   ...       0.01 
freq.    1148.81  E(vib)   ...       0.01 
freq.    1180.26  E(vib)   ...       0.01 
freq.    1253.66  E(vib)   ...       0.01 
freq.    1278.53  E(vib)   ...       0.01 
freq.    1372.60  E(vib)   ...       0.01 
freq.    1387.58  E(vib)   ...       0.00 
freq.    1438.14  E(vib)   ...       0.00 
freq.    1447.49  E(vib)   ...       0.00 
freq.    1496.42  E(vib)   ...       0.00 
freq.    1585.76  E(vib)   ...       0.00 
freq.    1655.92  E(vib)   ...       0.00 
freq.    3197.89  E(vib)   ...       0.00 
freq.    3206.40  E(vib)   ...       0.00 
freq.    3215.29  E(vib)   ...       0.00 
freq.    3219.95  E(vib)   ...       0.00 
freq.    3255.18  E(vib)   ...       0.00 
freq.    3267.76  E(vib)   ...       0.00 

------------
INNER ENERGY
------------

The inner energy is: U= E(el) + E(ZPE) + E(vib) + E(rot) + E(trans)
    E(el)   - is the total energy from the electronic structure calculation
              = E(kin-el) + E(nuc-el) + E(el-el) + E(nuc-nuc)
    E(ZPE)  - the the zero temperature vibrational energy from the frequency calculation
    E(vib)  - the the finite temperature correction to E(ZPE) due to population
              of excited vibrational states
    E(rot)  - is the rotational thermal energy
    E(trans)- is the translational thermal energy

Summary of contributions to the inner energy U:
Electronic energy                ...   -383.39820857 Eh
Zero point energy                ...      0.11560423 Eh      72.54 kcal/mol
Thermal vibrational correction   ...      0.00344584 Eh       2.16 kcal/mol
Thermal rotational correction    ...      0.00141627 Eh       0.89 kcal/mol
Thermal translational correction ...      0.00141627 Eh       0.89 kcal/mol
-----------------------------------------------------------------------
Total thermal energy                   -383.27632595 Eh


Summary of corrections to the electronic energy:
(perhaps to be used in another calculation)
Total thermal correction                  0.00627839 Eh       3.94 kcal/mol
Non-thermal (ZPE) correction              0.11560423 Eh      72.54 kcal/mol
-----------------------------------------------------------------------
Total correction                          0.12188262 Eh      76.48 kcal/mol


--------
ENTHALPY
--------

The enthalpy is H = U + kB*T
                kB is Boltzmann's constant
Total thermal energy              ...   -383.27632595 Eh 
Thermal Enthalpy correction       ...      0.00094421 Eh       0.59 kcal/mol
-----------------------------------------------------------------------
Total Enthalpy                    ...   -383.27538174 Eh


Note: Only C1 symmetry has been detected, increase convergence thresholds 
      if your molecule has a higher symmetry. Symmetry factor of 1.0 is   
      used for the rotational entropy correction. 
 

Note: Rotational entropy computed according to Herzberg 
Infrared and Raman Spectra, Chapter V,1, Van Nostrand Reinhold, 1945 
Point Group:  C1, Symmetry Number:   1  
Rotational constants in cm-1:     0.129879     0.056013     0.039135 

Vibrational entropy computed according to the QRRHO of S. Grimme
Chem.Eur.J. 2012 18 9955 using a reference frequency of 100.0 cm-1


-------
ENTROPY
-------

The entropy contributions are T*S = T*(S(el)+S(vib)+S(rot)+S(trans))
     S(el)   - electronic entropy
     S(vib)  - vibrational entropy
     S(rot)  - rotational entropy
     S(trans)- translational entropy
The entropies will be listed as multiplied by the temperature to get
units of energy

Electronic entropy                ...      0.00065446 Eh      0.41 kcal/mol
Vibrational entropy               ...      0.00517531 Eh      3.25 kcal/mol
Rotational entropy                ...      0.01336498 Eh      8.39 kcal/mol
Translational entropy             ...      0.01910727 Eh     11.99 kcal/mol
-----------------------------------------------------------------------
Final entropy term                ...      0.03830202 Eh     24.03 kcal/mol

In case the symmetry of your molecule has not been determined correctly
or in case you have a reason to use a different symmetry number we print 
out the resulting rotational entropy values for sn=1,12:

 non-linear molecules -----------------------------------
|  sn= 1 | S(rot)=       0.01336498 Eh      8.39 kcal/mol|
|  sn= 2 | S(rot)=       0.01271052 Eh      7.98 kcal/mol|
|  sn= 3 | S(rot)=       0.01232769 Eh      7.74 kcal/mol|
|  sn= 4 | S(rot)=       0.01205607 Eh      7.57 kcal/mol|
|  sn= 5 | S(rot)=       0.01184538 Eh      7.43 kcal/mol|
|  sn= 6 | S(rot)=       0.01167323 Eh      7.33 kcal/mol|
|  sn= 7 | S(rot)=       0.01152769 Eh      7.23 kcal/mol|
|  sn= 8 | S(rot)=       0.01140161 Eh      7.15 kcal/mol|
|  sn= 9 | S(rot)=       0.01129040 Eh      7.08 kcal/mol|
|  sn=10 | S(rot)=       0.01119092 Eh      7.02 kcal/mol|
|  sn=11 | S(rot)=       0.01110093 Eh      6.97 kcal/mol|
|  sn=12 | S(rot)=       0.01101878 Eh      6.91 kcal/mol|
 linear molecules ---------------------------------------
|  Dinfh | S(rot)=       0.00838564 Eh      5.26 kcal/mol|
|  Cinfv | S(rot)=       0.00904010 Eh      5.67 kcal/mol|
 --------------------------------------------------------


-------------------
GIBBS FREE ENERGY
-------------------

The Gibbs free energy is G = H - T*S

Total enthalpy                    ...   -383.27538174 Eh 
Total entropy correction          ...     -0.03830202 Eh    -24.03 kcal/mol
-----------------------------------------------------------------------
Final Gibbs free energy         ...   -383.31368376 Eh

For completeness - the Gibbs free energy minus the electronic energy
G-E(el)                           ...      0.08452481 Eh     53.04 kcal/mol


Maximum memory used throughout the entire PROP-calculation: 111.7 MB

--------------------------------
SUGGESTED CITATIONS FOR THIS RUN
--------------------------------

Below you find a list of papers that are relevant to this ORCA run
We neither can nor want to force you to cite these papers, but we appreciate if you do
You receive ORCA, which is the product of decades of hard work by many enthusiastic individuals, for free
The only thing we kindly ask in return is that you cite our papers,
We deeply appreciate it, if you show your appreciation for ORCA by not just citing the generic ORCA reference.

Please note that relegating all ORCA citations to the supporting information does *not* help us.
SI sections are not indexed - citations you put there will not count into any citation statistics
But we need these citations in order to attract the funding resources that allow us to do what we are doing

Therefore, if you are a happy ORCA user, please consider citing a few of the papers listed below in the main body of your paper

In addition to the list printed below, the program has created the file cs_rporg_100_ox_freq_06.bibtex that contains the list in bibtex format
You can import this file easily into all common literature databanks and citation aid programs


List of essential papers. We consider these as the minimum necessary citations

  1. Neese,F.
     Software update: the ORCA program system, version 5.0
     WIRES Comput. Molec. Sci., 2022 12(1)e1606
     doi.org/10.1002/wcms.1606

List of papers to cite with high priority. The work reported in these papers was absolutely
necessary for this run to complete.
Our perspective: the developers of density functionals and basis sets usually get cited in chemistry papers
Good! But without the algorithms to do something with them, the functionals or basis sets would not do anything.
Hence, in our opinion, the algorithm design and method developments papers are equally worthy of getting cited

  1. Neese,F.
     An improvement of the resolution of the identity approximation for the formation of the Coulomb matrix
     J. Comp. Chem., 2003 24(14)1740-1747
     doi.org/10.1002/jcc.10318
  2. Bykov,D.; Petrenko,T.; Izsak,R.; Kossmann,S.; Becker,U.; Valeev,E.; Neese,F.
     Efficient implementation of the analytic second derivatives of Hartree-Fock and hybrid DFT energies: a detailed analysis of different approximations
     Molec. Phys., 2015 113 1961-1977
     doi.org/10.1080/00268976.2015.1025114
  3. Garcia-Rates,M.; Neese,F.
     Efficient implementation of the analytical second derivatives of hartree-fock and hybrid DFT energies within the framework of the conductor-like polarizable continuum model
     J. Comput. Chem., 2019 40 1816-1828
     doi.org/10.1002/jcc.25833
  4. Garcia-Rates,M.; Neese,F.
     Effect of the Solute Cavity on the Solvation Energy and its Derivatives within the Framework of the Gaussian Charge Scheme
     J. Comput. Chem., 2020 41 922-939
     doi.org/10.1002/jcc.26139
  5. Neese,F.
     The SHARK Integral Generation and Digestion System
     J. Comp. Chem., 2022  1-16
     doi.org/10.1002/jcc.26942
  6. Lehtola,S.; Steigemann,C.; Oliveira,M.; Marques,M.
     Recent developments in Libxc - A comprehensive library of functionals for density functional theory
     Software X, 2018 7 
     doi.org/10.1016/j.softx.2017.11.002
  7. Grimme,S.; Antony,J.; Ehrlich,S.; Krieg,H.
     A consistent and accurate ab initio parametrization of density functional dispersion correction (DFT-D) for the 94 elements H-Pu
     J. Chem. Phys., 2010 132 154104-XXXX
     doi.org/10.1063/1.3382344
  8. Grimme,S.; Ehrlich,S.; Goerigk,L.
     Effect of the damping function in dispersion corrected density functional theory
     J. Comput. Chem., 2011 32(7)1456-1465
     doi.org/10.1002/jcc.21759

List of suggested additional citations. These are papers that are important in the 'surrounding' of 
of this run, or papers that preceded the highly important papers. If you like your results we are grateful for a citation.

  1. Neese,F.
     The ORCA program system
     WIRES Comput. Molec. Sci., 2012 2(1)73-78
     doi.org/10.1002/wcms.81
  2. Neese,F.
     Software update: the ORCA program system, version 4.0
     WIRES Comput. Molec. Sci., 2018 8(1)1-6
     doi.org/10.1002/wcms.1327
  3. Neese,F.; Wennmohs,F.; Becker,U.; Riplinger,C.
     The ORCA quantum chemistry program package
     J. Chem. Phys., 2020 152 Art. No. L224108
     doi.org/10.1063/5.0004608

List of optional additional citations

  1. Neese,F.
     Approximate second-order SCF convergence for spin unrestricted wavefunctions
     Chem. Phys. Lett., 2000 325(1-3)93-98
     doi.org/10.1016/s0009-2614(00)00662-x

Timings for individual modules:

Sum of individual times          ...     1829.214 sec (=  30.487 min)
Startup calculation              ...        6.534 sec (=   0.109 min)   0.4 %
SCF iterations                   ...      199.873 sec (=   3.331 min)  10.9 %
Property integrals               ...      763.418 sec (=  12.724 min)  41.7 %
SCF Response                     ...      737.124 sec (=  12.285 min)  40.3 %
Property calculations            ...      122.265 sec (=   2.038 min)   6.7 %
                             ****ORCA TERMINATED NORMALLY****
TOTAL RUN TIME: 0 days 0 hours 30 minutes 35 seconds 177 msec
