
                                 *****************
                                 * O   R   C   A *
                                 *****************

                                            #,                                       
                                            ###                                      
                                            ####                                     
                                            #####                                    
                                            ######                                   
                                           ########,                                 
                                     ,,################,,,,,                         
                               ,,#################################,,                 
                          ,,##########################################,,             
                       ,#########################################, ''#####,          
                    ,#############################################,,   '####,        
                  ,##################################################,,,,####,       
                ,###########''''           ''''###############################       
              ,#####''   ,,,,##########,,,,          '''####'''          '####       
            ,##' ,,,,###########################,,,                        '##       
           ' ,,###''''                  '''############,,,                           
         ,,##''                                '''############,,,,        ,,,,,,###''
      ,#''                                            '''#######################'''  
     '                                                          ''''####''''         
             ,#######,   #######,   ,#######,      ##                                
            ,#'     '#,  ##    ##  ,#'     '#,    #''#        ,####,   ,####,        
            ##       ##  ##   ,#'  ##            #'  '#       #'       #'  '#        
            ##       ##  #######   ##           ,######,      #####,   #    #        
            '#,     ,#'  ##    ##  '#,     ,#' ,#      #,     #,   #   #,  ,#        
             '#######'   ##     ##  '#######'  #'      '#     '####' # '####'        



                #########################################################
                #                        -***-                          #
                #          Department of theory and spectroscopy        #
                #                                                       #
                #                      Frank Neese                      #
                #                                                       #
                #     Directorship, Architecture, Infrastructure        #
                #                    SHARK, DRIVERS                     #
                #        Core code/Algorithms in most modules           #
                #                                                       #
                #        Max Planck Institute fuer Kohlenforschung      #
                #                Kaiser Wilhelm Platz 1                 #
                #                 D-45470 Muelheim/Ruhr                 #
                #                      Germany                          #
                #                                                       #
                #                  All rights reserved                  #
                #                        -***-                          #
                #########################################################


                         Program Version 6.0.0  -   RELEASE  -


 With contributions from (in alphabetic order):
   Daniel Aravena         : Magnetic Suceptibility
   Michael Atanasov       : Ab Initio Ligand Field Theory (pilot matlab implementation)
   Alexander A. Auer      : GIAO ZORA, VPT2 properties, NMR spectrum
   Ute Becker             : All parallelization in ORCA, NUMFREQ, NUMCALC
   Giovanni Bistoni       : ED, misc. LED, open-shell LED, HFLD
   Martin Brehm           : Molecular dynamics
   Dmytro Bykov           : pre 5.0 version of the SCF Hessian
   Marcos Casanova-Páez   : Triplet and SCS-CIS(D). UHF-(DLPNO)-IP/EA/STEOM-CCSD. UHF-CVS-IP/STEOM-CCSD
   Vijay G. Chilkuri      : MRCI spin determinant printing, contributions to CSF-ICE
   Pauline Colinet        : FMM embedding
   Dipayan Datta          : RHF DLPNO-CCSD density
   Achintya Kumar Dutta   : EOM-CC, STEOM-CC
   Nicolas Foglia         : Exact transition moments, OPA infrastructure, MCD improvements
   Dmitry Ganyushin       : Spin-Orbit,Spin-Spin,Magnetic field MRCI
   Miquel Garcia          : C-PCM and meta-GGA Hessian, CCSD/C-PCM, Gaussian charge scheme
   Tiago L. C. Gouveia    : GS-ROHF, GS-ROCIS
   Yang Guo               : DLPNO-NEVPT2, F12-NEVPT2, CIM, IAO-localization
   Andreas Hansen         : Spin unrestricted coupled pair/coupled cluster methods
   Ingolf Harden          : AUTO-CI MPn and infrastructure 
   Benjamin Helmich-Paris : MC-RPA, TRAH-(SCF,CASSCF), AVAS, COSX integrals, SCF dyn. polar.
   Lee Huntington         : MR-EOM, pCC
   Robert Izsak           : Overlap fitted RIJCOSX, COSX-SCS-MP3, EOM
   Riya Kayal             : Wick's Theorem for AUTO-CI, AUTO-CI UHF-CCSDT
   Emily Kempfer          : AUTO-CI, RHF CISDT and CCSDT
   Christian Kollmar      : KDIIS, OOCD, Brueckner-CCSD(T), CCSD density, CASPT2, CASPT2-K, improved NEVPT2
   Axel Koslowski         : Symmetry handling
   Simone Kossmann        : Meta GGA functionals, TD-DFT gradient, OOMP2, (MP2 Hessian; deprecated post 5.0)
   Lucas Lang             : DCDCAS
   Marvin Lechner         : AUTO-CI (C++ implementation), FIC-MRCC
   Spencer Leger          : CASSCF response
   Dagmar Lenk            : GEPOL surface, SMD, ORCA-2-JSON
   Dimitrios Liakos       : Extrapolation schemes; Compound Job, initial MDCI parallelization
   Dimitrios Manganas     : Further ROCIS development; embedding schemes. LFT, Crystal Embedding
   Dimitrios Pantazis     : SARC Basis sets
   Anastasios Papadopoulos: AUTO-CI, single reference methods and gradients
   Taras Petrenko         : pre 6.0 DFT Hessian and TD-DFT gradient, (ASA, deprecated), ECA, 1-Electron XAS/XES, NRVS
   Peter Pinski           : DLPNO-MP2, DLPNO-MP2 Gradient
   Christoph Reimann      : Effective Core Potentials
   Marius Retegan         : Local ZFS, SOC
   Christoph Riplinger    : Optimizer, TS searches, QM/MM, DLPNO-CCSD(T), (RO)-DLPNO pert. Triples
   Michael Roemelt        : Original ROCIS implementation
   Masaaki Saitow         : Open-shell DLPNO-CCSD energy and density
   Barbara Sandhoefer     : DKH picture change effects
   Kantharuban Sivalingam : CASSCF convergence/infrastructure, NEVPT2 and variants, FIC-MRCI
   Bernardo de Souza      : ESD, SOC TD-DFT
   Georgi Stoychev        : AutoAux, RI-MP2 NMR, DLPNO-MP2 response, X2C
   Van Anh Tran           : RI-MP2 g-tensors
   Willem Van den Heuvel  : Paramagnetic NMR
   Zikuan Wang            : NOTCH, Electric field optimization 
   Frank Wennmohs         : Technical directorship and infrastructure
   Hang Xu                : AUTO-CI-Response properties 


 We gratefully acknowledge several colleagues who have allowed us to
 interface, adapt or use parts of their codes:
   Stefan Grimme, W. Hujo, H. Kruse, P. Pracht,  : VdW corrections, initial TS optimization,
                  C. Bannwarth, S. Ehlert,         DFT functionals, gCP, sTDA/sTD-DF
                  L. Wittmann, M. Mueller
   Ed Valeev, F. Pavosevic, A. Kumar             : LibInt (2-el integral package), F12 methods
   Garnet Chan, S. Sharma, J. Yang, R. Olivares  : DMRG
   Ulf Ekstrom                                   : XCFun DFT Library
   Mihaly Kallay                                 : mrcc  (arbitrary order and MRCC methods)
   Frank Weinhold                                : gennbo (NPA and NBO analysis)
   Simon Mueller                                 : openCOSMO-RS
   Christopher J. Cramer and Donald G. Truhlar   : smd solvation model
   Lars Goerigk                                  : TD-DFT with DH, B97 family of functionals
   V. Asgeirsson, H. Jonsson                     : NEB implementation
   FAccTs GmbH                                   : IRC, NEB, NEB-TS, DLPNO-Multilevel, CI-OPT
                                                   MM, QMMM, 2- and 3-layer-ONIOM, Crystal-QMMM,
                                                   LR-CPCM, SF, NACMEs, symmetry and pop. for TD-DFT,
                                                   nearIR, NL-DFT gradient (VV10), updates on ESD,
                                                   ML-optimized integration grids, MBIS, APM,
                                                   GOAT, DOCKER, SOLVATOR, interface openCOSMO-RS
   S Lehtola, MJT Oliveira, MAL Marques          : LibXC Library
   Liviu Ungur et al                             : ANISO software


 Your calculation uses the libint2 library for the computation of 2-el integrals
 For citations please refer to: http://libint.valeyev.net

 Your ORCA version has been built with support for libXC version: 6.2.2
 For citations please refer to: https://libxc.gitlab.io

 This ORCA versions uses:
   CBLAS   interface :  Fast vector & matrix operations
   LAPACKE interface :  Fast linear algebra routines
   SCALAPACK package :  Parallel linear algebra routines
   Shared memory     :  Shared parallel matrices
   BLAS/LAPACK       :  OpenBLAS 0.3.27  USE64BITINT DYNAMIC_ARCH NO_AFFINITY Sandybridge SINGLE_THREADED
        Core in use  :  Sandybridge
   Copyright (c) 2011-2014, The OpenBLAS Project


NOTE: MaxCore=3500 MB was set to SCF,MP2,MDCI,CIPSI,MRCI and CIS
      => If you want to overwrite this, your respective input block should be placed after the MaxCore statement
Your calculation utilizes the atom-pairwise dispersion correction
with the Becke-Johnson damping scheme (D3BJ)


Your calculation utilizes the SMD solvation module
Please cite in your paper:
A.V. Marenich, C.J. Cramer, D.G. Truhlar J. Phys. Chem. B, 113, (2009), 6378 

Warning: RI is on but no J-basis has been assigned. Assigning Def2/J (nothing to worry about!)
================================================================================

----- Orbital basis set information -----
Your calculation utilizes the basis: aug-cc-pVTZ 
    H, B-Ne : Obtained from the ccRepo (grant-hill.group.shef.ac.uk/ccrepo) Feb. 2017
              R. A. Kendall, T. H. Dunning, Jr., R. J. Harrison, J. Chem. Phys. 96, 6796 (1992)
         He : Obtained from the ccRepo (grant-hill.group.shef.ac.uk/ccrepo) Feb. 2017
              D. E. Woon, T. H. Dunning, Jr., J. Chem. Phys. 100, 2975 (1994)
  Li-Be, Na : Obtained from the ccRepo (grant-hill.group.shef.ac.uk/ccrepo) Feb. 2017
              B. P. Prascher, D. E. Woon, K. A. Peterson, T. H. Dunning, Jr., A. K. Wilson, Theor. Chem. Acc. 128, 69 (2011)
         Mg : Obtained from the Peterson Research Group Website (tyr0.chem.wsu.edu/~kipeters) Feb. 2017
              B. P. Prascher, D. E. Woon, K. A. Peterson, T. H. Dunning, Jr., A. K. Wilson, Theor. Chem. Acc. 128, 69 (2011)
      Al-Ar : Obtained from the ccRepo (grant-hill.group.shef.ac.uk/ccrepo) Feb. 2017
              D. E. Woon, T. H. Dunning, Jr., J. Chem. Phys. 98, 1358 (1993)
      Sc-Zn : Obtained from the ccRepo (grant-hill.group.shef.ac.uk/ccrepo) Feb. 2017
              N. B. Balabanov, K. A. Peterson, J. Chem. Phys. 123, 064107 (2005)
              N. B. Balabanov, K. A. Peterson, J. Chem. Phys. 125, 074110 (2006)
      Ga-Kr : Obtained from the ccRepo (grant-hill.group.shef.ac.uk/ccrepo) Feb. 2017
              A. K. Wilson, D. E. Woon, K. A. Peterson, T. H. Dunning, Jr., J. Chem. Phys. 110, 7667 (1999)
     Ag, Au : Obtained from the Peterson Research Group Website (tyr0.chem.wsu.edu/~kipeters) Feb. 2017
              K. A. Peterson, C. Puzzarini, Theor. Chem. Acc. 114, 283 (2005)

----- AuxJ basis set information -----
Your calculation utilizes the auxiliary basis: def2/J
   F. Weigend, Phys. Chem. Chem. Phys. 8, 1057 (2006).

================================================================================
                                        WARNINGS
                       Please study these warnings very carefully!
================================================================================

Using LibXC functional ID 497 : Re-regularized SCAN exchange by Furness et al
[ 1]  J. W. Furness, A. D. Kaplan, J. Ning, J. P. Perdew, and J. Sun.,  J. Phys. Chem. Lett. 11, 8208-8215 (2020)
[ 2]  J. W. Furness, A. D. Kaplan, J. Ning, J. P. Perdew, and J. Sun.,  J. Phys. Chem. Lett. 11, 9248-9248 (2020)
Using LibXC functional ID 498 : Re-regularized SCAN correlation by Furness et al
[ 1]  J. W. Furness, A. D. Kaplan, J. Ning, J. P. Perdew, and J. Sun.,  J. Phys. Chem. Lett. 11, 8208-8215 (2020)
[ 2]  J. W. Furness, A. D. Kaplan, J. Ning, J. P. Perdew, and J. Sun.,  J. Phys. Chem. Lett. 11, 9248-9248 (2020)
Using LibXC functional ID 497 : Re-regularized SCAN exchange by Furness et al
[ 1]  J. W. Furness, A. D. Kaplan, J. Ning, J. P. Perdew, and J. Sun.,  J. Phys. Chem. Lett. 11, 8208-8215 (2020)
[ 2]  J. W. Furness, A. D. Kaplan, J. Ning, J. P. Perdew, and J. Sun.,  J. Phys. Chem. Lett. 11, 9248-9248 (2020)
Using LibXC functional ID 498 : Re-regularized SCAN correlation by Furness et al
[ 1]  J. W. Furness, A. D. Kaplan, J. Ning, J. P. Perdew, and J. Sun.,  J. Phys. Chem. Lett. 11, 8208-8215 (2020)
[ 2]  J. W. Furness, A. D. Kaplan, J. Ning, J. P. Perdew, and J. Sun.,  J. Phys. Chem. Lett. 11, 9248-9248 (2020)


WARNING: Found flag for RIJCOSX approximation but no HF exchange needed!
  ===> : RIJCOSX  will be disabled and Split-RI-J is turned on

WARNING: Geometry Optimization
  ===> : Switching off AutoStart
         For restart on a previous wavefunction, please use MOREAD

================================================================================
                                       INPUT FILE
================================================================================
NAME = cs_rporg_061_red_opt_06.inp
|  1> !r2SCAN opt aug-cc-pVTZ d3 TightSCF SlowConv RIJCOSX defgrid2
|  2> 
|  3> %pal
|  4> nprocs 8
|  5> end
|  6> 
|  7> %scf
|  8> MaxIter 1500
|  9> end
| 10> 
| 11> %maxcore 3500
| 12> 
| 13> !CPCM
| 14> %cpcm smd true
| 15> SMDsolvent "MeCN"
| 16> surfacetype gepol_ses
| 17> rsolv 2.19
| 18> end 
| 19> 
| 20> * xyz 0 1
| 21> C           1.36094883267894     -0.66831836744035      0.79166505304401
| 22> C           2.61668489634387     -1.26993624441883      0.83762450630671
| 23> C           3.69751463551123     -0.71498852855237      0.15220113395429
| 24> C           3.51411500210824      0.45521897470958     -0.58452696169930
| 25> C           2.26200602044100      1.06208181225052     -0.64510108123094
| 26> C           1.18681200151517      0.49836983896063      0.04263488062587
| 27> O          -0.00001482572359      1.16979071588351      0.00005454238981
| 28> C          -1.18682038085230      0.49834069380338     -0.04260530375666
| 29> C          -2.26210069770780      1.06211241497205      0.64495038697290
| 30> C          -3.51419441314783      0.45522857582203      0.58430306316011
| 31> C          -3.69749941395526     -0.71506183581738     -0.15231803955518
| 32> C          -2.61658550079969     -1.27006941979564     -0.83755825340367
| 33> C          -1.36085917884001     -0.66843361449673     -0.79152524362506
| 34> H          -0.51558365320611     -1.09715909206061     -1.33585483016717
| 35> H          -2.75062021450227     -2.18281812892327     -1.42596293506599
| 36> H          -4.68044516686291     -1.19217947086648     -0.19470697547587
| 37> H          -4.35472302990288      0.90118829684160      1.12448028512422
| 38> H          -2.09557313650778      1.97752399950586      1.21789909020225
| 39> H           2.09540249638844      1.97742680661202     -1.21813253528145
| 40> H           4.35457955862348      0.90113009122578     -1.12484535245104
| 41> H           4.68047118965145     -1.19208889118135      0.19453111833043
| 42> H           2.75079772312689     -2.18261728806241      1.42611640363857
| 43> H           0.51573555561975     -1.09698553897151      1.33613674796315
| 44> *
| 45> 
| 46>                          ****END OF INPUT****
================================================================================

                       *****************************
                       * Geometry Optimization Run *
                       *****************************

Geometry optimization settings:
Update method            Update   .... BFGS
Choice of coordinates    CoordSys .... (2022) Redundant Internals
Initial Hessian          InHess   .... Almloef's Model
Max. no of cycles        MaxIter  .... 69

Convergence Tolerances:
Energy Change            TolE     ....  5.0000e-06 Eh
Max. Gradient            TolMAXG  ....  3.0000e-04 Eh/bohr
RMS Gradient             TolRMSG  ....  1.0000e-04 Eh/bohr
Max. Displacement        TolMAXD  ....  4.0000e-03 bohr
RMS Displacement         TolRMSD  ....  2.0000e-03 bohr
Strict Convergence                .... False

------------------------------------------------------------------------------
                        ORCA OPTIMIZATION COORDINATE SETUP
------------------------------------------------------------------------------

The optimization will be done in redundant internal coordinates (2022)
Making redundant internal coordinates   ...  (2022 redundants) done
Evaluating the initial hessian          ...  (Almloef) done
Evaluating the coordinates              ...  done
Calculating the B-matrix                .... done
Calculating the G-matrix                .... done
Diagonalizing the G-matrix              .... done
Small eigenvalue found = 5.996e-03
Small eigenvalue found = 2.234e-02
Small eigenvalue found = 2.316e-02
The first mode is                       ....   50
The number of degrees of freedom        ....   63

    -----------------------------------------------------------------
                    Redundant Internal Coordinates


    -----------------------------------------------------------------
         Definition                    Initial Value    Approx d2E/dq
    -----------------------------------------------------------------
      1. B(C   1,C   0)                  1.3932         0.617557   
      2. B(C   2,C   1)                  1.3950         0.613473   
      3. B(C   3,C   2)                  1.3949         0.613615   
      4. B(C   4,C   3)                  1.3927         0.618536   
      5. B(C   5,C   4)                  1.3953         0.612804   
      6. B(C   5,C   0)                  1.3973         0.608197   
      7. B(O   6,C   5)                  1.3642         0.615118   
      8. B(C   7,O   6)                  1.3642         0.615122   
      9. B(C   8,C   7)                  1.3953         0.612800   
     10. B(C   9,C   8)                  1.3927         0.618539   
     11. B(C  10,C   9)                  1.3949         0.613614   
     12. B(C  11,C  10)                  1.3950         0.613475   
     13. B(C  12,C  11)                  1.3932         0.617554   
     14. B(C  12,C   7)                  1.3973         0.608195   
     15. B(H  13,C  12)                  1.0930         0.356188   
     16. B(H  14,C  11)                  1.0942         0.354574   
     17. B(H  15,C  10)                  1.0934         0.355572   
     18. B(H  16,C   9)                  1.0941         0.354654   
     19. B(H  17,C   8)                  1.0927         0.356554   
     20. B(H  18,C   4)                  1.0927         0.356555   
     21. B(H  19,C   3)                  1.0941         0.354653   
     22. B(H  20,C   2)                  1.0934         0.355572   
     23. B(H  21,C   1)                  1.0942         0.354573   
     24. B(H  22,C   0)                  1.0930         0.356188   
     25. A(C   5,C   0,H  22)          119.8763         0.351114   
     26. A(C   1,C   0,C   5)          119.3778         0.432261   
     27. A(C   1,C   0,H  22)          120.7457         0.352022   
     28. A(C   0,C   1,H  21)          119.2361         0.351752   
     29. A(C   0,C   1,C   2)          120.6882         0.432933   
     30. A(C   2,C   1,H  21)          120.0739         0.351358   
     31. A(C   3,C   2,H  20)          120.3100         0.351538   
     32. A(C   1,C   2,C   3)          119.4308         0.432435   
     33. A(C   1,C   2,H  20)          120.2590         0.351525   
     34. A(C   2,C   3,C   4)          120.4451         0.433074   
     35. A(C   2,C   3,H  19)          120.1133         0.351385   
     36. A(C   4,C   3,H  19)          119.4408         0.351859   
     37. A(C   5,C   4,H  18)          118.6487         0.351624   
     38. A(C   3,C   4,C   5)          119.6899         0.432971   
     39. A(C   3,C   4,H  18)          121.6612         0.352178   
     40. A(C   0,C   5,O   6)          122.4161         0.429132   
     41. A(C   0,C   5,C   4)          120.3655         0.431661   
     42. A(C   4,C   5,O   6)          117.1394         0.429713   
     43. A(C   5,O   6,C   7)          121.0340         0.427199   
     44. A(C   8,C   7,C  12)          120.3653         0.431661   
     45. A(O   6,C   7,C  12)          122.4171         0.429132   
     46. A(O   6,C   7,C   8)          117.1386         0.429713   
     47. A(C   9,C   8,H  17)          121.6611         0.352178   
     48. A(C   7,C   8,H  17)          118.6486         0.351623   
     49. A(C   7,C   8,C   9)          119.6900         0.432971   
     50. A(C  10,C   9,H  16)          120.1133         0.351385   
     51. A(C   8,C   9,H  16)          119.4408         0.351860   
     52. A(C   8,C   9,C  10)          120.4451         0.433075   
     53. A(C   9,C  10,C  11)          119.4307         0.432435   
     54. A(C  11,C  10,H  15)          120.2590         0.351525   
     55. A(C   9,C  10,H  15)          120.3101         0.351538   
     56. A(C  12,C  11,H  14)          119.2359         0.351752   
     57. A(C  10,C  11,H  14)          120.0738         0.351358   
     58. A(C  10,C  11,C  12)          120.6885         0.432933   
     59. A(C  11,C  12,H  13)          120.7454         0.352022   
     60. A(C   7,C  12,H  13)          119.8767         0.351114   
     61. A(C   7,C  12,C  11)          119.3777         0.432261   
     62. D(H  21,C   1,C   0,H  22)      0.0986         0.026378   
     63. D(H  21,C   1,C   0,C   5)    179.9075         0.026378   
     64. D(C   2,C   1,C   0,C   5)      0.4015         0.026378   
     65. D(C   2,C   1,C   0,H  22)   -179.4074         0.026378   
     66. D(C   3,C   2,C   1,H  21)   -179.4474         0.026009   
     67. D(H  20,C   2,C   1,C   0)    179.8932         0.026009   
     68. D(H  20,C   2,C   1,H  21)      0.3913         0.026009   
     69. D(C   3,C   2,C   1,C   0)      0.0545         0.026009   
     70. D(H  19,C   3,C   2,H  20)      0.0455         0.026022   
     71. D(H  19,C   3,C   2,C   1)    179.8841         0.026022   
     72. D(C   4,C   3,C   2,C   1)     -0.4405         0.026022   
     73. D(C   4,C   3,C   2,H  20)    179.7210         0.026022   
     74. D(H  18,C   4,C   3,C   2)   -179.8412         0.026466   
     75. D(C   5,C   4,C   3,H  19)   -179.9581         0.026466   
     76. D(C   5,C   4,C   3,C   2)      0.3643         0.026466   
     77. D(H  18,C   4,C   3,H  19)     -0.1636         0.026466   
     78. D(O   6,C   5,C   4,H  18)     -2.8565         0.025949   
     79. D(C   0,C   5,C   4,H  18)   -179.7018         0.025949   
     80. D(C   0,C   5,C   4,C   3)      0.0989         0.025949   
     81. D(O   6,C   5,C   0,H  22)      2.6580         0.025539   
     82. D(O   6,C   5,C   0,C   1)   -177.1526         0.025539   
     83. D(O   6,C   5,C   4,C   3)    176.9442         0.025949   
     84. D(C   4,C   5,C   0,H  22)    179.3323         0.025539   
     85. D(C   4,C   5,C   0,C   1)     -0.4784         0.025539   
     86. D(C   7,O   6,C   5,C   4)    144.2229         0.027729   
     87. D(C   7,O   6,C   5,C   0)    -39.0016         0.027729   
     88. D(C  12,C   7,O   6,C   5)    -38.9867         0.027729   
     89. D(C   8,C   7,O   6,C   5)    144.2371         0.027729   
     90. D(H  17,C   8,C   7,O   6)     -2.8559         0.025949   
     91. D(C   9,C   8,C   7,C  12)      0.0987         0.025949   
     92. D(C   9,C   8,C   7,O   6)    176.9446         0.025949   
     93. D(H  17,C   8,C   7,C  12)   -179.7018         0.025949   
     94. D(H  16,C   9,C   8,H  17)     -0.1638         0.026467   
     95. D(H  16,C   9,C   8,C   7)   -179.9581         0.026467   
     96. D(C  10,C   9,C   8,H  17)   -179.8414         0.026467   
     97. D(C  10,C   9,C   8,C   7)      0.3643         0.026467   
     98. D(H  15,C  10,C   9,H  16)      0.0457         0.026022   
     99. D(H  15,C  10,C   9,C   8)    179.7210         0.026022   
    100. D(C  11,C  10,C   9,H  16)    179.8842         0.026022   
    101. D(C  11,C  10,C   9,C   8)     -0.4404         0.026022   
    102. D(H  14,C  11,C  10,H  15)      0.3911         0.026010   
    103. D(H  14,C  11,C  10,C   9)   -179.4476         0.026010   
    104. D(C  12,C  11,C  10,H  15)    179.8932         0.026010   
    105. D(C  12,C  11,C  10,C   9)      0.0545         0.026010   
    106. D(H  13,C  12,C  11,H  14)      0.0986         0.026377   
    107. D(H  13,C  12,C  11,C  10)   -179.4077         0.026377   
    108. D(C   7,C  12,C  11,H  14)    179.9076         0.026377   
    109. D(C   7,C  12,C  11,C  10)      0.4013         0.026377   
    110. D(H  13,C  12,C   7,C   8)    179.3326         0.025538   
    111. D(H  13,C  12,C   7,O   6)      2.6578         0.025538   
    112. D(C  11,C  12,C   7,C   8)     -0.4781         0.025538   
    113. D(C  11,C  12,C   7,O   6)   -177.1529         0.025538   
    -----------------------------------------------------------------

Number of atoms                         .... 23
Number of degrees of freedom            .... 113


         *************************************************************
         *                GEOMETRY OPTIMIZATION CYCLE   1            *
         *************************************************************
---------------------------------
CARTESIAN COORDINATES (ANGSTROEM)
---------------------------------
  C      1.360949   -0.668318    0.791665
  C      2.616685   -1.269936    0.837625
  C      3.697515   -0.714989    0.152201
  C      3.514115    0.455219   -0.584527
  C      2.262006    1.062082   -0.645101
  C      1.186812    0.498370    0.042635
  O     -0.000015    1.169791    0.000055
  C     -1.186820    0.498341   -0.042605
  C     -2.262101    1.062112    0.644950
  C     -3.514194    0.455229    0.584303
  C     -3.697499   -0.715062   -0.152318
  C     -2.616586   -1.270069   -0.837558
  C     -1.360859   -0.668434   -0.791525
  H     -0.515584   -1.097159   -1.335855
  H     -2.750620   -2.182818   -1.425963
  H     -4.680445   -1.192179   -0.194707
  H     -4.354723    0.901188    1.124480
  H     -2.095573    1.977524    1.217899
  H      2.095402    1.977427   -1.218133
  H      4.354580    0.901130   -1.124845
  H      4.680471   -1.192089    0.194531
  H      2.750798   -2.182617    1.426116
  H      0.515736   -1.096986    1.336137

----------------------------
CARTESIAN COORDINATES (A.U.)
----------------------------
  NO LB      ZA    FRAG     MASS         X           Y           Z
   0 C     6.0000    0    12.011    2.571821   -1.262939    1.496030
   1 C     6.0000    0    12.011    4.944818   -2.399832    1.582881
   2 C     6.0000    0    12.011    6.987290   -1.351133    0.287618
   3 C     6.0000    0    12.011    6.640715    0.860239   -1.104596
   4 C     6.0000    0    12.011    4.274572    2.007044   -1.219064
   5 C     6.0000    0    12.011    2.242750    0.941783    0.080568
   6 O     8.0000    0    15.999   -0.000028    2.210584    0.000103
   7 C     6.0000    0    12.011   -2.242765    0.941727   -0.080512
   8 C     6.0000    0    12.011   -4.274751    2.007102    1.218780
   9 C     6.0000    0    12.011   -6.640865    0.860257    1.104173
  10 C     6.0000    0    12.011   -6.987261   -1.351271   -0.287839
  11 C     6.0000    0    12.011   -4.944630   -2.400083   -1.582756
  12 C     6.0000    0    12.011   -2.571651   -1.263156   -1.495766
  13 H     1.0000    0     1.008   -0.974312   -2.073330   -2.524400
  14 H     1.0000    0     1.008   -5.197919   -4.124928   -2.694679
  15 H     1.0000    0     1.008   -8.844760   -2.252893   -0.367943
  16 H     1.0000    0     1.008   -8.229234    1.702999    2.124960
  17 H     1.0000    0     1.008   -3.960059    3.736979    2.301496
  18 H     1.0000    0     1.008    3.959737    3.736795   -2.301937
  19 H     1.0000    0     1.008    8.228963    1.702889   -2.125650
  20 H     1.0000    0     1.008    8.844809   -2.252722    0.367611
  21 H     1.0000    0     1.008    5.198254   -4.124549    2.694969
  22 H     1.0000    0     1.008    0.974599   -2.073002    2.524933

--------------------------------
INTERNAL COORDINATES (ANGSTROEM)
--------------------------------
 C      0   0   0     0.000000000000     0.00000000     0.00000000
 C      1   0   0     1.393172423942     0.00000000     0.00000000
 C      2   1   0     1.394978527355   120.68821761     0.00000000
 C      3   2   1     1.394915521868   119.43084262     0.05454619
 C      4   3   2     1.392741407985   120.44507658   359.55954640
 C      5   4   3     1.395275643160   119.68985609     0.36426932
 O      6   5   4     1.364249609502   117.13941253   176.94418840
 C      7   6   5     1.364247932126   121.03404371   144.22287576
 C      8   7   6     1.395277442397   117.13859933   144.23712952
 C      9   8   7     1.392740020374   119.68998661   176.94462770
 C     10   9   8     1.394916133630   120.44513114     0.36432170
 C     11  10   9     1.394977582831   119.43067018   359.55960977
 C     12  11  10     1.393173813948   120.68845410     0.05453994
 H     13  12  11     1.092973443471   120.74535928   180.59229665
 H     12  11  10     1.094210025495   120.07378903   180.55240153
 H     11  10   9     1.093444288806   120.31010710   179.72103080
 H     10   9   8     1.094148006206   119.44075403   180.04187545
 H      9   8   7     1.092693925246   118.64857315   357.14412477
 H      5   4   3     1.092693113486   121.66116843   180.15880902
 H      4   3   2     1.094148690981   120.11332781   179.88409909
 H      3   2   1     1.093444178239   120.25899370   179.89318534
 H      2   1   3     1.094210057968   119.23607457   179.50604792
 H      1   2   3     1.092973217528   120.74567785   180.59255996

---------------------------
INTERNAL COORDINATES (A.U.)
---------------------------
 C      0   0   0     0.000000000000     0.00000000     0.00000000
 C      1   0   0     2.632714338582     0.00000000     0.00000000
 C      2   1   0     2.636127379401   120.68821761     0.00000000
 C      3   2   1     2.636008316286   119.43084262     0.05454619
 C      4   3   2     2.631899836464   120.44507658   359.55954640
 C      5   4   3     2.636688846903   119.68985609     0.36426932
 O      6   5   4     2.578058140267   117.13941253   176.94418840
 C      7   6   5     2.578054970486   121.03404371   144.22287576
 C      8   7   6     2.636692246968   117.13859933   144.23712952
 C      9   8   7     2.631897214259   119.68998661   176.94462770
 C     10   9   8     2.636009472349   120.44513114     0.36432170
 C     11  10   9     2.636125594511   119.43067018   359.55960977
 C     12  11  10     2.632716965312   120.68845410     0.05453994
 H     13  12  11     2.065420479809   120.74535928   180.59229665
 H     12  11  10     2.067757281176   120.07378903   180.55240153
 H     11  10   9     2.066310248544   120.31010710   179.72103080
 H     10   9   8     2.067640081706   119.44075403   180.04187545
 H      9   8   7     2.064892266915   118.64857315   357.14412477
 H      5   4   3     2.064890732911   121.66116843   180.15880902
 H      4   3   2     2.067641375743   120.11332781   179.88409909
 H      3   2   1     2.066310039603   120.25899370   179.89318534
 H      2   1   3     2.067757342542   119.23607457   179.50604792
 H      1   2   3     2.065420052839   120.74567785   180.59255996

---------------------
BASIS SET INFORMATION
---------------------
There are 3 groups of distinct atoms

 Group   1 Type C   : 19s6p3d2f contracted to 5s4p3d2f pattern {88111/3111/111/11}
 Group   2 Type O   : 19s6p3d2f contracted to 5s4p3d2f pattern {88111/3111/111/11}
 Group   3 Type H   : 6s3p2d contracted to 4s3p2d pattern {3111/111/11}

Atom   0C    basis set group =>   1
Atom   1C    basis set group =>   1
Atom   2C    basis set group =>   1
Atom   3C    basis set group =>   1
Atom   4C    basis set group =>   1
Atom   5C    basis set group =>   1
Atom   6O    basis set group =>   2
Atom   7C    basis set group =>   1
Atom   8C    basis set group =>   1
Atom   9C    basis set group =>   1
Atom  10C    basis set group =>   1
Atom  11C    basis set group =>   1
Atom  12C    basis set group =>   1
Atom  13H    basis set group =>   3
Atom  14H    basis set group =>   3
Atom  15H    basis set group =>   3
Atom  16H    basis set group =>   3
Atom  17H    basis set group =>   3
Atom  18H    basis set group =>   3
Atom  19H    basis set group =>   3
Atom  20H    basis set group =>   3
Atom  21H    basis set group =>   3
Atom  22H    basis set group =>   3
---------------------------------
AUXILIARY/J BASIS SET INFORMATION
---------------------------------
There are 3 groups of distinct atoms

 Group   1 Type C   : 12s5p4d2f1g contracted to 6s4p3d1f1g pattern {711111/2111/211/2/1}
 Group   2 Type O   : 12s5p4d2f1g contracted to 6s4p3d1f1g pattern {711111/2111/211/2/1}
 Group   3 Type H   : 5s2p1d contracted to 3s1p1d pattern {311/2/1}

Atom   0C    basis set group =>   1
Atom   1C    basis set group =>   1
Atom   2C    basis set group =>   1
Atom   3C    basis set group =>   1
Atom   4C    basis set group =>   1
Atom   5C    basis set group =>   1
Atom   6O    basis set group =>   2
Atom   7C    basis set group =>   1
Atom   8C    basis set group =>   1
Atom   9C    basis set group =>   1
Atom  10C    basis set group =>   1
Atom  11C    basis set group =>   1
Atom  12C    basis set group =>   1
Atom  13H    basis set group =>   3
Atom  14H    basis set group =>   3
Atom  15H    basis set group =>   3
Atom  16H    basis set group =>   3
Atom  17H    basis set group =>   3
Atom  18H    basis set group =>   3
Atom  19H    basis set group =>   3
Atom  20H    basis set group =>   3
Atom  21H    basis set group =>   3
Atom  22H    basis set group =>   3


           ************************************************************
           *        Program running with 8 parallel MPI-processes     *
           *              working on a common directory               *
           ************************************************************
------------------------------------------------------------------------------
                             ORCA STARTUP CALCULATIONS
                           -- RI-GTO INTEGRALS CHOSEN --
------------------------------------------------------------------------------
------------------------------------------------------------------------------
                   ___                                                        
                  /   \      - P O W E R E D   B Y -                         
                 /     \                                                     
                 |  |  |   _    _      __       _____    __    __             
                 |  |  |  | |  | |    /  \     |  _  \  |  |  /  |          
                  \  \/   | |  | |   /    \    | | | |  |  | /  /          
                 / \  \   | |__| |  /  /\  \   | |_| |  |  |/  /          
                |  |  |   |  __  | /  /__\  \  |    /   |      \           
                |  |  |   | |  | | |   __   |  |    \   |  |\   \          
                \     /   | |  | | |  |  |  |  | |\  \  |  | \   \       
                 \___/    |_|  |_| |__|  |__|  |_| \__\ |__|  \__/        
                                                                              
                      - O R C A' S   B I G   F R I E N D -                    
                                      &                                       
                       - I N T E G R A L  F E E D E R -                       
                                                                              
 v1 FN, 2020, v2 2021, v3 2022-2024                                           
------------------------------------------------------------------------------


----------------------
SHARK INTEGRAL PACKAGE
----------------------

Number of atoms                             ...     23
Number of basis functions                   ...    906
Number of shells                            ...    350
Maximum angular momentum                    ...      3
Integral batch strategy                     ... SHARK/LIBINT Hybrid
RI-J (if used) integral strategy            ... SPLIT-RIJ (Revised 2003 algorithm where possible)
Printlevel                                  ...      1
Contraction scheme used                     ... PARTIAL GENERAL contraction
Prescreening option                         ... SCHWARTZ
   Thresh                                   ... 2.500e-11
   Tcut                                     ... 2.500e-12
   Tpresel                                  ... 2.500e-12 
Coulomb Range Separation                    ... NOT USED
Exchange Range Separation                   ... NOT USED
Multipole approximations                    ... NOT USED
Finite Nucleus Model                        ... NOT USED
CABS basis                                  ... NOT available
Auxiliary Coulomb fitting basis             ... AVAILABLE
   # of basis functions in Aux-J            ...    747
   # of shells in Aux-J                     ...    245
   Maximum angular momentum in Aux-J        ...      4
Auxiliary J/K fitting basis                 ... NOT available
Auxiliary Correlation fitting basis         ... NOT available
Auxiliary 'external' fitting basis          ... NOT available

Checking pre-screening integrals            ... done (  0.0 sec) Dimension = 350
Save PGC pre-screening integrals            ... done (  0.1 sec) Dimension = 350
Calculate PGC overlap integrals             ... done (  0.2 sec) Dimension = 272
Calculating pre-screening integrals (ORCA)  ... done (  0.3 sec) Dimension = 272
Check shell pair data                       ... done (  0.0 sec)
Shell pair information
Shell pair cut-off parameter TPreSel        ...   2.5e-12
Total number of shell pairs                 ...     61425
Shell pairs after pre-screening             ...     47746
Total number of primitive shell pairs       ...     78675
Primitive shell pairs kept                  ...     56378
          la=0 lb=0:  10728 shell pairs
          la=1 lb=0:  12204 shell pairs
          la=1 lb=1:   3071 shell pairs
          la=2 lb=0:   8411 shell pairs
          la=2 lb=1:   4290 shell pairs
          la=2 lb=2:   1546 shell pairs
          la=3 lb=0:   3852 shell pairs
          la=3 lb=1:   1934 shell pairs
          la=3 lb=2:   1382 shell pairs
          la=3 lb=3:    328 shell pairs

Calculating one electron integrals          ... done (  0.1 sec)
Calculating RI/J V-Matrix + Cholesky decomp.... done (  0.1 sec)
Calculating Nuclear repulsion               ... done (  0.0 sec) ENN=    702.695371263420 Eh

Diagonalization of the overlap matrix:
Smallest eigenvalue                        ... 5.507e-07
Time for diagonalization                   ...    0.251 sec
Threshold for overlap eigenvalues          ... 1.000e-07
Number of eigenvalues below threshold      ... 0

IMPORTANT:
Smallest eigenvalue of S below the DiffSThresh (1.000e-06) while
Thresh>1e-12 and/or TCut>1e-13! In order to avoid SCF convergence issues,
Thresh will be set to at least 1e-12 and TCut to at least 1e-13.
This can be turned off by adding %SCF DiffSThresh -1 END to the input.

Time for construction of square roots      ...    0.163 sec
Total time needed                          ...    0.466 sec

-------------------
DFT GRID GENERATION
-------------------

General Integration Accuracy     IntAcc      ... 4.388
Radial Grid Type                 RadialGrid  ... OptM3 with GC (2021)
Angular Grid (max. ang.)         AngularGrid ... 4 (Lebedev-302)
Angular grid pruning method      GridPruning ... 4 (adaptive)
Weight generation scheme         WeightScheme... mBecke (2022)
Basis function cutoff            BFCut       ... 1.0000e-11
Integration weight cutoff        WCut        ... 1.0000e-14
Partially contracted basis set               ... off
Rotationally invariant grid construction     ... off
Angular grids for H and He will be reduced by one unit
Diffuse basis detected: some atoms will have their outermost
                        angular grid increased by 1.

Total number of grid points                  ...   115450
Total number of batches                      ...     1816
Average number of points per batch           ...       63
Average number of grid points per atom       ...     5020

---------------------
SHARK GRID GENERATION
---------------------

General Integration Accuracy     IntAcc      ... 4.388
Radial Grid Type                 RadialGrid  ... OptM3 with GC (2021)
Angular Grid (max. ang.)         AngularGrid ... 4 (Lebedev-302)
Angular grid pruning method      GridPruning ... 4 (adaptive)
Weight generation scheme         WeightScheme... mBecke (2022)
Basis function cutoff            BFCut       ... 1.0000e-11
Integration weight cutoff        WCut        ... 1.0000e-14
Partially contracted basis set               ... off
Rotationally invariant grid construction     ... off
Angular grids for H and He will be reduced by one unit
Diffuse basis detected: some atoms will have their outermost
                        angular grid increased by 1.
Steep s-basis detected: some atoms will have their radial
                        grid points doubled.

Total number of grid points                  ...   197309
Total number of batches                      ...     3097
Average number of points per batch           ...       63
Average number of grid points per atom       ...     8579
Initializing property integral containers    ... done (  0.1 sec)

SHARK setup successfully completed in   7.7 seconds

Maximum memory used throughout the entire STARTUP-calculation: 98.2 MB


           ************************************************************
           *        Program running with 8 parallel MPI-processes     *
           *              working on a common directory               *
           ************************************************************
-------------------------------------------------------------------------------
                                 ORCA GUESS
                   Start orbitals & Density for SCF / CASSCF
-------------------------------------------------------------------------------

------------
SCF SETTINGS
------------
Hamiltonian:
 Density Functional     Method          .... DFT(GTOs)
  Functional kind                       .... Exchange
  Functional name                       .... Re-regularized SCAN exchange by Furness et al
  Functional family                     .... MGGA
  Functional refs                              
    [ 0] J. W. Furness, A. D. Kaplan, J. Ning, J. P. Perdew, and J. Sun.,  J. Phys. Chem. Lett. 11, 8208-8215 (2020), doi: 10.1021/acs.jpclett.0c02405
    [ 1] J. W. Furness, A. D. Kaplan, J. Ning, J. P. Perdew, and J. Sun.,  J. Phys. Chem. Lett. 11, 9248-9248 (2020), doi: 10.1021/acs.jpclett.0c03077
  Functional external parameters        .... 6
    Parameter  0 _c1        =  6.670000e-01 : c1 parameter        
    Parameter  1 _c2        =  8.000000e-01 : c2 parameter        
    Parameter  2 _d         =  1.240000e+00 : d parameter         
    Parameter  3 _k1        =  6.500000e-02 : k1 parameter        
    Parameter  4 _eta       =  1.000000e-03 : eta parameter       
    Parameter  5 _dp2       =  3.610000e-01 : dp2 parameter       
  Functional kind                       .... Correlation
  Functional name                       .... Re-regularized SCAN correlation by Furness et al
  Functional family                     .... MGGA
  Functional refs                              
    [ 0] J. W. Furness, A. D. Kaplan, J. Ning, J. P. Perdew, and J. Sun.,  J. Phys. Chem. Lett. 11, 8208-8215 (2020), doi: 10.1021/acs.jpclett.0c02405
    [ 1] J. W. Furness, A. D. Kaplan, J. Ning, J. P. Perdew, and J. Sun.,  J. Phys. Chem. Lett. 11, 9248-9248 (2020), doi: 10.1021/acs.jpclett.0c03077
  Functional external parameters        .... 1
    Parameter  0 _eta       =  1.000000e-03 : Regularization parameter
 Gradients option       PostSCFGGA      .... off
   NL short-range parameter             .... 12.300000
 RI-approximation to the Coulomb term is turned on
   Number of AuxJ basis functions       .... 747


General Settings:
 Integral files         IntName         .... cs_rporg_061_red_opt_06
 Hartree-Fock type      HFTyp           .... RHF
 Total Charge           Charge          ....    0
 Multiplicity           Mult            ....    1
 Number of Electrons    NEL             ....   90
 Basis Dimension        Dim             ....  828
 Nuclear Repulsion      ENuc            ....    702.6953712634 Eh

Convergence Acceleration:
 AO-DIIS                CNVDIIS         .... on
   Start iteration      DIISMaxIt       ....     0
   Startup error        DIISStart       ....  0.200000
   # of expansion vecs  DIISMaxEq       ....     5
   Bias factor          DIISBfac        ....   1.050
   Max. coefficient     DIISMaxC        ....  10.000
 MO-DIIS                CNVKDIIS        .... off
 Trust-Rad. Augm. Hess. CNVTRAH         .... auto
   Auto Start mean grad. ratio tolernc. ....  1.125000
   Auto Start start iteration           ....    50
   Auto Start num. interpolation iter.  ....    10
   Max. Number of Micro iterations      ....    24
   Max. Number of Macro iterations      .... Maxiter - #DIIS iter
   Number of Davidson start vectors     ....     2
   Converg. threshold    (grad. norm)   ....   1.000e-05
   Grad. Scal. Fac. for Micro threshold ....   0.100
   Minimum threshold for Micro iter.    ....   1.000e-02
   NR start threshold (gradient norm)   ....   1.000e-04
   Initial trust radius                 ....   0.400
   Minimum AH scaling param. (alpha)    ....   1.000
   Maximum AH scaling param. (alpha)    .... 1000.000
   Quad. conv. algorithm                .... NR
   White noise on init. David. guess    .... on
   Maximum white noise                  ....   0.010
   Pseudo random numbers                .... off
   Inactive MOs                         .... canonical
   Orbital update algorithm             .... Taylor
   Preconditioner                       .... Diag
   Full preconditioner red. dimension   ....   250
 SOSCF                  CNVSOSCF        .... on
   Start iteration      SOSCFMaxIt      ....   150
   Startup grad/error   SOSCFStart      ....  0.001000
   Hessian update       SOSCFHessUp     .... L-BFGS
 Level Shifting         CNVShift        .... on
   Level shift para.    LevelShift      ....    0.2500
   Turn off err/grad.   ShiftErr        ....    0.0000
 Zerner damping         CNVZerner       .... off
 Static damping         CNVDamp         .... on
   Fraction old density DampFac         ....    0.8500
   Max. Damping (<1)    DampMax         ....    0.9800
   Min. Damping (>=0)   DampMin         ....    0.0000
   Turn off err/grad.   DampErr         ....    0.0300

SCF Procedure:
 Maximum # iterations   MaxIter         ....  1500
 SCF integral mode      SCFMode         .... Direct
   Integral package                     .... SHARK and LIBINT hybrid scheme
 Reset frequency        DirectResetFreq ....    20
 Integral Threshold     Thresh          ....  1.000e-12 Eh
 Primitive CutOff       TCut            ....  1.000e-13 Eh

Convergence Tolerance:
 Convergence Check Mode ConvCheckMode   .... Total+1el-Energy
 Convergence forced     ConvForced      .... 0
 Energy Change          TolE            ....  1.000e-08 Eh
 1-El. energy change                    ....  1.000e-05 Eh
 Orbital Gradient       TolG            ....  1.000e-05
 Orbital Rotation angle TolX            ....  1.000e-05
 DIIS Error             TolErr          ....  5.000e-07

------------------------------
INITIAL GUESS: MODEL POTENTIAL
------------------------------
Loading Hartree-Fock densities                     ... done
Calculating cut-offs                               ... done
Initializing the effective Hamiltonian             ... done
Setting up the integral package (SHARK)            ... done
Starting the Coulomb interaction                   ... done (   0.9 sec)
Making the grid                                    ... done (   0.5 sec)
Mapping shells                                     ... done
Starting the XC term evaluation                    ... done (   0.8 sec)
  promolecular density results
     # of electrons  =     89.998912133
     EX              =    -72.468199834
     EC              =     -2.990762636
     EX+EC           =    -75.458962470
Transforming the Hamiltonian                       ... done (   0.2 sec)
Diagonalizing the Hamiltonian                      ... done (   0.3 sec)
Back transforming the eigenvectors                 ... done (   0.2 sec)
Now organizing SCF variables                       ... done
                      ------------------
                      INITIAL GUESS DONE (   3.4 sec)
                      ------------------
             **** ENERGY FILE WAS UPDATED (cs_rporg_061_red_opt_06.en.tmp) ****
Finished Guess after   4.8 sec
Maximum memory used throughout the entire GUESS-calculation: 76.0 MB


           ************************************************************
           *        Program running with 8 parallel MPI-processes     *
           *              working on a common directory               *
           ************************************************************

-------------------------------------------------------------------------------------------
                                      ORCA LEAN-SCF
                              memory conserving SCF solver
-------------------------------------------------------------------------------------------

--------------------
CPCM SOLVATION MODEL
--------------------
CPCM parameters:
  Epsilon                                         ...      35.6880
  Refrac                                          ...       1.3442
  Rsolv                                           ...       2.1900
  Surface type                                    ...    GEPOL SES
  Discretization scheme                           ... Constant num. charges
  Epsilon function type                           ...         CPCM
Solvent:                                          ... ACETONITRILE
SMD-CDS solvent descriptors:
  Soln                                            ...       1.3442
  Soln25                                          ...       1.3416
  Sola                                            ...       0.0700
  Solb                                            ...       0.3200
  Solg                                            ...      41.2500
  Solc                                            ...       0.0000
  Solh                                            ...       0.0000
Radii:
  Scheme                                          ... Element-dependent radii
  Radius for C  used is    3.4960 Bohr (=   1.8500 Ang.)
  Radius for O  used is    4.0969 Bohr (=   2.1680 Ang.)
  Radius for H  used is    2.2677 Bohr (=   1.2000 Ang.)
Calculating surface                               ...        done! (  0.0s)
Cavity surface points                             ...          773
Cavity Volume                                     ...    1320.7258
Cavity Surface-area                               ...     726.5526
Calculating surface distance matrix               ...        done! (  0.0s)
Performing Cholesky decomposition & store         ...        done! (  0.0s)
Overall time for CPCM initialization              ...                 0.1s

----------------------------------------D-I-I-S--------------------------------------------
Iteration    Energy (Eh)           Delta-E    RMSDP     MaxDP     DIISErr   Damp  Time(sec)
-------------------------------------------------------------------------------------------
               ***  Starting incremental Fock matrix formation  ***
    1    -538.1441056988425089     0.00e+00  8.94e-04  3.67e-02  1.39e-01  0.850  12.5
    2    -538.2113720369781049    -6.73e-02  8.70e-04  4.25e-02  1.08e-01  0.850  12.4
                               ***Turning on AO-DIIS***
    3    -538.2571175317713141    -4.57e-02  6.89e-04  3.64e-02  7.99e-02  0.850  11.6
    4    -538.2869144899308367    -2.98e-02  5.59e-04  2.61e-02  6.34e-02  0.850  14.0
    5    -538.3084464708257428    -2.15e-02  4.62e-04  1.91e-02  5.13e-02  0.850  11.6
    6    -538.3253001272647680    -1.69e-02  3.87e-04  1.56e-02  4.25e-02  0.850  11.6
    7    -538.3390695806343729    -1.38e-02  3.26e-04  1.29e-02  3.60e-02  0.850  11.8
    8    -538.3504510782762509    -1.14e-02  2.76e-04  1.16e-02  3.08e-02  0.850  12.3
    9    -538.3598178841472190    -9.37e-03  2.35e-04  1.02e-02  2.61e-02  0.850  10.6
   10    -538.3675399602815332    -7.72e-03  1.33e-03  5.88e-02  2.17e-02  0.000  10.8
   11    -538.4077696927141687    -4.02e-02  5.37e-05  3.48e-03  2.79e-03  0.000  12.1
   12    -538.4077978238691458    -2.81e-05  2.18e-05  1.76e-03  1.38e-03  0.000  11.9
                              *** Initializing SOSCF ***
---------------------------------------S-O-S-C-F--------------------------------------
Iteration    Energy (Eh)           Delta-E    RMSDP     MaxDP     MaxGrad    Time(sec)
--------------------------------------------------------------------------------------
   13    -538.4078068639443018    -9.04e-06  9.32e-06  7.96e-04  1.27e-04    10.8
               *** Restarting incremental Fock matrix formation ***
   14    -538.4078072685857705    -4.05e-07  9.46e-06  6.39e-04  5.36e-05    12.8
   15    -538.4078069449600434     3.24e-07  4.50e-06  2.87e-04  1.02e-04     9.2
   16    -538.4078074085774688    -4.64e-07  2.08e-06  1.40e-04  1.05e-05     8.7
   17    -538.4078073801057371     2.85e-08  6.70e-07  4.12e-05  2.07e-05     9.0
   18    -538.4078074006976067    -2.06e-08  2.14e-06  1.29e-04  1.75e-06     8.5
                  *** Gradient check signals convergence ***

               *****************************************************
               *                     SUCCESS                       *
               *           SCF CONVERGED AFTER  18 CYCLES          *
               *****************************************************


SMD CDS free energy correction energy :                -3.04100     Kcal/mol
Total Energy after SMD CDS correction =              -538.412653544 Eh
             **** ENERGY FILE WAS UPDATED (cs_rporg_061_red_opt_06.en.tmp) ****

----------------
TOTAL SCF ENERGY
----------------

Total Energy       :       -538.41265354385769 Eh          -14650.95314 eV

Components:
Nuclear Repulsion  :        702.69537126341982 Eh           19121.31316 eV
Electronic Energy  :      -1241.09198520854966 Eh          -33771.82984 eV
One Electron Energy:      -2121.89021989774619 Eh          -57739.56831 eV
Two Electron Energy:        880.79823468919653 Eh           23967.73846 eV
CPCM Dielectric    :         -0.01119345556767 Eh              -0.30459 eV
SMD CDS (Gcds)     :         -0.00484614316006 Eh              -0.13187 eV

Virial components:
Potential Energy   :      -1073.78154435228043 Eh          -29219.08129 eV
Kinetic Energy     :        535.36889080842263 Eh           14568.12815 eV
Virial Ratio       :          2.00568535599975

DFT components:
N(Alpha)           :       44.999980764361 electrons
N(Beta)            :       44.999980764361 electrons
N(Total)           :       89.999961528722 electrons
E(X)               :      -74.270960229981 Eh       
E(C)               :       -2.917716979815 Eh       
E(XC)              :      -77.188677209796 Eh       

CPCM Solvation Model Properties:
Surface-charge          :         -0.04892645356812
Corrected charge        :         -0.00000000000000
Outlying charge corr.   :          0.00015590043861 Eh               0.00424 eV
Free-energy (cav+disp)  :         -0.00484614316006 Eh              -0.13187 eV

---------------
SCF CONVERGENCE
---------------

  Last Energy change         ...    2.0592e-08  Tolerance :   1.0000e-08
  Last MAX-Density change    ...    1.2902e-04  Tolerance :   1.0000e-07
  Last RMS-Density change    ...    2.1414e-06  Tolerance :   5.0000e-09
  Last DIIS Error            ...    1.2671e-04  Tolerance :   5.0000e-07
  Last Orbital Gradient      ...    1.7469e-06  Tolerance :   1.0000e-05
  Last Orbital Rotation      ...    8.0507e-06  Tolerance :   1.0000e-05


----------------
ORBITAL ENERGIES
----------------

  NO   OCC          E(Eh)            E(eV) 
   0   2.0000     -19.006894      -517.2039 
   1   2.0000     -10.106438      -275.0101 
   2   2.0000     -10.106419      -275.0096 
   3   2.0000     -10.045086      -273.3407 
   4   2.0000     -10.045072      -273.3403 
   5   2.0000     -10.044855      -273.3344 
   6   2.0000     -10.044839      -273.3340 
   7   2.0000     -10.042963      -273.2829 
   8   2.0000     -10.042948      -273.2825 
   9   2.0000     -10.041393      -273.2402 
  10   2.0000     -10.041379      -273.2398 
  11   2.0000     -10.038197      -273.1532 
  12   2.0000     -10.038186      -273.1529 
  13   2.0000      -1.060622       -28.8610 
  14   2.0000      -0.832613       -22.6565 
  15   2.0000      -0.817828       -22.2542 
  16   2.0000      -0.737627       -20.0719 
  17   2.0000      -0.720948       -19.6180 
  18   2.0000      -0.717040       -19.5116 
  19   2.0000      -0.694281       -18.8924 
  20   2.0000      -0.609875       -16.5956 
  21   2.0000      -0.587564       -15.9884 
  22   2.0000      -0.575845       -15.6695 
  23   2.0000      -0.548945       -14.9375 
  24   2.0000      -0.517300       -14.0764 
  25   2.0000      -0.476745       -12.9729 
  26   2.0000      -0.455465       -12.3938 
  27   2.0000      -0.448853       -12.2139 
  28   2.0000      -0.440907       -11.9977 
  29   2.0000      -0.411685       -11.2025 
  30   2.0000      -0.408114       -11.1053 
  31   2.0000      -0.391706       -10.6589 
  32   2.0000      -0.391052       -10.6411 
  33   2.0000      -0.377908       -10.2834 
  34   2.0000      -0.373227       -10.1560 
  35   2.0000      -0.344108        -9.3636 
  36   2.0000      -0.334361        -9.0984 
  37   2.0000      -0.328565        -8.9407 
  38   2.0000      -0.327779        -8.9193 
  39   2.0000      -0.306653        -8.3444 
  40   2.0000      -0.302645        -8.2354 
  41   2.0000      -0.247220        -6.7272 
  42   2.0000      -0.241371        -6.5680 
  43   2.0000      -0.238276        -6.4838 
  44   2.0000      -0.206196        -5.6109 
  45   0.0000      -0.048503        -1.3198 
  46   0.0000      -0.041167        -1.1202 
  47   0.0000      -0.034110        -0.9282 
  48   0.0000      -0.022321        -0.6074 
  49   0.0000       0.005874         0.1598 
  50   0.0000       0.017264         0.4698 
  51   0.0000       0.023415         0.6371 
  52   0.0000       0.025691         0.6991 
  53   0.0000       0.032890         0.8950 
  54   0.0000       0.038357         1.0438 
  55   0.0000       0.043425         1.1816 
*Only the first 10 virtual orbitals were printed.

                    ********************************
                    * MULLIKEN POPULATION ANALYSIS *
                    ********************************

-----------------------
MULLIKEN ATOMIC CHARGES
-----------------------
   0 C :   -0.440499
   1 C :   -0.602246
   2 C :   -0.499747
   3 C :   -0.395427
   4 C :   -1.299446
   5 C :    1.467130
   6 O :   -0.806483
   7 C :    1.465620
   8 C :   -1.300069
   9 C :   -0.395676
  10 C :   -0.499581
  11 C :   -0.601956
  12 C :   -0.438563
  13 H :    0.518976
  14 H :    0.345916
  15 H :    0.453588
  16 H :    0.364950
  17 H :    0.489470
  18 H :    0.489481
  19 H :    0.364787
  20 H :    0.453600
  21 H :    0.345855
  22 H :    0.520320
Sum of atomic charges:   -0.0000000

--------------------------------
MULLIKEN REDUCED ORBITAL CHARGES
--------------------------------
  0 C s       :     3.852887  s :     3.852887
      pz      :     0.910435  p :     2.570359
      px      :     0.838612
      py      :     0.821312
      dz2     :     0.008013  d :     0.042018
      dxz     :    -0.001056
      dyz     :    -0.027211
      dx2y2   :    -0.023467
      dxy     :     0.085739
      f0      :    -0.000966  f :    -0.024764
      f+1     :    -0.001860
      f-1     :    -0.002546
      f+2     :     0.000710
      f-2     :    -0.005713
      f+3     :    -0.015888
      f-3     :     0.001498

  1 C s       :     3.729386  s :     3.729386
      pz      :     0.983110  p :     2.916778
      px      :     0.981395
      py      :     0.952273
      dz2     :     0.011577  d :    -0.033102
      dxz     :     0.006274
      dyz     :     0.015962
      dx2y2   :    -0.035599
      dxy     :    -0.031316
      f0      :     0.000224  f :    -0.010817
      f+1     :    -0.001345
      f-1     :    -0.000100
      f+2     :     0.002226
      f-2     :    -0.004062
      f+3     :    -0.005924
      f-3     :    -0.001836

  2 C s       :     3.564177  s :     3.564177
      pz      :     0.984885  p :     2.843990
      px      :     0.895235
      py      :     0.963870
      dz2     :     0.035887  d :     0.102973
      dxz     :    -0.017265
      dyz     :    -0.000275
      dx2y2   :    -0.002003
      dxy     :     0.086628
      f0      :    -0.000299  f :    -0.011392
      f+1     :     0.001270
      f-1     :    -0.000082
      f+2     :    -0.002843
      f-2     :    -0.003658
      f+3     :    -0.006777
      f-3     :     0.000997

  3 C s       :     3.498903  s :     3.498903
      pz      :     0.899425  p :     2.932940
      px      :     1.028193
      py      :     1.005323
      dz2     :     0.008454  d :    -0.026783
      dxz     :    -0.056106
      dyz     :    -0.001594
      dx2y2   :    -0.021364
      dxy     :     0.043827
      f0      :    -0.000048  f :    -0.009633
      f+1     :    -0.000440
      f-1     :    -0.000887
      f+2     :    -0.002152
      f-2     :    -0.000703
      f+3     :    -0.005128
      f-3     :    -0.000276

  4 C s       :     4.313415  s :     4.313415
      pz      :     1.101258  p :     2.936316
      px      :     0.804774
      py      :     1.030284
      dz2     :     0.026351  d :     0.075738
      dxz     :     0.002863
      dyz     :     0.037887
      dx2y2   :    -0.000809
      dxy     :     0.009445
      f0      :    -0.001076  f :    -0.026023
      f+1     :    -0.003089
      f-1     :    -0.000845
      f+2     :     0.001616
      f-2     :    -0.006702
      f+3     :    -0.014332
      f-3     :    -0.001594

  5 C s       :     3.032895  s :     3.032895
      pz      :     0.800624  p :     1.645583
      px      :     0.109137
      py      :     0.735822
      dz2     :    -0.044152  d :    -0.138522
      dxz     :     0.002081
      dyz     :    -0.006140
      dx2y2   :    -0.044907
      dxy     :    -0.045404
      f0      :     0.004622  f :    -0.007087
      f+1     :     0.000153
      f-1     :     0.000948
      f+2     :    -0.003954
      f-2     :    -0.000093
      f+3     :    -0.008664
      f-3     :    -0.000099

  6 O s       :     4.229424  s :     4.229424
      pz      :     1.776136  p :     4.478492
      px      :     1.108902
      py      :     1.593455
      dz2     :    -0.001027  d :     0.090092
      dxz     :     0.030090
      dyz     :     0.013490
      dx2y2   :     0.022445
      dxy     :     0.025093
      f0      :     0.000965  f :     0.008474
      f+1     :     0.000319
      f-1     :     0.000150
      f+2     :     0.000442
      f-2     :     0.002304
      f+3     :     0.004003
      f-3     :     0.000293

  7 C s       :     3.033593  s :     3.033593
      pz      :     0.800147  p :     1.646487
      px      :     0.109607
      py      :     0.736733
      dz2     :    -0.044241  d :    -0.138626
      dxz     :     0.001935
      dyz     :    -0.006090
      dx2y2   :    -0.044907
      dxy     :    -0.045322
      f0      :     0.004620  f :    -0.007075
      f+1     :     0.000180
      f-1     :     0.000940
      f+2     :    -0.003955
      f-2     :    -0.000089
      f+3     :    -0.008675
      f-3     :    -0.000095

  8 C s       :     4.314137  s :     4.314137
      pz      :     1.101108  p :     2.936303
      px      :     0.804919
      py      :     1.030277
      dz2     :     0.026380  d :     0.075652
      dxz     :     0.002919
      dyz     :     0.037943
      dx2y2   :    -0.001045
      dxy     :     0.009455
      f0      :    -0.001071  f :    -0.026022
      f+1     :    -0.003088
      f-1     :    -0.000844
      f+2     :     0.001610
      f-2     :    -0.006700
      f+3     :    -0.014337
      f-3     :    -0.001592

  9 C s       :     3.498868  s :     3.498868
      pz      :     0.899410  p :     2.933034
      px      :     1.028178
      py      :     1.005446
      dz2     :     0.008450  d :    -0.026594
      dxz     :    -0.056165
      dyz     :    -0.001575
      dx2y2   :    -0.021362
      dxy     :     0.044059
      f0      :    -0.000047  f :    -0.009632
      f+1     :    -0.000441
      f-1     :    -0.000883
      f+2     :    -0.002149
      f-2     :    -0.000699
      f+3     :    -0.005135
      f-3     :    -0.000278

 10 C s       :     3.564312  s :     3.564312
      pz      :     0.984760  p :     2.843891
      px      :     0.895230
      py      :     0.963902
      dz2     :     0.035880  d :     0.102763
      dxz     :    -0.017362
      dyz     :    -0.000229
      dx2y2   :    -0.002125
      dxy     :     0.086599
      f0      :    -0.000299  f :    -0.011386
      f+1     :     0.001272
      f-1     :    -0.000080
      f+2     :    -0.002842
      f-2     :    -0.003656
      f+3     :    -0.006777
      f-3     :     0.000996

 11 C s       :     3.729268  s :     3.729268
      pz      :     0.983214  p :     2.916457
      px      :     0.981006
      py      :     0.952236
      dz2     :     0.011605  d :    -0.032940
      dxz     :     0.006328
      dyz     :     0.016134
      dx2y2   :    -0.035728
      dxy     :    -0.031278
      f0      :     0.000223  f :    -0.010829
      f+1     :    -0.001341
      f-1     :    -0.000099
      f+2     :     0.002221
      f-2     :    -0.004064
      f+3     :    -0.005933
      f-3     :    -0.001837

 12 C s       :     3.852480  s :     3.852480
      pz      :     0.910103  p :     2.569499
      px      :     0.837910
      py      :     0.821486
      dz2     :     0.007882  d :     0.041337
      dxz     :    -0.001395
      dyz     :    -0.027267
      dx2y2   :    -0.023645
      dxy     :     0.085762
      f0      :    -0.000968  f :    -0.024753
      f+1     :    -0.001860
      f-1     :    -0.002546
      f+2     :     0.000710
      f-2     :    -0.005712
      f+3     :    -0.015882
      f-3     :     0.001505

 13 H s       :     0.522640  s :     0.522640
      pz      :    -0.007807  p :    -0.048541
      px      :    -0.017062
      py      :    -0.023672
      dz2     :     0.002442  d :     0.006925
      dxz     :     0.001539
      dyz     :     0.000100
      dx2y2   :     0.000875
      dxy     :     0.001969

 14 H s       :     0.621644  s :     0.621644
      pz      :     0.009457  p :     0.023170
      px      :     0.003480
      py      :     0.010233
      dz2     :     0.003325  d :     0.009270
      dxz     :     0.000856
      dyz     :     0.000827
      dx2y2   :     0.002083
      dxy     :     0.002178

 15 H s       :     0.553711  s :     0.553711
      pz      :     0.014302  p :    -0.016039
      px      :    -0.028274
      py      :    -0.002068
      dz2     :    -0.000237  d :     0.008740
      dxz     :     0.003976
      dyz     :     0.001003
      dx2y2   :     0.002204
      dxy     :     0.001793

 16 H s       :     0.615032  s :     0.615032
      pz      :     0.014412  p :     0.010789
      px      :    -0.005490
      py      :     0.001868
      dz2     :     0.002968  d :     0.009229
      dxz     :     0.001629
      dyz     :     0.000298
      dx2y2   :     0.002188
      dxy     :     0.002146

 17 H s       :     0.541446  s :     0.541446
      pz      :    -0.011700  p :    -0.037002
      px      :    -0.010688
      py      :    -0.014614
      dz2     :     0.002773  d :     0.006086
      dxz     :     0.000279
      dyz     :     0.001132
      dx2y2   :     0.001762
      dxy     :     0.000140

 18 H s       :     0.541484  s :     0.541484
      pz      :    -0.011702  p :    -0.037044
      px      :    -0.010700
      py      :    -0.014642
      dz2     :     0.002775  d :     0.006079
      dxz     :     0.000280
      dyz     :     0.001130
      dx2y2   :     0.001758
      dxy     :     0.000137

 19 H s       :     0.615138  s :     0.615138
      pz      :     0.014386  p :     0.010846
      px      :    -0.005420
      py      :     0.001880
      dz2     :     0.002971  d :     0.009229
      dxz     :     0.001627
      dyz     :     0.000298
      dx2y2   :     0.002188
      dxy     :     0.002144

 20 H s       :     0.553711  s :     0.553711
      pz      :     0.014323  p :    -0.016050
      px      :    -0.028308
      py      :    -0.002065
      dz2     :    -0.000237  d :     0.008739
      dxz     :     0.003976
      dyz     :     0.001003
      dx2y2   :     0.002203
      dxy     :     0.001793

 21 H s       :     0.621667  s :     0.621667
      pz      :     0.009499  p :     0.023209
      px      :     0.003482
      py      :     0.010228
      dz2     :     0.003325  d :     0.009270
      dxz     :     0.000856
      dyz     :     0.000826
      dx2y2   :     0.002085
      dxy     :     0.002178

 22 H s       :     0.521494  s :     0.521494
      pz      :    -0.007872  p :    -0.048737
      px      :    -0.017155
      py      :    -0.023710
      dz2     :     0.002442  d :     0.006923
      dxz     :     0.001539
      dyz     :     0.000101
      dx2y2   :     0.000873
      dxy     :     0.001968



                     *******************************
                     * LOEWDIN POPULATION ANALYSIS *
                     *******************************

----------------------
LOEWDIN ATOMIC CHARGES
----------------------
   0 C :    0.196983
   1 C :    0.184580
   2 C :    0.179616
   3 C :    0.178252
   4 C :    0.201816
   5 C :   -0.403776
   6 O :    0.622535
   7 C :   -0.403823
   8 C :    0.201778
   9 C :    0.178248
  10 C :    0.179630
  11 C :    0.184585
  12 C :    0.196967
  13 H :   -0.165580
  14 H :   -0.168690
  15 H :   -0.175668
  16 H :   -0.169989
  17 H :   -0.168752
  18 H :   -0.168757
  19 H :   -0.170001
  20 H :   -0.175678
  21 H :   -0.168700
  22 H :   -0.165577

-------------------------------
LOEWDIN REDUCED ORBITAL CHARGES
-------------------------------
  0 C s       :     2.480740  s :     2.480740
      pz      :     0.693297  p :     2.292131
      px      :     0.826570
      py      :     0.772263
      dz2     :     0.082995  d :     0.691029
      dxz     :     0.144581
      dyz     :     0.105798
      dx2y2   :     0.172136
      dxy     :     0.185519
      f0      :     0.038342  f :     0.339117
      f+1     :     0.021390
      f-1     :     0.041810
      f+2     :     0.044266
      f-2     :     0.053807
      f+3     :     0.086914
      f-3     :     0.052590

  1 C s       :     2.493281  s :     2.493281
      pz      :     0.684746  p :     2.282014
      px      :     0.836155
      py      :     0.761114
      dz2     :     0.079213  d :     0.702273
      dxz     :     0.152920
      dyz     :     0.093120
      dx2y2   :     0.221964
      dxy     :     0.155056
      f0      :     0.034502  f :     0.337851
      f+1     :     0.046965
      f-1     :     0.015848
      f+2     :     0.042354
      f-2     :     0.052640
      f+3     :     0.100973
      f-3     :     0.044568

  2 C s       :     2.494457  s :     2.494457
      pz      :     0.699982  p :     2.300121
      px      :     0.821830
      py      :     0.778309
      dz2     :     0.113582  d :     0.693975
      dxz     :     0.102799
      dyz     :     0.134318
      dx2y2   :     0.159657
      dxy     :     0.183620
      f0      :     0.022466  f :     0.331830
      f+1     :     0.040833
      f-1     :     0.037028
      f+2     :     0.051483
      f-2     :     0.061252
      f+3     :     0.072279
      f-3     :     0.046490

  3 C s       :     2.494761  s :     2.494761
      pz      :     0.684115  p :     2.284896
      px      :     0.823687
      py      :     0.777094
      dz2     :     0.081841  d :     0.704786
      dxz     :     0.142326
      dyz     :     0.106774
      dx2y2   :     0.163119
      dxy     :     0.210726
      f0      :     0.037545  f :     0.337305
      f+1     :     0.019271
      f-1     :     0.039592
      f+2     :     0.042759
      f-2     :     0.055726
      f+3     :     0.091236
      f-3     :     0.051175

  4 C s       :     2.491232  s :     2.491232
      pz      :     0.690641  p :     2.295312
      px      :     0.834138
      py      :     0.770533
      dz2     :     0.077854  d :     0.670196
      dxz     :     0.147690
      dyz     :     0.087757
      dx2y2   :     0.200775
      dxy     :     0.156120
      f0      :     0.035382  f :     0.341444
      f+1     :     0.049715
      f-1     :     0.016108
      f+2     :     0.041775
      f-2     :     0.052719
      f+3     :     0.097518
      f-3     :     0.048228

  5 C s       :     2.457657  s :     2.457657
      pz      :     0.715433  p :     2.217827
      px      :     0.726033
      py      :     0.776361
      dz2     :     0.152642  d :     1.084844
      dxz     :     0.217065
      dyz     :     0.171541
      dx2y2   :     0.248507
      dxy     :     0.295089
      f0      :     0.062744  f :     0.643448
      f+1     :     0.069621
      f-1     :     0.051137
      f+2     :     0.070933
      f-2     :     0.112630
      f+3     :     0.176703
      f-3     :     0.099680

  6 O s       :     2.956717  s :     2.956717
      pz      :     1.358325  p :     3.826859
      px      :     1.152532
      py      :     1.316001
      dz2     :     0.040774  d :     0.462008
      dxz     :     0.109824
      dyz     :     0.032723
      dx2y2   :     0.141797
      dxy     :     0.136889
      f0      :     0.015008  f :     0.131882
      f+1     :     0.012190
      f-1     :     0.004890
      f+2     :     0.007859
      f-2     :     0.021992
      f+3     :     0.048030
      f-3     :     0.021913

  7 C s       :     2.457660  s :     2.457660
      pz      :     0.715403  p :     2.217850
      px      :     0.726055
      py      :     0.776391
      dz2     :     0.152621  d :     1.084864
      dxz     :     0.217062
      dyz     :     0.171537
      dx2y2   :     0.248534
      dxy     :     0.295111
      f0      :     0.062732  f :     0.643449
      f+1     :     0.069623
      f-1     :     0.051121
      f+2     :     0.070924
      f-2     :     0.112634
      f+3     :     0.176732
      f-3     :     0.099684

  8 C s       :     2.491234  s :     2.491234
      pz      :     0.690626  p :     2.295332
      px      :     0.834144
      py      :     0.770562
      dz2     :     0.077847  d :     0.670207
      dxz     :     0.147675
      dyz     :     0.087746
      dx2y2   :     0.200800
      dxy     :     0.156139
      f0      :     0.035373  f :     0.341449
      f+1     :     0.049719
      f-1     :     0.016105
      f+2     :     0.041763
      f-2     :     0.052722
      f+3     :     0.097536
      f-3     :     0.048231

  9 C s       :     2.494762  s :     2.494762
      pz      :     0.684076  p :     2.284890
      px      :     0.823695
      py      :     0.777119
      dz2     :     0.081835  d :     0.704787
      dxz     :     0.142302
      dyz     :     0.106774
      dx2y2   :     0.163133
      dxy     :     0.210745
      f0      :     0.037541  f :     0.337313
      f+1     :     0.019269
      f-1     :     0.039589
      f+2     :     0.042761
      f-2     :     0.055724
      f+3     :     0.091253
      f-3     :     0.051176

 10 C s       :     2.494458  s :     2.494458
      pz      :     0.699943  p :     2.300115
      px      :     0.821842
      py      :     0.778329
      dz2     :     0.113550  d :     0.693964
      dxz     :     0.102790
      dyz     :     0.134304
      dx2y2   :     0.159674
      dxy     :     0.183646
      f0      :     0.022465  f :     0.331834
      f+1     :     0.040825
      f-1     :     0.037020
      f+2     :     0.051477
      f-2     :     0.061251
      f+3     :     0.072302
      f-3     :     0.046494

 11 C s       :     2.493282  s :     2.493282
      pz      :     0.684706  p :     2.282005
      px      :     0.836163
      py      :     0.761136
      dz2     :     0.079201  d :     0.702271
      dxz     :     0.152908
      dyz     :     0.093106
      dx2y2   :     0.221992
      dxy     :     0.155064
      f0      :     0.034493  f :     0.337856
      f+1     :     0.046968
      f-1     :     0.015844
      f+2     :     0.042343
      f-2     :     0.052645
      f+3     :     0.100991
      f-3     :     0.044573

 12 C s       :     2.480741  s :     2.480741
      pz      :     0.693271  p :     2.292138
      px      :     0.826579
      py      :     0.772288
      dz2     :     0.082998  d :     0.691031
      dxz     :     0.144558
      dyz     :     0.105798
      dx2y2   :     0.172148
      dxy     :     0.185529
      f0      :     0.038337  f :     0.339123
      f+1     :     0.021388
      f-1     :     0.041808
      f+2     :     0.044265
      f-2     :     0.053805
      f+3     :     0.086928
      f-3     :     0.052592

 13 H s       :     0.639533  s :     0.639533
      pz      :     0.095203  p :     0.305445
      px      :     0.124739
      py      :     0.085503
      dz2     :     0.038076  d :     0.220602
      dxz     :     0.049128
      dyz     :     0.031997
      dx2y2   :     0.055421
      dxy     :     0.045981

 14 H s       :     0.660248  s :     0.660248
      pz      :     0.097379  p :     0.296954
      px      :     0.077334
      py      :     0.122241
      dz2     :     0.039983  d :     0.211489
      dxz     :     0.025612
      dyz     :     0.052250
      dx2y2   :     0.036235
      dxy     :     0.057409

 15 H s       :     0.663566  s :     0.663566
      pz      :     0.081477  p :     0.300422
      px      :     0.128170
      py      :     0.090775
      dz2     :     0.018945  d :     0.211679
      dxz     :     0.055320
      dyz     :     0.017696
      dx2y2   :     0.063527
      dxy     :     0.056192

 16 H s       :     0.661336  s :     0.661336
      pz      :     0.094587  p :     0.297399
      px      :     0.114358
      py      :     0.088455
      dz2     :     0.037813  d :     0.211254
      dxz     :     0.043198
      dyz     :     0.032164
      dx2y2   :     0.056257
[...]
      f-2     :     0.053325
      f+3     :     0.096997
      f-3     :     0.047976

  9 C s       :     2.491492  s :     2.491492
      pz      :     0.684961  p :     2.280262
      px      :     0.822201
      py      :     0.773100
      dz2     :     0.082616  d :     0.703909
      dxz     :     0.144145
      dyz     :     0.106980
      dx2y2   :     0.162768
      dxy     :     0.207399
      f0      :     0.038540  f :     0.339044
      f+1     :     0.019544
      f-1     :     0.039807
      f+2     :     0.042240
      f-2     :     0.057346
      f+3     :     0.091267
      f-3     :     0.050299

 10 C s       :     2.491132  s :     2.491132
      pz      :     0.700208  p :     2.295664
      px      :     0.821026
      py      :     0.774430
      dz2     :     0.115373  d :     0.692662
      dxz     :     0.104636
      dyz     :     0.134027
      dx2y2   :     0.156420
      dxy     :     0.182206
      f0      :     0.022692  f :     0.333115
      f+1     :     0.041626
      f-1     :     0.037808
      f+2     :     0.051474
      f-2     :     0.062480
      f+3     :     0.071008
      f-3     :     0.046028

 11 C s       :     2.490009  s :     2.490009
      pz      :     0.685816  p :     2.277396
      px      :     0.833390
      py      :     0.758190
      dz2     :     0.079852  d :     0.701080
      dxz     :     0.152982
      dyz     :     0.094380
      dx2y2   :     0.219695
      dxy     :     0.154170
      f0      :     0.035078  f :     0.339486
      f+1     :     0.047785
      f-1     :     0.016006
      f+2     :     0.042559
      f-2     :     0.053140
      f+3     :     0.100735
      f-3     :     0.044183

 12 C s       :     2.478179  s :     2.478179
      pz      :     0.694264  p :     2.289396
      px      :     0.825336
      py      :     0.769796
      dz2     :     0.084343  d :     0.691212
      dxz     :     0.145863
      dyz     :     0.106399
      dx2y2   :     0.171511
      dxy     :     0.183095
      f0      :     0.039358  f :     0.340752
      f+1     :     0.021607
      f-1     :     0.042364
      f+2     :     0.043918
      f-2     :     0.054965
      f+3     :     0.086770
      f-3     :     0.051770

 13 H s       :     0.640598  s :     0.640598
      pz      :     0.096643  p :     0.308819
      px      :     0.125715
      py      :     0.086462
      dz2     :     0.039123  d :     0.223208
      dxz     :     0.049558
      dyz     :     0.032624
      dx2y2   :     0.055440
      dxy     :     0.046463

 14 H s       :     0.660964  s :     0.660964
      pz      :     0.099234  p :     0.300817
      px      :     0.079017
      py      :     0.122567
      dz2     :     0.041126  d :     0.214085
      dxz     :     0.026848
      dyz     :     0.052475
      dx2y2   :     0.036092
      dxy     :     0.057545

 15 H s       :     0.664166  s :     0.664166
      pz      :     0.082972  p :     0.304430
      px      :     0.128825
      py      :     0.092633
      dz2     :     0.019072  d :     0.214403
      dxz     :     0.055934
      dyz     :     0.018473
      dx2y2   :     0.064546
      dxy     :     0.056378

 16 H s       :     0.662025  s :     0.662025
      pz      :     0.096254  p :     0.301337
      px      :     0.115669
      py      :     0.089414
      dz2     :     0.038829  d :     0.213886
      dxz     :     0.043753
      dyz     :     0.032737
      dx2y2   :     0.056281
      dxy     :     0.042287

 17 H s       :     0.657304  s :     0.657304
      pz      :     0.098581  p :     0.300277
      px      :     0.078412
      py      :     0.123285
      dz2     :     0.041054  d :     0.217528
      dxz     :     0.026581
      dyz     :     0.053393
      dx2y2   :     0.039903
      dxy     :     0.056597

 18 H s       :     0.657309  s :     0.657309
      pz      :     0.098584  p :     0.300279
      px      :     0.078416
      py      :     0.123280
      dz2     :     0.041056  d :     0.217525
      dxz     :     0.026584
      dyz     :     0.053392
      dx2y2   :     0.039900
      dxy     :     0.056593

 19 H s       :     0.662034  s :     0.662034
      pz      :     0.096268  p :     0.301345
      px      :     0.115662
      py      :     0.089415
      dz2     :     0.038839  d :     0.213886
      dxz     :     0.043752
      dyz     :     0.032744
      dx2y2   :     0.056272
      dxy     :     0.042278

 20 H s       :     0.664173  s :     0.664173
      pz      :     0.082974  p :     0.304436
      px      :     0.128828
      py      :     0.092634
      dz2     :     0.019070  d :     0.214403
      dxz     :     0.055939
      dyz     :     0.018472
      dx2y2   :     0.064543
      dxy     :     0.056379

 21 H s       :     0.660975  s :     0.660975
      pz      :     0.099245  p :     0.300828
      px      :     0.079023
      py      :     0.122560
      dz2     :     0.041134  d :     0.214086
      dxz     :     0.026855
      dyz     :     0.052473
      dx2y2   :     0.036090
      dxy     :     0.057535

 22 H s       :     0.640541  s :     0.640541
      pz      :     0.096647  p :     0.308801
      px      :     0.125704
      py      :     0.086449
      dz2     :     0.039132  d :     0.223199
      dxz     :     0.049557
      dyz     :     0.032632
      dx2y2   :     0.055425
      dxy     :     0.046454



                      *****************************
                      * MAYER POPULATION ANALYSIS *
                      *****************************

  NA   - Mulliken gross atomic population
  ZA   - Total nuclear charge
  QA   - Mulliken gross atomic charge
  VA   - Mayer's total valence
  BVA  - Mayer's bonded valence
  FA   - Mayer's free valence

  ATOM       NA         ZA         QA         VA         BVA        FA
  0 C      6.4406     6.0000    -0.4406     2.7649     2.7649    -0.0000
  1 C      6.6172     6.0000    -0.6172     2.5593     2.5593     0.0000
  2 C      6.5145     6.0000    -0.5145     3.1966     3.1966    -0.0000
  3 C      6.3810     6.0000    -0.3810     2.6433     2.6433     0.0000
  4 C      7.2990     6.0000    -1.2990     2.2193     2.2193    -0.0000
  5 C      4.5247     6.0000     1.4753     0.4986     0.4986    -0.0000
  6 O      8.8113     8.0000    -0.8113     1.5226     1.5226    -0.0000
  7 C      4.5258     6.0000     1.4742     0.4988     0.4988     0.0000
  8 C      7.2990     6.0000    -1.2990     2.2173     2.2173    -0.0000
  9 C      6.3816     6.0000    -0.3816     2.6438     2.6438     0.0000
 10 C      6.5141     6.0000    -0.5141     3.1959     3.1959     0.0000
 11 C      6.6175     6.0000    -0.6175     2.5594     2.5594     0.0000
 12 C      6.4387     6.0000    -0.4387     2.7631     2.7631     0.0000
 13 H      0.4782     1.0000     0.5218     0.2824     0.2824    -0.0000
 14 H      0.6592     1.0000     0.3408     0.8739     0.8739     0.0000
 15 H      0.5311     1.0000     0.4689     0.5918     0.5918    -0.0000
 16 H      0.6372     1.0000     0.3628     0.8057     0.8057     0.0000
 17 H      0.5124     1.0000     0.4876     0.4347     0.4347     0.0000
 18 H      0.5124     1.0000     0.4876     0.4342     0.4342     0.0000
 19 H      0.6376     1.0000     0.3624     0.8064     0.8064    -0.0000
 20 H      0.5310     1.0000     0.4690     0.5914     0.5914    -0.0000
 21 H      0.6594     1.0000     0.3406     0.8745     0.8745     0.0000
 22 H      0.4765     1.0000     0.5235     0.2796     0.2796     0.0000

  Mayer bond orders larger than 0.100000
B(  0-C ,  1-C ) :   1.0381 B(  0-C ,  2-C ) :   0.1187 B(  0-C ,  3-C ) :  -0.1271 
B(  0-C ,  4-C ) :   0.4265 B(  0-C ,  5-C ) :   0.7900 B(  0-C ,  7-C ) :  -0.1223 
B(  0-C , 12-C ) :   0.3170 B(  0-C , 22-H ) :   0.3603 B(  1-C ,  2-C ) :   1.1667 
B(  1-C ,  4-C ) :  -0.2169 B(  1-C ,  5-C ) :  -0.3262 B(  1-C , 21-H ) :   0.8530 
B(  2-C ,  3-C ) :   1.1665 B(  2-C ,  4-C ) :   0.4924 B(  2-C ,  5-C ) :  -0.1593 
B(  2-C , 20-H ) :   0.5951 B(  3-C ,  4-C ) :   1.1884 B(  3-C ,  5-C ) :  -0.3491 
B(  3-C , 19-H ) :   0.8004 B(  4-C ,  6-O ) :   0.1733 B(  4-C , 18-H ) :   0.2764 
B(  5-C ,  6-O ) :   0.5084 B(  5-C , 12-C ) :  -0.1231 B(  5-C , 18-H ) :   0.1001 
B(  6-O ,  7-C ) :   0.5084 B(  6-O ,  8-C ) :   0.1731 B(  7-C ,  9-C ) :  -0.3484 
B(  7-C , 10-C ) :  -0.1594 B(  7-C , 11-C ) :  -0.3257 B(  7-C , 12-C ) :   0.7901 
B(  8-C ,  9-C ) :   1.1885 B(  8-C , 10-C ) :   0.4918 B(  8-C , 11-C ) :  -0.2168 
B(  8-C , 12-C ) :   0.4248 B(  8-C , 17-H ) :   0.2768 B(  9-C , 10-C ) :   1.1665 
B(  9-C , 12-C ) :  -0.1271 B(  9-C , 16-H ) :   0.7996 B( 10-C , 11-C ) :   1.1668 
B( 10-C , 12-C ) :   0.1178 B( 10-C , 15-H ) :   0.5954 B( 11-C , 12-C ) :   1.0380 
B( 11-C , 14-H ) :   0.8523 B( 12-C , 13-H ) :   0.3621 

-------
TIMINGS
-------

Total SCF time: 0 days 0 hours 1 min 39 sec 

Total time                  ....      99.418 sec
Sum of individual times     ....      99.007 sec  ( 99.6%)

SCF preparation             ....       1.402 sec  (  1.4%)
Fock matrix formation       ....      80.298 sec  ( 80.8%)
  Startup                   ....       2.247 sec  (  2.8% of F)
  Split-RI-J                ....      15.571 sec  ( 19.4% of F)
  XC integration            ....      53.750 sec  ( 66.9% of F)
    XC Preparation          ....       0.000 sec  (  0.0% of XC)
    Basis function eval.    ....       4.768 sec  (  8.9% of XC)
    Density eval.           ....      21.854 sec  ( 40.7% of XC)
    XC-Functional eval.     ....       0.581 sec  (  1.1% of XC)
    XC-Potential eval.      ....      22.824 sec  ( 42.5% of XC)
  CPCM terms                ....       5.245 sec  (  6.5% of F)
Diagonalization             ....       0.000 sec  (  0.0%)
Density matrix formation    ....       3.671 sec  (  3.7%)
Total Energy calculation    ....       1.657 sec  (  1.7%)
Population analysis         ....       0.834 sec  (  0.8%)
Orbital Transformation      ....       1.604 sec  (  1.6%)
Orbital Orthonormalization  ....       0.000 sec  (  0.0%)
DIIS solution               ....       6.511 sec  (  6.5%)
SOSCF solution              ....       3.031 sec  (  3.0%)
Finished LeanSCF after  99.8 sec

Maximum memory used throughout the entire LEANSCF-calculation: 99.1 MB


-------------------------------------------------------------------------------
                          DFT DISPERSION CORRECTION                            
                                                                               
                              DFTD3 V3.1  Rev 1                                
                          USING Becke-Johnson damping                          
-------------------------------------------------------------------------------
The R2SCAN functional is recognized
Active option DFTDOPT                   ...         4   

molecular C6(AA) [au] = 6550.123737 


            DFT-D V3
 parameters
 s6 scaling factor         :     1.0000 
 a1 scaling factor         :     0.4948 
 s8 scaling factor         :     0.7898 
 a2 scaling factor         :     5.7308 
 ad hoc parameters k1-k3   :    16.0000     1.3333    -4.0000 

 Edisp/kcal,au: -5.202190169939  -0.008290216849 
 E6   /kcal   :  -4.064009688 
 E8   /kcal   :  -1.138180482 
 % E8         :  21.878871104 

-------------------------   ----------------
Dispersion correction           -0.008290217
-------------------------   ----------------


-------------------------   --------------------
FINAL SINGLE POINT ENERGY      -538.422037486644
-------------------------   --------------------

                                *** OPTIMIZATION RUN DONE ***



           ************************************************************
           *        Program running with 8 parallel MPI-processes     *
           *              working on a common directory               *
           ************************************************************

------------------------------------------------------------------------------
                              ORCA PROPERTY CALCULATIONS
------------------------------------------------------------------------------

GBWName                                 ... cs_rporg_061_red_opt_06.gbw
Number of atoms                         ...     23
Number of basis functions               ...    906
Max core memory                         ...   3500 MB

Electric properties:
Dipole moment                           ... YES
Quadrupole moment                       ...  NO
Static polarizability (Dipole/Dipole)   ...  NO
Static polarizability (Dipole/Quad.)    ...  NO
Static polarizability (Quad./Quad.)     ...  NO
Static polarizability (Velocity)        ...  NO

Atomic electric properties:
Dipole moment                           ...  NO
Quadrupole moment                       ...  NO
Static polarizability                   ...  NO

Choice of electric origin               ... Center of mass
Position of electric origin             ...    -0.000001     0.004697    -0.000026

General magnetic properties:
Magnetizability                         ...  NO

EPR properties:
g-Tensor (aka g-matrix)                 ...  NO
Zero-Field splitting spin-orbit         ...  NO
Zero-field splitting spin-spin          ...  NO
Hyperfine couplings                     ...  NO (   0 nuclei)
Quadrupole couplings                    ...  NO (   0 nuclei)
Contact density                         ...  NO (   0 nuclei)

NMR properties:
Chemical shifts                         ...  NO (   0 nuclei)
Spin-rotation constants                 ...  NO (   0 nuclei)
Spin-spin couplings                     ...  NO (   0 nuclei,    0 pairs)

Choice of magnetic origin               ... GIAO
Position of magnetic origin             ...     0.000000     0.000000     0.000000

Properties with geometric perturbations:
SCF Hessian                             ...  NO
IR spectrum                             ...  NO
VCD spectrum                            ...  NO
X-ray spectroscopy properties:
SCF XES/XAS/RIXS spectra                ...  NO


-------------
DIPOLE MOMENT
-------------

Method             : SCF
Type of density    : Electron Density
Multiplicity       :   1
Irrep              :   0
Energy             :  -538.4137472697943849 Eh
Relativity type    : 
Basis              : AO
                                X                 Y                 Z
Electronic contribution:     -0.000586569       2.491671852       0.000302623
Nuclear contribution   :      0.000058523      -3.007823337      -0.000183103
                        -----------------------------------------
Total Dipole Moment    :     -0.000528047      -0.516151485       0.000119520
                        -----------------------------------------
Magnitude (a.u.)       :      0.516151769
Magnitude (Debye)      :      1.311953534



--------------------
Rotational spectrum 
--------------------
 
Rotational constants in cm-1:             0.080075             0.014568             0.013638 
Rotational constants in MHz :          2400.590787           436.722989           408.848518 

Dipole components along the rotational axes: 
x,y,z [a.u.] :    -0.000526     0.516151     0.000128 
x,y,z [Debye]:    -0.001338     1.311953     0.000326 

 

Dipole moment calculation done in   0.2 sec 

Maximum memory used throughout the entire PROP-calculation: 78.5 MB

--------------------------------
SUGGESTED CITATIONS FOR THIS RUN
--------------------------------

Below you find a list of papers that are relevant to this ORCA run
We neither can nor want to force you to cite these papers, but we appreciate if you do
You receive ORCA, which is the product of decades of hard work by many enthusiastic individuals, for free
The only thing we kindly ask in return is that you cite our papers,
We deeply appreciate it, if you show your appreciation for ORCA by not just citing the generic ORCA reference.

Please note that relegating all ORCA citations to the supporting information does *not* help us.
SI sections are not indexed - citations you put there will not count into any citation statistics
But we need these citations in order to attract the funding resources that allow us to do what we are doing

Therefore, if you are a happy ORCA user, please consider citing a few of the papers listed below in the main body of your paper

In addition to the list printed below, the program has created the file cs_rporg_061_red_opt_06.bibtex that contains the list in bibtex format
You can import this file easily into all common literature databanks and citation aid programs


List of essential papers. We consider these as the minimum necessary citations

  1. Neese,F.
     Software update: the ORCA program system, version 5.0
     WIRES Comput. Molec. Sci., 2022 12(1)e1606
     doi.org/10.1002/wcms.1606

List of papers to cite with high priority. The work reported in these papers was absolutely
necessary for this run to complete.
Our perspective: the developers of density functionals and basis sets usually get cited in chemistry papers
Good! But without the algorithms to do something with them, the functionals or basis sets would not do anything.
Hence, in our opinion, the algorithm design and method developments papers are equally worthy of getting cited

  1. Neese,F.
     An improvement of the resolution of the identity approximation for the formation of the Coulomb matrix
     J. Comp. Chem., 2003 24(14)1740-1747
     doi.org/10.1002/jcc.10318
  2. Garcia-Rates,M.; Neese,F.
     Effect of the Solute Cavity on the Solvation Energy and its Derivatives within the Framework of the Gaussian Charge Scheme
     J. Comput. Chem., 2020 41 922-939
     doi.org/10.1002/jcc.26139
  3. Neese,F.
     The SHARK Integral Generation and Digestion System
     J. Comp. Chem., 2022  1-16
     doi.org/10.1002/jcc.26942
  4. Lehtola,S.; Steigemann,C.; Oliveira,M.; Marques,M.
     Recent developments in Libxc - A comprehensive library of functionals for density functional theory
     Software X, 2018 7 
     doi.org/10.1016/j.softx.2017.11.002
  5. Grimme,S.; Antony,J.; Ehrlich,S.; Krieg,H.
     A consistent and accurate ab initio parametrization of density functional dispersion correction (DFT-D) for the 94 elements H-Pu
     J. Chem. Phys., 2010 132 154104-XXXX
     doi.org/10.1063/1.3382344
  6. Grimme,S.; Ehrlich,S.; Goerigk,L.
     Effect of the damping function in dispersion corrected density functional theory
     J. Comput. Chem., 2011 32(7)1456-1465
     doi.org/10.1002/jcc.21759

List of suggested additional citations. These are papers that are important in the 'surrounding' of 
of this run, or papers that preceded the highly important papers. If you like your results we are grateful for a citation.

  1. Neese,F.
     The ORCA program system
     WIRES Comput. Molec. Sci., 2012 2(1)73-78
     doi.org/10.1002/wcms.81
  2. Neese,F.
     Software update: the ORCA program system, version 4.0
     WIRES Comput. Molec. Sci., 2018 8(1)1-6
     doi.org/10.1002/wcms.1327
  3. Neese,F.; Wennmohs,F.; Becker,U.; Riplinger,C.
     The ORCA quantum chemistry program package
     J. Chem. Phys., 2020 152 Art. No. L224108
     doi.org/10.1063/5.0004608

List of optional additional citations

  1. Neese,F.
     Approximate second-order SCF convergence for spin unrestricted wavefunctions
     Chem. Phys. Lett., 2000 325(1-3)93-98
     doi.org/10.1016/s0009-2614(00)00662-x

Timings for individual modules:

Sum of individual times          ...     1043.321 sec (=  17.389 min)
Startup calculation              ...       57.879 sec (=   0.965 min)   5.5 %
SCF iterations                   ...      795.498 sec (=  13.258 min)  76.2 %
Property calculations            ...        2.264 sec (=   0.038 min)   0.2 %
SCF Gradient evaluation          ...      187.300 sec (=   3.122 min)  18.0 %
Geometry relaxation              ...        0.380 sec (=   0.006 min)   0.0 %
                             ****ORCA TERMINATED NORMALLY****
TOTAL RUN TIME: 0 days 0 hours 17 minutes 42 seconds 59 msec
