
                                 *****************
                                 * O   R   C   A *
                                 *****************

                                            #,                                       
                                            ###                                      
                                            ####                                     
                                            #####                                    
                                            ######                                   
                                           ########,                                 
                                     ,,################,,,,,                         
                               ,,#################################,,                 
                          ,,##########################################,,             
                       ,#########################################, ''#####,          
                    ,#############################################,,   '####,        
                  ,##################################################,,,,####,       
                ,###########''''           ''''###############################       
              ,#####''   ,,,,##########,,,,          '''####'''          '####       
            ,##' ,,,,###########################,,,                        '##       
           ' ,,###''''                  '''############,,,                           
         ,,##''                                '''############,,,,        ,,,,,,###''
      ,#''                                            '''#######################'''  
     '                                                          ''''####''''         
             ,#######,   #######,   ,#######,      ##                                
            ,#'     '#,  ##    ##  ,#'     '#,    #''#        ,####,   ,####,        
            ##       ##  ##   ,#'  ##            #'  '#       #'       #'  '#        
            ##       ##  #######   ##           ,######,      #####,   #    #        
            '#,     ,#'  ##    ##  '#,     ,#' ,#      #,     #,   #   #,  ,#        
             '#######'   ##     ##  '#######'  #'      '#     '####' # '####'        



                #########################################################
                #                        -***-                          #
                #          Department of theory and spectroscopy        #
                #                                                       #
                #                      Frank Neese                      #
                #                                                       #
                #     Directorship, Architecture, Infrastructure        #
                #                    SHARK, DRIVERS                     #
                #        Core code/Algorithms in most modules           #
                #                                                       #
                #        Max Planck Institute fuer Kohlenforschung      #
                #                Kaiser Wilhelm Platz 1                 #
                #                 D-45470 Muelheim/Ruhr                 #
                #                      Germany                          #
                #                                                       #
                #                  All rights reserved                  #
                #                        -***-                          #
                #########################################################


                         Program Version 6.0.0  -   RELEASE  -


 With contributions from (in alphabetic order):
   Daniel Aravena         : Magnetic Suceptibility
   Michael Atanasov       : Ab Initio Ligand Field Theory (pilot matlab implementation)
   Alexander A. Auer      : GIAO ZORA, VPT2 properties, NMR spectrum
   Ute Becker             : All parallelization in ORCA, NUMFREQ, NUMCALC
   Giovanni Bistoni       : ED, misc. LED, open-shell LED, HFLD
   Martin Brehm           : Molecular dynamics
   Dmytro Bykov           : pre 5.0 version of the SCF Hessian
   Marcos Casanova-Páez   : Triplet and SCS-CIS(D). UHF-(DLPNO)-IP/EA/STEOM-CCSD. UHF-CVS-IP/STEOM-CCSD
   Vijay G. Chilkuri      : MRCI spin determinant printing, contributions to CSF-ICE
   Pauline Colinet        : FMM embedding
   Dipayan Datta          : RHF DLPNO-CCSD density
   Achintya Kumar Dutta   : EOM-CC, STEOM-CC
   Nicolas Foglia         : Exact transition moments, OPA infrastructure, MCD improvements
   Dmitry Ganyushin       : Spin-Orbit,Spin-Spin,Magnetic field MRCI
   Miquel Garcia          : C-PCM and meta-GGA Hessian, CCSD/C-PCM, Gaussian charge scheme
   Tiago L. C. Gouveia    : GS-ROHF, GS-ROCIS
   Yang Guo               : DLPNO-NEVPT2, F12-NEVPT2, CIM, IAO-localization
   Andreas Hansen         : Spin unrestricted coupled pair/coupled cluster methods
   Ingolf Harden          : AUTO-CI MPn and infrastructure 
   Benjamin Helmich-Paris : MC-RPA, TRAH-(SCF,CASSCF), AVAS, COSX integrals, SCF dyn. polar.
   Lee Huntington         : MR-EOM, pCC
   Robert Izsak           : Overlap fitted RIJCOSX, COSX-SCS-MP3, EOM
   Riya Kayal             : Wick's Theorem for AUTO-CI, AUTO-CI UHF-CCSDT
   Emily Kempfer          : AUTO-CI, RHF CISDT and CCSDT
   Christian Kollmar      : KDIIS, OOCD, Brueckner-CCSD(T), CCSD density, CASPT2, CASPT2-K, improved NEVPT2
   Axel Koslowski         : Symmetry handling
   Simone Kossmann        : Meta GGA functionals, TD-DFT gradient, OOMP2, (MP2 Hessian; deprecated post 5.0)
   Lucas Lang             : DCDCAS
   Marvin Lechner         : AUTO-CI (C++ implementation), FIC-MRCC
   Spencer Leger          : CASSCF response
   Dagmar Lenk            : GEPOL surface, SMD, ORCA-2-JSON
   Dimitrios Liakos       : Extrapolation schemes; Compound Job, initial MDCI parallelization
   Dimitrios Manganas     : Further ROCIS development; embedding schemes. LFT, Crystal Embedding
   Dimitrios Pantazis     : SARC Basis sets
   Anastasios Papadopoulos: AUTO-CI, single reference methods and gradients
   Taras Petrenko         : pre 6.0 DFT Hessian and TD-DFT gradient, (ASA, deprecated), ECA, 1-Electron XAS/XES, NRVS
   Peter Pinski           : DLPNO-MP2, DLPNO-MP2 Gradient
   Christoph Reimann      : Effective Core Potentials
   Marius Retegan         : Local ZFS, SOC
   Christoph Riplinger    : Optimizer, TS searches, QM/MM, DLPNO-CCSD(T), (RO)-DLPNO pert. Triples
   Michael Roemelt        : Original ROCIS implementation
   Masaaki Saitow         : Open-shell DLPNO-CCSD energy and density
   Barbara Sandhoefer     : DKH picture change effects
   Kantharuban Sivalingam : CASSCF convergence/infrastructure, NEVPT2 and variants, FIC-MRCI
   Bernardo de Souza      : ESD, SOC TD-DFT
   Georgi Stoychev        : AutoAux, RI-MP2 NMR, DLPNO-MP2 response, X2C
   Van Anh Tran           : RI-MP2 g-tensors
   Willem Van den Heuvel  : Paramagnetic NMR
   Zikuan Wang            : NOTCH, Electric field optimization 
   Frank Wennmohs         : Technical directorship and infrastructure
   Hang Xu                : AUTO-CI-Response properties 


 We gratefully acknowledge several colleagues who have allowed us to
 interface, adapt or use parts of their codes:
   Stefan Grimme, W. Hujo, H. Kruse, P. Pracht,  : VdW corrections, initial TS optimization,
                  C. Bannwarth, S. Ehlert,         DFT functionals, gCP, sTDA/sTD-DF
                  L. Wittmann, M. Mueller
   Ed Valeev, F. Pavosevic, A. Kumar             : LibInt (2-el integral package), F12 methods
   Garnet Chan, S. Sharma, J. Yang, R. Olivares  : DMRG
   Ulf Ekstrom                                   : XCFun DFT Library
   Mihaly Kallay                                 : mrcc  (arbitrary order and MRCC methods)
   Frank Weinhold                                : gennbo (NPA and NBO analysis)
   Simon Mueller                                 : openCOSMO-RS
   Christopher J. Cramer and Donald G. Truhlar   : smd solvation model
   Lars Goerigk                                  : TD-DFT with DH, B97 family of functionals
   V. Asgeirsson, H. Jonsson                     : NEB implementation
   FAccTs GmbH                                   : IRC, NEB, NEB-TS, DLPNO-Multilevel, CI-OPT
                                                   MM, QMMM, 2- and 3-layer-ONIOM, Crystal-QMMM,
                                                   LR-CPCM, SF, NACMEs, symmetry and pop. for TD-DFT,
                                                   nearIR, NL-DFT gradient (VV10), updates on ESD,
                                                   ML-optimized integration grids, MBIS, APM,
                                                   GOAT, DOCKER, SOLVATOR, interface openCOSMO-RS
   S Lehtola, MJT Oliveira, MAL Marques          : LibXC Library
   Liviu Ungur et al                             : ANISO software


 Your calculation uses the libint2 library for the computation of 2-el integrals
 For citations please refer to: http://libint.valeyev.net

 Your ORCA version has been built with support for libXC version: 6.2.2
 For citations please refer to: https://libxc.gitlab.io

 This ORCA versions uses:
   CBLAS   interface :  Fast vector & matrix operations
   LAPACKE interface :  Fast linear algebra routines
   SCALAPACK package :  Parallel linear algebra routines
   Shared memory     :  Shared parallel matrices
   BLAS/LAPACK       :  OpenBLAS 0.3.27  USE64BITINT DYNAMIC_ARCH NO_AFFINITY SkylakeX SINGLE_THREADED
        Core in use  :  SkylakeX
   Copyright (c) 2011-2014, The OpenBLAS Project


NOTE: MaxCore=3000 MB was set to SCF,MP2,MDCI,CIPSI,MRCI and CIS
      => If you want to overwrite this, your respective input block should be placed after the MaxCore statement
Your calculation utilizes the atom-pairwise dispersion correction
with the Becke-Johnson damping scheme (D3BJ)


Your calculation utilizes the SMD solvation module
Please cite in your paper:
A.V. Marenich, C.J. Cramer, D.G. Truhlar J. Phys. Chem. B, 113, (2009), 6378 

Warning: RI is on but no J-basis has been assigned. Assigning Def2/J (nothing to worry about!)
================================================================================

----- Orbital basis set information -----
Your calculation utilizes the basis: aug-cc-pVTZ 
    H, B-Ne : Obtained from the ccRepo (grant-hill.group.shef.ac.uk/ccrepo) Feb. 2017
              R. A. Kendall, T. H. Dunning, Jr., R. J. Harrison, J. Chem. Phys. 96, 6796 (1992)
         He : Obtained from the ccRepo (grant-hill.group.shef.ac.uk/ccrepo) Feb. 2017
              D. E. Woon, T. H. Dunning, Jr., J. Chem. Phys. 100, 2975 (1994)
  Li-Be, Na : Obtained from the ccRepo (grant-hill.group.shef.ac.uk/ccrepo) Feb. 2017
              B. P. Prascher, D. E. Woon, K. A. Peterson, T. H. Dunning, Jr., A. K. Wilson, Theor. Chem. Acc. 128, 69 (2011)
         Mg : Obtained from the Peterson Research Group Website (tyr0.chem.wsu.edu/~kipeters) Feb. 2017
              B. P. Prascher, D. E. Woon, K. A. Peterson, T. H. Dunning, Jr., A. K. Wilson, Theor. Chem. Acc. 128, 69 (2011)
      Al-Ar : Obtained from the ccRepo (grant-hill.group.shef.ac.uk/ccrepo) Feb. 2017
              D. E. Woon, T. H. Dunning, Jr., J. Chem. Phys. 98, 1358 (1993)
      Sc-Zn : Obtained from the ccRepo (grant-hill.group.shef.ac.uk/ccrepo) Feb. 2017
              N. B. Balabanov, K. A. Peterson, J. Chem. Phys. 123, 064107 (2005)
              N. B. Balabanov, K. A. Peterson, J. Chem. Phys. 125, 074110 (2006)
      Ga-Kr : Obtained from the ccRepo (grant-hill.group.shef.ac.uk/ccrepo) Feb. 2017
              A. K. Wilson, D. E. Woon, K. A. Peterson, T. H. Dunning, Jr., J. Chem. Phys. 110, 7667 (1999)
     Ag, Au : Obtained from the Peterson Research Group Website (tyr0.chem.wsu.edu/~kipeters) Feb. 2017
              K. A. Peterson, C. Puzzarini, Theor. Chem. Acc. 114, 283 (2005)

----- AuxJ basis set information -----
Your calculation utilizes the auxiliary basis: def2/J
   F. Weigend, Phys. Chem. Chem. Phys. 8, 1057 (2006).

================================================================================
                                        WARNINGS
                       Please study these warnings very carefully!
================================================================================

Using LibXC functional ID 497 : Re-regularized SCAN exchange by Furness et al
[ 1]  J. W. Furness, A. D. Kaplan, J. Ning, J. P. Perdew, and J. Sun.,  J. Phys. Chem. Lett. 11, 8208-8215 (2020)
[ 2]  J. W. Furness, A. D. Kaplan, J. Ning, J. P. Perdew, and J. Sun.,  J. Phys. Chem. Lett. 11, 9248-9248 (2020)
Using LibXC functional ID 498 : Re-regularized SCAN correlation by Furness et al
[ 1]  J. W. Furness, A. D. Kaplan, J. Ning, J. P. Perdew, and J. Sun.,  J. Phys. Chem. Lett. 11, 8208-8215 (2020)
[ 2]  J. W. Furness, A. D. Kaplan, J. Ning, J. P. Perdew, and J. Sun.,  J. Phys. Chem. Lett. 11, 9248-9248 (2020)
Using LibXC functional ID 497 : Re-regularized SCAN exchange by Furness et al
[ 1]  J. W. Furness, A. D. Kaplan, J. Ning, J. P. Perdew, and J. Sun.,  J. Phys. Chem. Lett. 11, 8208-8215 (2020)
[ 2]  J. W. Furness, A. D. Kaplan, J. Ning, J. P. Perdew, and J. Sun.,  J. Phys. Chem. Lett. 11, 9248-9248 (2020)
Using LibXC functional ID 498 : Re-regularized SCAN correlation by Furness et al
[ 1]  J. W. Furness, A. D. Kaplan, J. Ning, J. P. Perdew, and J. Sun.,  J. Phys. Chem. Lett. 11, 8208-8215 (2020)
[ 2]  J. W. Furness, A. D. Kaplan, J. Ning, J. P. Perdew, and J. Sun.,  J. Phys. Chem. Lett. 11, 9248-9248 (2020)


WARNING: Found flag for RIJCOSX approximation but no HF exchange needed!
  ===> : RIJCOSX  will be disabled and Split-RI-J is turned on

WARNING: your system is open-shell and RHF/RKS was chosen
  ===> : WILL SWITCH to UHF/UKS


================================================================================
                                       INPUT FILE
================================================================================
NAME = cs_rporg_162_red_solv_03.inp
|  1> !r2SCAN aug-cc-pVTZ d3 TightSCF SlowConv RIJCOSX defgrid2
|  2>  
|  3> %pal
|  4> nprocs 4
|  5> end
|  6>  
|  7> %scf
|  8> MaxIter 1500
|  9> end
| 10>  
| 11> %maxcore 3000
| 12>  
| 13> !CPCM
| 14> %cpcm smd true
| 15> SMDsolvent "MeCN"
| 16> surfacetype gepol_ses
| 17> rsolv 2.19
| 18> end 
| 19>  
| 20> * xyz -1 2
| 21> C          -1.22535307927293     -0.03882807002799     -0.00002255469277
| 22> C          -1.22206264378164      1.41582015720061     -0.00002423880206
| 23> C           0.00004637420421      2.08121905033007     -0.00000415463824
| 24> C           1.22212161683371      1.41575862792076      0.00002170232485
| 25> C           1.22534433396412     -0.03888819251674      0.00002507087618
| 26> C          -0.00002135567409     -0.71608207495025      0.00000157424078
| 27> H          -0.00004774645346     -1.81053735349218      0.00000261550832
| 28> C           2.43402384370652     -0.77080587803239      0.00007579493229
| 29> N           3.44413671726320     -1.36247120639636      0.00011250089172
| 30> H           2.16848850432676      1.96074544120089      0.00003301965359
| 31> H           0.00007494156619      3.17901522614598     -0.00000842096167
| 32> H          -2.16840192148197      1.96085605610510     -0.00003754989011
| 33> C          -2.43406244869294     -0.77069683887805     -0.00005052688718
| 34> N          -3.44419623650770     -1.36232524460946     -0.00007393255569
| 35> *
| 36> 
| 37>                          ****END OF INPUT****
================================================================================

                       ****************************
                       * Single Point Calculation *
                       ****************************

---------------------------------
CARTESIAN COORDINATES (ANGSTROEM)
---------------------------------
  C     -1.225353   -0.038828   -0.000023
  C     -1.222063    1.415820   -0.000024
  C      0.000046    2.081219   -0.000004
  C      1.222122    1.415759    0.000022
  C      1.225344   -0.038888    0.000025
  C     -0.000021   -0.716082    0.000002
  H     -0.000048   -1.810537    0.000003
  C      2.434024   -0.770806    0.000076
  N      3.444137   -1.362471    0.000113
  H      2.168489    1.960745    0.000033
  H      0.000075    3.179015   -0.000008
  H     -2.168402    1.960856   -0.000038
  C     -2.434062   -0.770697   -0.000051
  N     -3.444196   -1.362325   -0.000074

----------------------------
CARTESIAN COORDINATES (A.U.)
----------------------------
  NO LB      ZA    FRAG     MASS         X           Y           Z
   0 C     6.0000    0    12.011   -2.315582   -0.073374   -0.000043
   1 C     6.0000    0    12.011   -2.309364    2.675512   -0.000046
   2 C     6.0000    0    12.011    0.000088    3.932934   -0.000008
   3 C     6.0000    0    12.011    2.309475    2.675396    0.000041
   4 C     6.0000    0    12.011    2.315565   -0.073488    0.000047
   5 C     6.0000    0    12.011   -0.000040   -1.353199    0.000003
   6 H     1.0000    0     1.008   -0.000090   -3.421420    0.000005
   7 C     6.0000    0    12.011    4.599638   -1.456612    0.000143
   8 N     7.0000    0    14.007    6.508475   -2.574697    0.000213
   9 H     1.0000    0     1.008    4.097849    3.705272    0.000062
  10 H     1.0000    0     1.008    0.000142    6.007468   -0.000016
  11 H     1.0000    0     1.008   -4.097686    3.705481   -0.000071
  12 C     6.0000    0    12.011   -4.599711   -1.456406   -0.000095
  13 N     7.0000    0    14.007   -6.508588   -2.574422   -0.000140

--------------------------------
INTERNAL COORDINATES (ANGSTROEM)
--------------------------------
 C      0   0   0     0.000000000000     0.00000000     0.00000000
 C      1   0   0     1.454651948731     0.00000000     0.00000000
 C      2   1   0     1.391512177174   118.69646849     0.00000000
 C      3   2   1     1.391511937825   122.86338029     0.00000000
 C      4   3   2     1.454650390343   118.69669140     0.00000000
 C      1   2   3     1.400039578235   118.80029657     0.00000000
 H      6   1   2     1.094455278861   118.92851866   180.00001633
 C      5   4   3     1.413014387122   121.32400068   180.00118588
 N      8   5   4     1.170639090181   179.16222480     0.00000000
 H      4   3   2     1.092071844029   121.49378148   179.99974734
 H      3   2   1     1.097796176196   118.56835579   179.99982449
 H      2   1   3     1.092072415085   119.80981454   180.00021221
 C      1   2   3     1.413014591335   121.32434402   180.00038907
 N     13   1   2     1.170638475492   179.16247197     0.00000000

---------------------------
INTERNAL COORDINATES (A.U.)
---------------------------
 C      0   0   0     0.000000000000     0.00000000     0.00000000
 C      1   0   0     2.748893803277     0.00000000     0.00000000
 C      2   1   0     2.629576926875   118.69646849     0.00000000
 C      3   2   1     2.629576474571   122.86338029     0.00000000
 C      4   3   2     2.748890858351   118.69669140     0.00000000
 C      1   2   3     2.645691379514   118.80029657     0.00000000
 H      6   1   2     2.068220742871   118.92851866   180.00001633
 C      5   4   3     2.670210214952   121.32400068   180.00118588
 N      8   5   4     2.212187282105   179.16222480     0.00000000
 H      4   3   2     2.063716703781   121.49378148   179.99974734
 H      3   2   1     2.074534123876   118.56835579   179.99982449
 H      2   1   3     2.063717782921   119.80981454   180.00021221
 C      1   2   3     2.670210600857   121.32434402   180.00038907
 N     13   1   2     2.212186120510   179.16247197     0.00000000

---------------------
BASIS SET INFORMATION
---------------------
There are 3 groups of distinct atoms

 Group   1 Type C   : 19s6p3d2f contracted to 5s4p3d2f pattern {88111/3111/111/11}
 Group   2 Type H   : 6s3p2d contracted to 4s3p2d pattern {3111/111/11}
 Group   3 Type N   : 19s6p3d2f contracted to 5s4p3d2f pattern {88111/3111/111/11}

Atom   0C    basis set group =>   1
Atom   1C    basis set group =>   1
Atom   2C    basis set group =>   1
Atom   3C    basis set group =>   1
Atom   4C    basis set group =>   1
Atom   5C    basis set group =>   1
Atom   6H    basis set group =>   2
Atom   7C    basis set group =>   1
Atom   8N    basis set group =>   3
Atom   9H    basis set group =>   2
Atom  10H    basis set group =>   2
Atom  11H    basis set group =>   2
Atom  12C    basis set group =>   1
Atom  13N    basis set group =>   3
---------------------------------
AUXILIARY/J BASIS SET INFORMATION
---------------------------------
There are 3 groups of distinct atoms

 Group   1 Type C   : 12s5p4d2f1g contracted to 6s4p3d1f1g pattern {711111/2111/211/2/1}
 Group   2 Type H   : 5s2p1d contracted to 3s1p1d pattern {311/2/1}
 Group   3 Type N   : 12s5p4d2f1g contracted to 6s4p3d1f1g pattern {711111/2111/211/2/1}

Atom   0C    basis set group =>   1
Atom   1C    basis set group =>   1
Atom   2C    basis set group =>   1
Atom   3C    basis set group =>   1
Atom   4C    basis set group =>   1
Atom   5C    basis set group =>   1
Atom   6H    basis set group =>   2
Atom   7C    basis set group =>   1
Atom   8N    basis set group =>   3
Atom   9H    basis set group =>   2
Atom  10H    basis set group =>   2
Atom  11H    basis set group =>   2
Atom  12C    basis set group =>   1
Atom  13N    basis set group =>   3


           ************************************************************
           *        Program running with 4 parallel MPI-processes     *
           *              working on a common directory               *
           ************************************************************
------------------------------------------------------------------------------
                             ORCA STARTUP CALCULATIONS
                           -- RI-GTO INTEGRALS CHOSEN --
------------------------------------------------------------------------------
------------------------------------------------------------------------------
                   ___                                                        
                  /   \      - P O W E R E D   B Y -                         
                 /     \                                                     
                 |  |  |   _    _      __       _____    __    __             
                 |  |  |  | |  | |    /  \     |  _  \  |  |  /  |          
                  \  \/   | |  | |   /    \    | | | |  |  | /  /          
                 / \  \   | |__| |  /  /\  \   | |_| |  |  |/  /          
                |  |  |   |  __  | /  /__\  \  |    /   |      \           
                |  |  |   | |  | | |   __   |  |    \   |  |\   \          
                \     /   | |  | | |  |  |  |  | |\  \  |  | \   \       
                 \___/    |_|  |_| |__|  |__|  |_| \__\ |__|  \__/        
                                                                              
                      - O R C A' S   B I G   F R I E N D -                    
                                      &                                       
                       - I N T E G R A L  F E E D E R -                       
                                                                              
 v1 FN, 2020, v2 2021, v3 2022-2024                                           
------------------------------------------------------------------------------


----------------------
SHARK INTEGRAL PACKAGE
----------------------

Number of atoms                             ...     14
Number of basis functions                   ...    612
Number of shells                            ...    236
Maximum angular momentum                    ...      3
Integral batch strategy                     ... SHARK/LIBINT Hybrid
RI-J (if used) integral strategy            ... SPLIT-RIJ (Revised 2003 algorithm where possible)
Printlevel                                  ...      1
Contraction scheme used                     ... PARTIAL GENERAL contraction
Prescreening option                         ... SCHWARTZ
   Thresh                                   ... 2.500e-11
   Tcut                                     ... 2.500e-12
   Tpresel                                  ... 2.500e-12 
Coulomb Range Separation                    ... NOT USED
Exchange Range Separation                   ... NOT USED
Multipole approximations                    ... NOT USED
Finite Nucleus Model                        ... NOT USED
CABS basis                                  ... NOT available
Auxiliary Coulomb fitting basis             ... AVAILABLE
   # of basis functions in Aux-J            ...    534
   # of shells in Aux-J                     ...    170
   Maximum angular momentum in Aux-J        ...      4
Auxiliary J/K fitting basis                 ... NOT available
Auxiliary Correlation fitting basis         ... NOT available
Auxiliary 'external' fitting basis          ... NOT available

Checking pre-screening integrals            ... done (  0.0 sec) Dimension = 236
Save PGC pre-screening integrals            ... done (  0.0 sec) Dimension = 236
Calculate PGC overlap integrals             ... done (  0.1 sec) Dimension = 176
Calculating pre-screening integrals (ORCA)  ... done (  0.2 sec) Dimension = 176
Check shell pair data                       ... done (  0.0 sec)
Shell pair information
Shell pair cut-off parameter TPreSel        ...   2.5e-12
Total number of shell pairs                 ...     27966
Shell pairs after pre-screening             ...     22829
Total number of primitive shell pairs       ...     35022
Primitive shell pairs kept                  ...     26965
          la=0 lb=0:   5141 shell pairs
          la=1 lb=0:   5666 shell pairs
          la=1 lb=1:   1311 shell pairs
          la=2 lb=0:   4078 shell pairs
          la=2 lb=1:   1884 shell pairs
          la=2 lb=2:    702 shell pairs
          la=3 lb=0:   2132 shell pairs
          la=3 lb=1:    990 shell pairs
          la=3 lb=2:    726 shell pairs
          la=3 lb=3:    199 shell pairs

Calculating one electron integrals          ... done (  0.0 sec)
Calculating RI/J V-Matrix + Cholesky decomp.... done (  0.0 sec)
Calculating Nuclear repulsion               ... done (  0.0 sec) ENN=    405.556515259298 Eh

Diagonalization of the overlap matrix:
Smallest eigenvalue                        ... 7.309e-07
Time for diagonalization                   ...    0.048 sec
Threshold for overlap eigenvalues          ... 1.000e-07
Number of eigenvalues below threshold      ... 0

IMPORTANT:
Smallest eigenvalue of S below the DiffSThresh (1.000e-06) while
Thresh>1e-12 and/or TCut>1e-13! In order to avoid SCF convergence issues,
Thresh will be set to at least 1e-12 and TCut to at least 1e-13.
This can be turned off by adding %SCF DiffSThresh -1 END to the input.

Time for construction of square roots      ...    0.044 sec
Total time needed                          ...    0.110 sec

-------------------
DFT GRID GENERATION
-------------------

General Integration Accuracy     IntAcc      ... 4.388
Radial Grid Type                 RadialGrid  ... OptM3 with GC (2021)
Angular Grid (max. ang.)         AngularGrid ... 4 (Lebedev-302)
Angular grid pruning method      GridPruning ... 4 (adaptive)
Weight generation scheme         WeightScheme... mBecke (2022)
Basis function cutoff            BFCut       ... 1.0000e-11
Integration weight cutoff        WCut        ... 1.0000e-14
Partially contracted basis set               ... off
Rotationally invariant grid construction     ... off
Angular grids for H and He will be reduced by one unit
Diffuse basis detected: some atoms will have their outermost
                        angular grid increased by 1.

Total number of grid points                  ...    76700
Total number of batches                      ...     1205
Average number of points per batch           ...       63
Average number of grid points per atom       ...     5479

---------------------
SHARK GRID GENERATION
---------------------

General Integration Accuracy     IntAcc      ... 4.388
Radial Grid Type                 RadialGrid  ... OptM3 with GC (2021)
Angular Grid (max. ang.)         AngularGrid ... 4 (Lebedev-302)
Angular grid pruning method      GridPruning ... 4 (adaptive)
Weight generation scheme         WeightScheme... mBecke (2022)
Basis function cutoff            BFCut       ... 1.0000e-11
Integration weight cutoff        WCut        ... 1.0000e-14
Partially contracted basis set               ... off
Rotationally invariant grid construction     ... off
Angular grids for H and He will be reduced by one unit
Diffuse basis detected: some atoms will have their outermost
                        angular grid increased by 1.
Steep s-basis detected: some atoms will have their radial
                        grid points doubled.

Total number of grid points                  ...   140370
Total number of batches                      ...     2201
Average number of points per batch           ...       63
Average number of grid points per atom       ...    10026
Initializing property integral containers    ... done (  0.0 sec)

SHARK setup successfully completed in   4.8 seconds

Maximum memory used throughout the entire STARTUP-calculation: 65.0 MB


           ************************************************************
           *        Program running with 4 parallel MPI-processes     *
           *              working on a common directory               *
           ************************************************************
-------------------------------------------------------------------------------
                                 ORCA GUESS
                   Start orbitals & Density for SCF / CASSCF
-------------------------------------------------------------------------------

------------
SCF SETTINGS
------------
Hamiltonian:
 Density Functional     Method          .... DFT(GTOs)
  Functional kind                       .... Exchange
  Functional name                       .... Re-regularized SCAN exchange by Furness et al
  Functional family                     .... MGGA
  Functional refs                              
    [ 0] J. W. Furness, A. D. Kaplan, J. Ning, J. P. Perdew, and J. Sun.,  J. Phys. Chem. Lett. 11, 8208-8215 (2020), doi: 10.1021/acs.jpclett.0c02405
    [ 1] J. W. Furness, A. D. Kaplan, J. Ning, J. P. Perdew, and J. Sun.,  J. Phys. Chem. Lett. 11, 9248-9248 (2020), doi: 10.1021/acs.jpclett.0c03077
  Functional external parameters        .... 6
    Parameter  0 _c1        =  6.670000e-01 : c1 parameter        
    Parameter  1 _c2        =  8.000000e-01 : c2 parameter        
    Parameter  2 _d         =  1.240000e+00 : d parameter         
    Parameter  3 _k1        =  6.500000e-02 : k1 parameter        
    Parameter  4 _eta       =  1.000000e-03 : eta parameter       
    Parameter  5 _dp2       =  3.610000e-01 : dp2 parameter       
  Functional kind                       .... Correlation
  Functional name                       .... Re-regularized SCAN correlation by Furness et al
  Functional family                     .... MGGA
  Functional refs                              
    [ 0] J. W. Furness, A. D. Kaplan, J. Ning, J. P. Perdew, and J. Sun.,  J. Phys. Chem. Lett. 11, 8208-8215 (2020), doi: 10.1021/acs.jpclett.0c02405
    [ 1] J. W. Furness, A. D. Kaplan, J. Ning, J. P. Perdew, and J. Sun.,  J. Phys. Chem. Lett. 11, 9248-9248 (2020), doi: 10.1021/acs.jpclett.0c03077
  Functional external parameters        .... 1
    Parameter  0 _eta       =  1.000000e-03 : Regularization parameter
 Gradients option       PostSCFGGA      .... off
   NL short-range parameter             .... 12.300000
 RI-approximation to the Coulomb term is turned on
   Number of AuxJ basis functions       .... 534


General Settings:
 Integral files         IntName         .... cs_rporg_162_red_solv_03
 Hartree-Fock type      HFTyp           .... UHF
 Total Charge           Charge          ....   -1
 Multiplicity           Mult            ....    2
 Number of Electrons    NEL             ....   67
 Basis Dimension        Dim             ....  552
 Nuclear Repulsion      ENuc            ....    405.5565152593 Eh

Convergence Acceleration:
 AO-DIIS                CNVDIIS         .... on
   Start iteration      DIISMaxIt       ....     0
   Startup error        DIISStart       ....  0.200000
   # of expansion vecs  DIISMaxEq       ....     5
   Bias factor          DIISBfac        ....   1.050
   Max. coefficient     DIISMaxC        ....  10.000
 MO-DIIS                CNVKDIIS        .... off
 Trust-Rad. Augm. Hess. CNVTRAH         .... auto
   Auto Start mean grad. ratio tolernc. ....  1.125000
   Auto Start start iteration           ....    50
   Auto Start num. interpolation iter.  ....    10
   Max. Number of Micro iterations      ....    24
   Max. Number of Macro iterations      .... Maxiter - #DIIS iter
   Number of Davidson start vectors     ....     2
   Converg. threshold    (grad. norm)   ....   1.000e-05
   Grad. Scal. Fac. for Micro threshold ....   0.100
   Minimum threshold for Micro iter.    ....   1.000e-02
   NR start threshold (gradient norm)   ....   1.000e-04
   Initial trust radius                 ....   0.400
   Minimum AH scaling param. (alpha)    ....   1.000
   Maximum AH scaling param. (alpha)    .... 1000.000
   Quad. conv. algorithm                .... NR
   White noise on init. David. guess    .... on
   Maximum white noise                  ....   0.010
   Pseudo random numbers                .... off
   Inactive MOs                         .... canonical
   Orbital update algorithm             .... Taylor
   Preconditioner                       .... Diag
   Full preconditioner red. dimension   ....   250
 SOSCF                  CNVSOSCF        .... on
   Start iteration      SOSCFMaxIt      ....   150
   Startup grad/error   SOSCFStart      ....  0.001000
   Hessian update       SOSCFHessUp     .... L-BFGS
 Level Shifting         CNVShift        .... on
   Level shift para.    LevelShift      ....    0.2500
   Turn off err/grad.   ShiftErr        ....    0.0000
 Zerner damping         CNVZerner       .... off
 Static damping         CNVDamp         .... on
   Fraction old density DampFac         ....    0.8500
   Max. Damping (<1)    DampMax         ....    0.9800
   Min. Damping (>=0)   DampMin         ....    0.0000
   Turn off err/grad.   DampErr         ....    0.0300

SCF Procedure:
 Maximum # iterations   MaxIter         ....  1500
 SCF integral mode      SCFMode         .... Direct
   Integral package                     .... SHARK and LIBINT hybrid scheme
 Reset frequency        DirectResetFreq ....    20
 Integral Threshold     Thresh          ....  1.000e-12 Eh
 Primitive CutOff       TCut            ....  1.000e-13 Eh

Convergence Tolerance:
 Convergence Check Mode ConvCheckMode   .... Total+1el-Energy
 Convergence forced     ConvForced      .... 0
 Energy Change          TolE            ....  1.000e-08 Eh
 1-El. energy change                    ....  1.000e-05 Eh
 Orbital Gradient       TolG            ....  1.000e-05
 Orbital Rotation angle TolX            ....  1.000e-05
 DIIS Error             TolErr          ....  5.000e-07

------------------------------
INITIAL GUESS: MODEL POTENTIAL
------------------------------
Loading Hartree-Fock densities                     ... done
Calculating cut-offs                               ... done
Initializing the effective Hamiltonian             ... done
Setting up the integral package (SHARK)            ... done
Starting the Coulomb interaction                   ... done (   0.5 sec)
Making the grid                                    ... done (   0.3 sec)
Mapping shells                                     ... done
Starting the XC term evaluation                    ... done (   0.6 sec)
  promolecular density results
     # of electrons  =     65.994740705
     EX              =    -54.982089788
     EC              =     -2.162952586
     EX+EC           =    -57.145042375
Transforming the Hamiltonian                       ... done (   0.0 sec)
Diagonalizing the Hamiltonian                      ... done (   0.1 sec)
Back transforming the eigenvectors                 ... done (   0.1 sec)
Now organizing SCF variables                       ... done
                      ------------------
                      INITIAL GUESS DONE (   1.8 sec)
                      ------------------
             **** ENERGY FILE WAS UPDATED (cs_rporg_162_red_solv_03.en.tmp) ****
Finished Guess after   2.7 sec
Maximum memory used throughout the entire GUESS-calculation: 44.1 MB


           ************************************************************
           *        Program running with 4 parallel MPI-processes     *
           *              working on a common directory               *
           ************************************************************

-------------------------------------------------------------------------------------------
                                      ORCA LEAN-SCF
                              memory conserving SCF solver
-------------------------------------------------------------------------------------------

--------------------
CPCM SOLVATION MODEL
--------------------
CPCM parameters:
  Epsilon                                         ...      35.6880
  Refrac                                          ...       1.3442
  Rsolv                                           ...       2.1900
  Surface type                                    ...    GEPOL SES
  Discretization scheme                           ... Constant num. charges
  Epsilon function type                           ...         CPCM
Solvent:                                          ... ACETONITRILE
SMD-CDS solvent descriptors:
  Soln                                            ...       1.3442
  Soln25                                          ...       1.3416
  Sola                                            ...       0.0700
  Solb                                            ...       0.3200
  Solg                                            ...      41.2500
  Solc                                            ...       0.0000
  Solh                                            ...       0.0000
Radii:
  Scheme                                          ... Element-dependent radii
  Radius for C  used is    3.4960 Bohr (=   1.8500 Ang.)
  Radius for H  used is    2.2677 Bohr (=   1.2000 Ang.)
  Radius for N  used is    3.5716 Bohr (=   1.8900 Ang.)
Calculating surface                               ...        done! (  0.0s)
Cavity surface points                             ...          544
Cavity Volume                                     ...    1017.7225
Cavity Surface-area                               ...     603.5180
Calculating surface distance matrix               ...        done! (  0.0s)
Performing Cholesky decomposition & store         ...        done! (  0.0s)
Overall time for CPCM initialization              ...                 0.0s

----------------------------------------D-I-I-S--------------------------------------------
Iteration    Energy (Eh)           Delta-E    RMSDP     MaxDP     DIISErr   Damp  Time(sec)
-------------------------------------------------------------------------------------------
               ***  Starting incremental Fock matrix formation  ***
    1    -416.4698540943624039     0.00e+00  6.95e-04  3.86e-02  1.20e-01  0.850  11.4
Warning: op=0 Small HOMO/LUMO gap (   0.017) - skipping pre-diagonalization
         Will do a full diagonalization
    2    -416.5480605603364666    -7.82e-02  6.73e-04  4.27e-02  8.54e-02  0.850  11.7
                               ***Turning on AO-DIIS***
    3    -416.5964334256921120    -4.84e-02  4.50e-04  1.93e-02  5.36e-02  0.850  10.6
    4    -416.6269151386395606    -3.05e-02  3.69e-04  1.61e-02  4.28e-02  0.850  10.2
    5    -416.6487027142727584    -2.18e-02  3.15e-04  1.41e-02  3.71e-02  0.850  10.1
    6    -416.6661049533511232    -1.74e-02  2.71e-04  1.23e-02  3.21e-02  0.850   9.8
    7    -416.6806500342794379    -1.45e-02  2.30e-04  1.05e-02  2.68e-02  0.850   9.6
    8    -416.6927799284487719    -1.21e-02  1.28e-03  5.90e-02  2.15e-02  0.000   9.5
    9    -416.7541041442739242    -6.13e-02  8.43e-05  4.65e-03  3.40e-03  0.000  10.2
   10    -416.7542376731879585    -1.34e-04  3.31e-05  1.64e-03  2.83e-03  0.000   9.2
                              *** Initializing SOSCF ***
---------------------------------------S-O-S-C-F--------------------------------------
Iteration    Energy (Eh)           Delta-E    RMSDP     MaxDP     MaxGrad    Time(sec)
--------------------------------------------------------------------------------------
   11    -416.7543637991799415    -1.26e-04  2.74e-05  1.62e-03  7.76e-04     8.9
               *** Restarting incremental Fock matrix formation ***
   12    -416.7543866044165952    -2.28e-05  2.10e-05  1.03e-03  6.44e-04    10.7
   13    -416.7543953842649671    -8.78e-06  2.30e-05  1.21e-03  7.57e-04     8.4
   14    -416.7544108061476891    -1.54e-05  1.28e-05  6.44e-04  2.45e-04     8.7
   15    -416.7544112244107737    -4.18e-07  5.01e-06  2.63e-04  2.55e-04     8.0
   16    -416.7544126027592029    -1.38e-06  3.42e-06  1.80e-04  6.40e-05     7.6
   17    -416.7544127129381195    -1.10e-07  2.08e-06  1.07e-04  3.71e-05     7.2
   18    -416.7544127646403922    -5.17e-08  1.05e-06  6.89e-05  2.09e-05     7.2
   19    -416.7544127603230208     4.32e-09  5.87e-07  3.41e-05  8.87e-06     6.9
                 **** Energy Check signals convergence ****

               *****************************************************
               *                     SUCCESS                       *
               *           SCF CONVERGED AFTER  19 CYCLES          *
               *****************************************************


SMD CDS free energy correction energy :                 0.93894     Kcal/mol
Total Energy after SMD CDS correction =              -416.752916461 Eh
             **** ENERGY FILE WAS UPDATED (cs_rporg_162_red_solv_03.en.tmp) ****

----------------
TOTAL SCF ENERGY
----------------

Total Energy       :       -416.75291646082172 Eh          -11340.42339 eV

Components:
Nuclear Repulsion  :        405.55651525929841 Eh           11035.75383 eV
Electronic Energy  :       -822.23202491208190 Eh          -22374.07087 eV
One Electron Energy:      -1376.37196143644860 Eh          -37452.98514 eV
Two Electron Energy:        554.13993652436670 Eh           15078.91427 eV
CPCM Dielectric    :         -0.07890310753954 Eh              -2.14706 eV
SMD CDS (Gcds)     :          0.00149629950127 Eh               0.04072 eV

Virial components:
Potential Energy   :       -831.17137613581895 Eh          -22617.32299 eV
Kinetic Energy     :        414.41845967499717 Eh           11276.89959 eV
Virial Ratio       :          2.00563309073552

DFT components:
N(Alpha)           :       34.000060190643 electrons
N(Beta)            :       33.000050676187 electrons
N(Total)           :       67.000110866830 electrons
E(X)               :      -56.447605752805 Eh       
E(C)               :       -2.173249179096 Eh       
E(XC)              :      -58.620854931901 Eh       

CPCM Solvation Model Properties:
Surface-charge          :          0.95528382146077
Corrected charge        :          1.00000000000000
Outlying charge corr.   :          0.00014138462394 Eh               0.00385 eV
Free-energy (cav+disp)  :          0.00149629950127 Eh               0.04072 eV

---------------
SCF CONVERGENCE
---------------

  Last Energy change         ...   -4.3174e-09  Tolerance :   1.0000e-08
  Last MAX-Density change    ...    3.4149e-05  Tolerance :   1.0000e-07
  Last RMS-Density change    ...    5.8670e-07  Tolerance :   5.0000e-09
  Last DIIS Error            ...    7.7641e-04  Tolerance :   5.0000e-07
  Last Orbital Gradient      ...    8.8672e-06  Tolerance :   1.0000e-05
  Last Orbital Rotation      ...    3.6846e-05  Tolerance :   1.0000e-05


----------------------
UHF SPIN CONTAMINATION
----------------------

Warning: in a DFT calculation there is little theoretical justification to 
         calculate <S**2> as in Hartree-Fock theory. We will do it anyways
         but you should keep in mind that the values have only limited relevance

Expectation value of <S**2>     :     0.767694
Ideal value S*(S+1) for S=0.5   :     0.750000
Deviation                       :     0.017694

----------------
ORBITAL ENERGIES
----------------
                 SPIN UP ORBITALS
  NO   OCC          E(Eh)            E(eV) 
   0   1.0000     -14.143270      -384.8579 
   1   1.0000     -14.143268      -384.8579 
   2   1.0000     -10.064539      -273.8700 
   3   1.0000     -10.064534      -273.8699 
   4   1.0000     -10.054312      -273.5917 
   5   1.0000     -10.054235      -273.5896 
   6   1.0000     -10.052881      -273.5528 
   7   1.0000     -10.031050      -272.9588 
   8   1.0000     -10.026039      -272.8224 
   9   1.0000     -10.026028      -272.8221 
  10   1.0000      -0.860696       -23.4207 
  11   1.0000      -0.857390       -23.3308 
  12   1.0000      -0.813421       -22.1343 
  13   1.0000      -0.730036       -19.8653 
  14   1.0000      -0.718590       -19.5538 
  15   1.0000      -0.606126       -16.4935 
  16   1.0000      -0.592077       -16.1112 
  17   1.0000      -0.526026       -14.3139 
  18   1.0000      -0.448529       -12.2051 
  19   1.0000      -0.440721       -11.9926 
  20   1.0000      -0.417129       -11.3506 
  21   1.0000      -0.387014       -10.5312 
  22   1.0000      -0.370721       -10.0878 
  23   1.0000      -0.339670        -9.2429 
  24   1.0000      -0.337743        -9.1904 
  25   1.0000      -0.336461        -9.1556 
  26   1.0000      -0.322295        -8.7701 
  27   1.0000      -0.321905        -8.7595 
  28   1.0000      -0.300896        -8.1878 
  29   1.0000      -0.294752        -8.0206 
  30   1.0000      -0.288815        -7.8590 
  31   1.0000      -0.238687        -6.4950 
  32   1.0000      -0.232875        -6.3369 
  33   1.0000      -0.092208        -2.5091 
  34   0.0000      -0.055121        -1.4999 
  35   0.0000       0.000314         0.0085 
  36   0.0000       0.004422         0.1203 
  37   0.0000       0.013871         0.3775 
  38   0.0000       0.022984         0.6254 
  39   0.0000       0.022999         0.6258 
  40   0.0000       0.025499         0.6939 
  41   0.0000       0.042827         1.1654 
  42   0.0000       0.045125         1.2279 
  43   0.0000       0.045870         1.2482 
  44   0.0000       0.049474         1.3463 

                 SPIN DOWN ORBITALS
  NO   OCC          E(Eh)            E(eV) 
   0   1.0000     -14.140981      -384.7957 
   1   1.0000     -14.140979      -384.7956 
   2   1.0000     -10.064304      -273.8636 
   3   1.0000     -10.064299      -273.8635 
   4   1.0000     -10.053645      -273.5736 
   5   1.0000     -10.052552      -273.5438 
   6   1.0000     -10.052476      -273.5418 
   7   1.0000     -10.033480      -273.0249 
   8   1.0000     -10.019463      -272.6434 
   9   1.0000     -10.019461      -272.6434 
  10   1.0000      -0.857288       -23.3280 
  11   1.0000      -0.854156       -23.2428 
  12   1.0000      -0.808665       -22.0049 
  13   1.0000      -0.721606       -19.6359 
  14   1.0000      -0.714760       -19.4496 
  15   1.0000      -0.592113       -16.1122 
  16   1.0000      -0.590177       -16.0595 
  17   1.0000      -0.525473       -14.2989 
  18   1.0000      -0.443186       -12.0597 
  19   1.0000      -0.438652       -11.9363 
  20   1.0000      -0.414937       -11.2910 
  21   1.0000      -0.386458       -10.5160 
  22   1.0000      -0.358840        -9.7645 
  23   1.0000      -0.336335        -9.1521 
  24   1.0000      -0.333394        -9.0721 
  25   1.0000      -0.327372        -8.9082 
  26   1.0000      -0.320842        -8.7306 
  27   1.0000      -0.318944        -8.6789 
  28   1.0000      -0.293591        -7.9890 
  29   1.0000      -0.289137        -7.8678 
  30   1.0000      -0.287536        -7.8243 
  31   1.0000      -0.231698        -6.3048 
  32   1.0000      -0.206850        -5.6287 
  33   0.0000      -0.052189        -1.4201 
  34   0.0000      -0.051290        -1.3957 
  35   0.0000       0.002134         0.0581 
  36   0.0000       0.006847         0.1863 
  37   0.0000       0.016230         0.4416 
  38   0.0000       0.026344         0.7169 
  39   0.0000       0.027500         0.7483 
  40   0.0000       0.034972         0.9516 
  41   0.0000       0.044897         1.2217 
  42   0.0000       0.046745         1.2720 
  43   0.0000       0.049119         1.3366 
*Only the first 10 virtual orbitals were printed.

                    ********************************
                    * MULLIKEN POPULATION ANALYSIS *
                    ********************************

--------------------------------------------
MULLIKEN ATOMIC CHARGES AND SPIN POPULATIONS
--------------------------------------------
   0 C :    1.410038    0.102315
   1 C :   -0.927059    0.466448
   2 C :   -0.478486   -0.214993
   3 C :   -0.927057    0.466450
   4 C :    1.410043    0.102321
   5 C :   -1.129945   -0.038126
   6 H :   -0.225995    0.004460
   7 C :    0.459418   -0.014634
   8 N :   -0.893126    0.098630
   9 H :    0.127633   -0.012325
  10 H :    0.480604   -0.032219
  11 H :    0.127657   -0.012327
  12 C :    0.459401   -0.014627
  13 N :   -0.893125    0.098628
Sum of atomic charges         :   -1.0000000
Sum of atomic spin populations:    1.0000000

-----------------------------------------------------
MULLIKEN REDUCED ORBITAL CHARGES AND SPIN POPULATIONS
-----------------------------------------------------
CHARGE
  0 C s       :     2.530010  s :     2.530010
      pz      :     1.125301  p :     1.992653
      px      :     0.441288
      py      :     0.426064
      dz2     :     0.009546  d :     0.151971
      dxz     :     0.011895
      dyz     :     0.017776
      dx2y2   :     0.068838
      dxy     :     0.043917
      f0      :     0.000899  f :    -0.084672
      f+1     :    -0.004890
      f-1     :    -0.002885
      f+2     :    -0.002485
      f-2     :    -0.002185
      f+3     :    -0.048898
      f-3     :    -0.024227

  1 C s       :     4.066577  s :     4.066577
      pz      :     1.078048  p :     2.834952
      px      :     0.907703
      py      :     0.849201
      dz2     :    -0.017978  d :     0.038387
      dxz     :     0.009292
      dyz     :     0.012508
      dx2y2   :     0.021972
      dxy     :     0.012592
      f0      :     0.001446  f :    -0.012857
      f+1     :     0.000473
      f-1     :     0.000091
      f+2     :     0.000743
      f-2     :     0.000231
      f+3     :    -0.018927
      f-3     :     0.003085

  2 C s       :     3.377456  s :     3.377456
      pz      :     0.957255  p :     2.906234
      px      :     1.033608
      py      :     0.915371
      dz2     :    -0.001297  d :     0.202042
      dxz     :     0.042428
      dyz     :     0.023102
      dx2y2   :     0.097732
      dxy     :     0.040078
      f0      :     0.000633  f :    -0.007246
      f+1     :    -0.000095
      f-1     :     0.000329
      f+2     :     0.000667
      f-2     :     0.000220
      f+3     :    -0.012058
      f-3     :     0.003057

  3 C s       :     4.066574  s :     4.066574
      pz      :     1.078049  p :     2.834952
      px      :     0.907711
      py      :     0.849191
      dz2     :    -0.017978  d :     0.038388
      dxz     :     0.009292
      dyz     :     0.012509
      dx2y2   :     0.021988
      dxy     :     0.012577
      f0      :     0.001446  f :    -0.012856
      f+1     :     0.000473
      f-1     :     0.000091
      f+2     :     0.000743
      f-2     :     0.000231
      f+3     :    -0.018924
      f-3     :     0.003083

  4 C s       :     2.530006  s :     2.530006
      pz      :     1.125306  p :     1.992656
      px      :     0.441298
      py      :     0.426053
      dz2     :     0.009546  d :     0.151967
      dxz     :     0.011892
      dyz     :     0.017777
      dx2y2   :     0.068833
      dxy     :     0.043918
      f0      :     0.000899  f :    -0.084672
      f+1     :    -0.004890
      f-1     :    -0.002885
      f+2     :    -0.002485
      f-2     :    -0.002185
      f+3     :    -0.048898
      f-3     :    -0.024228

  5 C s       :     4.202815  s :     4.202815
      pz      :     0.900657  p :     2.852392
      px      :     0.980521
      py      :     0.971215
      dz2     :    -0.020996  d :     0.100442
      dxz     :     0.016021
      dyz     :     0.004748
      dx2y2   :     0.243764
      dxy     :    -0.143095
      f0      :     0.000730  f :    -0.025704
      f+1     :    -0.001032
      f-1     :    -0.000407
      f+2     :     0.000359
      f-2     :     0.000714
      f+3     :    -0.028313
      f-3     :     0.002244

  6 H s       :     1.137694  s :     1.137694
      pz      :     0.012445  p :     0.079345
      px      :     0.036508
      py      :     0.030391
      dz2     :     0.000056  d :     0.008956
      dxz     :    -0.000089
      dyz     :     0.005292
      dx2y2   :     0.001964
      dxy     :     0.001733

  7 C s       :     3.143588  s :     3.143588
      pz      :     0.886967  p :     2.370075
      px      :     0.720772
      py      :     0.762336
      dz2     :     0.006128  d :     0.022677
      dxz     :     0.035001
      dyz     :     0.012745
      dx2y2   :    -0.012659
      dxy     :    -0.018538
      f0      :     0.002906  f :     0.004243
      f+1     :    -0.000322
      f-1     :    -0.000053
      f+2     :     0.000470
      f-2     :     0.002346
      f+3     :    -0.003820
      f-3     :     0.002716

  8 N s       :     4.057666  s :     4.057666
      pz      :     1.265495  p :     3.777207
      px      :     1.270548
      py      :     1.241164
      dz2     :     0.001684  d :     0.057178
      dxz     :     0.016815
      dyz     :     0.005710
      dx2y2   :     0.022665
      dxy     :     0.010305
      f0      :     0.000262  f :     0.001074
      f+1     :    -0.000229
      f-1     :    -0.000022
      f+2     :     0.000082
      f-2     :     0.000328
      f+3     :     0.001075
      f-3     :    -0.000422

  9 H s       :     0.830765  s :     0.830765
      pz      :     0.016544  p :     0.033872
      px      :    -0.004637
      py      :     0.021965
      dz2     :    -0.000016  d :     0.007730
      dxz     :     0.004000
      dyz     :     0.001615
      dx2y2   :    -0.000172
      dxy     :     0.002303

 10 H s       :     0.523173  s :     0.523173
      pz      :     0.020997  p :    -0.012671
      px      :     0.002983
      py      :    -0.036650
      dz2     :    -0.000583  d :     0.008894
      dxz     :    -0.000973
      dyz     :     0.005278
      dx2y2   :     0.001755
      dxy     :     0.003417

 11 H s       :     0.830743  s :     0.830743
      pz      :     0.016544  p :     0.033870
      px      :    -0.004637
      py      :     0.021963
      dz2     :    -0.000016  d :     0.007730
      dxz     :     0.003999
      dyz     :     0.001616
      dx2y2   :    -0.000172
      dxy     :     0.002303

 12 C s       :     3.143601  s :     3.143601
      pz      :     0.886967  p :     2.370079
      px      :     0.720770
      py      :     0.762341
      dz2     :     0.006128  d :     0.022677
      dxz     :     0.035002
      dyz     :     0.012744
      dx2y2   :    -0.012658
      dxy     :    -0.018539
      f0      :     0.002906  f :     0.004243
      f+1     :    -0.000323
      f-1     :    -0.000053
      f+2     :     0.000470
      f-2     :     0.002346
      f+3     :    -0.003820
      f-3     :     0.002716

 13 N s       :     4.057665  s :     4.057665
      pz      :     1.265494  p :     3.777207
      px      :     1.270551
      py      :     1.241161
      dz2     :     0.001684  d :     0.057178
      dxz     :     0.016815
      dyz     :     0.005709
      dx2y2   :     0.022664
      dxy     :     0.010306
      f0      :     0.000262  f :     0.001074
      f+1     :    -0.000229
      f-1     :    -0.000022
      f+2     :     0.000082
      f-2     :     0.000328
      f+3     :     0.001075
      f-3     :    -0.000422


SPIN
  0 C s       :    -0.005478  s :    -0.005478
      pz      :     0.070673  p :     0.085577
      px      :     0.016409
      py      :    -0.001505
      dz2     :     0.000507  d :     0.022348
      dxz     :     0.001595
      dyz     :     0.006815
      dx2y2   :     0.003632
      dxy     :     0.009799
      f0      :    -0.000039  f :    -0.000132
      f+1     :    -0.000021
      f-1     :    -0.000295
      f+2     :    -0.001357
      f-2     :     0.000554
      f+3     :     0.000791
      f-3     :     0.000235

  1 C s       :     0.044242  s :     0.044242
      pz      :     0.373386  p :     0.411856
      px      :     0.005374
      py      :     0.033097
      dz2     :    -0.003115  d :     0.011595
      dxz     :     0.001887
      dyz     :     0.008043
      dx2y2   :     0.003866
      dxy     :     0.000915
      f0      :     0.000161  f :    -0.001245
      f+1     :    -0.000529
      f-1     :    -0.000609
      f+2     :    -0.000090
      f-2     :    -0.000308
      f+3     :    -0.000650
      f-3     :     0.000780

  2 C s       :    -0.040809  s :    -0.040809
      pz      :    -0.143529  p :    -0.232824
      px      :    -0.091926
      py      :     0.002631
      dz2     :     0.002372  d :     0.060056
      dxz     :     0.027689
      dyz     :     0.001141
      dx2y2   :     0.025113
      dxy     :     0.003741
      f0      :     0.000561  f :    -0.001415
      f+1     :     0.000455
      f-1     :    -0.000096
      f+2     :     0.000487
      f-2     :    -0.001418
      f+3     :    -0.001886
      f-3     :     0.000481

  3 C s       :     0.044244  s :     0.044244
      pz      :     0.373384  p :     0.411855
      px      :     0.005376
      py      :     0.033095
      dz2     :    -0.003115  d :     0.011596
      dxz     :     0.001887
      dyz     :     0.008042
      dx2y2   :     0.003868
      dxy     :     0.000914
      f0      :     0.000161  f :    -0.001245
      f+1     :    -0.000529
      f-1     :    -0.000609
      f+2     :    -0.000090
      f-2     :    -0.000308
      f+3     :    -0.000651
      f-3     :     0.000780

  4 C s       :    -0.005478  s :    -0.005478
      pz      :     0.070675  p :     0.085582
      px      :     0.016408
      py      :    -0.001501
      dz2     :     0.000507  d :     0.022349
      dxz     :     0.001594
      dyz     :     0.006816
      dx2y2   :     0.003631
      dxy     :     0.009800
      f0      :    -0.000039  f :    -0.000132
      f+1     :    -0.000021
      f-1     :    -0.000295
      f+2     :    -0.001357
      f-2     :     0.000555
      f+3     :     0.000791
      f-3     :     0.000235

  5 C s       :    -0.000935  s :    -0.000935
      pz      :    -0.031211  p :    -0.043852
      px      :    -0.015115
      py      :     0.002474
      dz2     :     0.000775  d :     0.007457
      dxz     :     0.003940
      dyz     :     0.003657
      dx2y2   :    -0.001308
      dxy     :     0.000393
      f0      :     0.000309  f :    -0.000796
      f+1     :     0.000362
      f-1     :    -0.000254
      f+2     :     0.000184
      f-2     :    -0.001403
      f+3     :    -0.001420
      f-3     :     0.001427

  6 H s       :     0.003376  s :     0.003376
      pz      :    -0.000078  p :     0.001482
      px      :    -0.001077
      py      :     0.002637
      dz2     :    -0.000008  d :    -0.000398
      dxz     :    -0.000200
      dyz     :    -0.000156
      dx2y2   :    -0.000080
      dxy     :     0.000046

  7 C s       :    -0.014532  s :    -0.014532
      pz      :     0.010910  p :    -0.006156
      px      :    -0.004221
      py      :    -0.012845
      dz2     :     0.000482  d :     0.007388
      dxz     :     0.006434
      dyz     :     0.001210
      dx2y2   :    -0.000213
      dxy     :    -0.000525
      f0      :    -0.000128  f :    -0.001334
      f+1     :     0.000023
      f-1     :    -0.000054
      f+2     :    -0.000099
      f-2     :    -0.000325
      f+3     :    -0.000623
      f-3     :    -0.000129

  8 N s       :     0.005031  s :     0.005031
      pz      :     0.088796  p :     0.093672
      px      :     0.001217
      py      :     0.003659
      dz2     :    -0.000113  d :     0.000463
      dxz     :     0.000578
      dyz     :     0.000020
      dx2y2   :     0.000044
      dxy     :    -0.000066
      f0      :    -0.000197  f :    -0.000536
      f+1     :    -0.000056
      f-1     :    -0.000060
      f+2     :    -0.000049
      f-2     :    -0.000127
      f+3     :    -0.000058
      f-3     :     0.000011

  9 H s       :    -0.017589  s :    -0.017589
      pz      :     0.004510  p :     0.005221
      px      :     0.003430
      py      :    -0.002718
      dz2     :     0.000209  d :     0.000043
      dxz     :     0.000509
      dyz     :     0.000026
      dx2y2   :    -0.000450
      dxy     :    -0.000251

 10 H s       :    -0.024254  s :    -0.024254
      pz      :    -0.005179  p :    -0.006074
      px      :    -0.003251
      py      :     0.002356
      dz2     :    -0.000154  d :    -0.001891
      dxz     :    -0.000935
      dyz     :    -0.000630
      dx2y2   :     0.000056
      dxy     :    -0.000229

 11 H s       :    -0.017590  s :    -0.017590
      pz      :     0.004510  p :     0.005221
      px      :     0.003429
      py      :    -0.002718
      dz2     :     0.000209  d :     0.000043
      dxz     :     0.000509
      dyz     :     0.000026
      dx2y2   :    -0.000450
      dxy     :    -0.000251

 12 C s       :    -0.014525  s :    -0.014525
      pz      :     0.010910  p :    -0.006156
      px      :    -0.004220
      py      :    -0.012845
      dz2     :     0.000482  d :     0.007388
      dxz     :     0.006434
      dyz     :     0.001209
      dx2y2   :    -0.000213
      dxy     :    -0.000525
      f0      :    -0.000128  f :    -0.001334
      f+1     :     0.000023
      f-1     :    -0.000054
      f+2     :    -0.000099
      f-2     :    -0.000325
      f+3     :    -0.000623
      f-3     :    -0.000129

 13 N s       :     0.005029  s :     0.005029
      pz      :     0.088795  p :     0.093671
      px      :     0.001216
      py      :     0.003660
      dz2     :    -0.000113  d :     0.000463
      dxz     :     0.000578
      dyz     :     0.000020
      dx2y2   :     0.000044
      dxy     :    -0.000066
      f0      :    -0.000197  f :    -0.000536
      f+1     :    -0.000056
      f-1     :    -0.000060
      f+2     :    -0.000049
      f-2     :    -0.000127
      f+3     :    -0.000058
      f-3     :     0.000011



                     *******************************
                     * LOEWDIN POPULATION ANALYSIS *
                     *******************************

-------------------------------------------
LOEWDIN ATOMIC CHARGES AND SPIN POPULATIONS
-------------------------------------------
   0 C :   -0.257192    0.101525
   1 C :    0.155027    0.200546
   2 C :    0.125857    0.050916
   3 C :    0.155023    0.200544
   4 C :   -0.257194    0.101526
   5 C :    0.139261    0.017119
   6 H :   -0.167222    0.000111
   7 C :   -0.322862    0.046441
   8 N :    0.164989    0.075484
   9 H :   -0.198371    0.046173
  10 H :   -0.181073   -0.008483
  11 H :   -0.198370    0.046173
  12 C :   -0.322861    0.046440
  13 N :    0.164989    0.075483

----------------------------------------------------
LOEWDIN REDUCED ORBITAL CHARGES AND SPIN POPULATIONS
----------------------------------------------------
CHARGE
  0 C s       :     2.480367  s :     2.480367
      pz      :     0.705365  p :     2.373497
      px      :     0.833199
      py      :     0.834933
      dz2     :     0.084354  d :     0.929570
      dxz     :     0.121796
      dyz     :     0.142862
      dx2y2   :     0.266978
      dxy     :     0.313580
      f0      :     0.035166  f :     0.473758
      f+1     :     0.033369
      f-1     :     0.032135
      f+2     :     0.057231
      f-2     :     0.049381
      f+3     :     0.186890
      f-3     :     0.079587

  1 C s       :     2.492349  s :     2.492349
      pz      :     0.666874  p :     2.323958
      px      :     0.846611
      py      :     0.810473
      dz2     :     0.067690  d :     0.699630
      dxz     :     0.064685
      dyz     :     0.115162
      dx2y2   :     0.204094
      dxy     :     0.247999
      f0      :     0.025445  f :     0.329036
      f+1     :     0.022937
      f-1     :     0.026563
      f+2     :     0.049465
      f-2     :     0.021714
      f+3     :     0.127653
      f-3     :     0.055259

  2 C s       :     2.496786  s :     2.496786
      pz      :     0.606397  p :     2.297499
      px      :     0.865363
      py      :     0.825738
      dz2     :     0.068786  d :     0.749857
      dxz     :     0.180284
      dyz     :     0.033542
      dx2y2   :     0.294310
      dxy     :     0.172935
      f0      :     0.018389  f :     0.330000
      f+1     :     0.031079
      f-1     :     0.019153
      f+2     :     0.013122
      f-2     :     0.058658
      f+3     :     0.132539
      f-3     :     0.057061

  3 C s       :     2.492349  s :     2.492349
      pz      :     0.666875  p :     2.323959
      px      :     0.846610
      py      :     0.810474
      dz2     :     0.067690  d :     0.699632
      dxz     :     0.064682
      dyz     :     0.115167
      dx2y2   :     0.204104
      dxy     :     0.247990
      f0      :     0.025445  f :     0.329037
      f+1     :     0.022937
      f-1     :     0.026563
      f+2     :     0.049462
      f-2     :     0.021717
      f+3     :     0.127655
      f-3     :     0.055258

  4 C s       :     2.480366  s :     2.480366
      pz      :     0.705366  p :     2.373498
      px      :     0.833201
      py      :     0.834931
      dz2     :     0.084354  d :     0.929571
      dxz     :     0.121796
      dyz     :     0.142863
      dx2y2   :     0.266970
      dxy     :     0.313588
      f0      :     0.035166  f :     0.473759
      f+1     :     0.033369
      f-1     :     0.032135
      f+2     :     0.057233
      f-2     :     0.049379
      f+3     :     0.186889
      f-3     :     0.079587

  5 C s       :     2.485556  s :     2.485556
      pz      :     0.580491  p :     2.262119
      px      :     0.858396
      py      :     0.823232
      dz2     :     0.071035  d :     0.765695
      dxz     :     0.192271
      dyz     :     0.035694
      dx2y2   :     0.280438
      dxy     :     0.186256
      f0      :     0.021782  f :     0.347369
      f+1     :     0.033184
      f-1     :     0.019266
      f+2     :     0.020109
      f-2     :     0.059163
      f+3     :     0.131206
      f-3     :     0.062658

  6 H s       :     0.645008  s :     0.645008
      pz      :     0.076078  p :     0.301546
      px      :     0.084370
      py      :     0.141098
      dz2     :     0.024413  d :     0.220668
      dxz     :     0.007853
      dyz     :     0.057963
      dx2y2   :     0.047781
      dxy     :     0.082659

  7 C s       :     2.630726  s :     2.630726
      pz      :     0.704382  p :     2.505060
      px      :     1.010090
      py      :     0.790587
      dz2     :     0.088088  d :     0.868985
      dxz     :     0.227133
      dyz     :     0.074057
      dx2y2   :     0.245020
      dxy     :     0.234688
      f0      :     0.030675  f :     0.318090
      f+1     :     0.038738
      f-1     :     0.018028
      f+2     :     0.015166
      f-2     :     0.040884
      f+3     :     0.094928
      f-3     :     0.079671

  8 N s       :     3.140788  s :     3.140788
      pz      :     1.027928  p :     3.370294
      px      :     1.279233
      py      :     1.063133
      dz2     :     0.025193  d :     0.222316
      dxz     :     0.051492
      dyz     :     0.016889
      dx2y2   :     0.055727
      dxy     :     0.073015
      f0      :     0.012405  f :     0.101613
      f+1     :     0.011448
      f-1     :     0.005118
      f+2     :     0.005053
      f-2     :     0.015517
      f+3     :     0.026524
      f-3     :     0.025549

  9 H s       :     0.666081  s :     0.666081
      pz      :     0.099531  p :     0.316900
      px      :     0.124051
      py      :     0.093318
      dz2     :     0.022777  d :     0.215390
      dxz     :     0.052174
      dyz     :     0.015953
      dx2y2   :     0.072315
      dxy     :     0.052170

 10 H s       :     0.661539  s :     0.661539
      pz      :     0.082734  p :     0.302321
      px      :     0.079140
      py      :     0.140446
      dz2     :     0.022681  d :     0.217213
      dxz     :     0.007085
      dyz     :     0.059610
      dx2y2   :     0.044878
      dxy     :     0.082960

 11 H s       :     0.666082  s :     0.666082
      pz      :     0.099531  p :     0.316900
      px      :     0.124048
      py      :     0.093320
      dz2     :     0.022777  d :     0.215389
      dxz     :     0.052172
      dyz     :     0.015955
      dx2y2   :     0.072317
      dxy     :     0.052167

 12 C s       :     2.630726  s :     2.630726
      pz      :     0.704382  p :     2.505059
      px      :     1.010105
      py      :     0.790572
      dz2     :     0.088088  d :     0.868985
      dxz     :     0.227142
      dyz     :     0.074047
      dx2y2   :     0.245018
      dxy     :     0.234690
      f0      :     0.030675  f :     0.318091
      f+1     :     0.038739
      f-1     :     0.018027
      f+2     :     0.015169
      f-2     :     0.040881
      f+3     :     0.094928
      f-3     :     0.079671

 13 N s       :     3.140788  s :     3.140788
      pz      :     1.027928  p :     3.370294
      px      :     1.279248
      py      :     1.063119
      dz2     :     0.025193  d :     0.222316
      dxz     :     0.051494
      dyz     :     0.016887
      dx2y2   :     0.055729
      dxy     :     0.073013
      f0      :     0.012405  f :     0.101613
      f+1     :     0.011449
      f-1     :     0.005117
      f+2     :     0.005054
      f-2     :     0.015515
      f+3     :     0.026524
      f-3     :     0.025549


SPIN
  0 C s       :     0.001287  s :     0.001287
      pz      :     0.049871  p :     0.047932
      px      :     0.000051
      py      :    -0.001990
      dz2     :    -0.000501  d :     0.038270
      dxz     :    -0.000936
      dyz     :     0.038646
      dx2y2   :     0.000867
      dxy     :     0.000193
      f0      :     0.003472  f :     0.014036
      f+1     :    -0.000136
      f-1     :    -0.000255
      f+2     :     0.010803
      f-2     :    -0.000328
      f+3     :    -0.000015
      f-3     :     0.000495

  1 C s       :     0.007205  s :     0.007205
      pz      :     0.181893  p :     0.188859
      px      :     0.003896
      py      :     0.003070
      dz2     :    -0.001851  d :     0.005995
      dxz     :    -0.003408
      dyz     :     0.013472
      dx2y2   :    -0.001089
      dxy     :    -0.001129
      f0      :     0.002349  f :    -0.001513
      f+1     :    -0.000442
      f-1     :    -0.000382
      f+2     :     0.000415
      f-2     :    -0.002449
      f+3     :    -0.000552
      f-3     :    -0.000452

  2 C s       :    -0.003373  s :    -0.003373
      pz      :    -0.057118  p :    -0.066018
      px      :    -0.005832
      py      :    -0.003068
      dz2     :     0.000619  d :     0.094365
      dxz     :     0.087633
      dyz     :     0.001899
      dx2y2   :     0.002269
      dxy     :     0.001945
      f0      :     0.003892  f :     0.025942
      f+1     :    -0.000305
      f-1     :     0.000129
      f+2     :     0.003248
      f-2     :     0.017122
      f+3     :     0.000756
      f-3     :     0.001100

  3 C s       :     0.007205  s :     0.007205
      pz      :     0.181892  p :     0.188858
      px      :     0.003896
      py      :     0.003070
      dz2     :    -0.001851  d :     0.005995
      dxz     :    -0.003408
      dyz     :     0.013471
      dx2y2   :    -0.001090
      dxy     :    -0.001129
      f0      :     0.002349  f :    -0.001513
      f+1     :    -0.000442
      f-1     :    -0.000382
      f+2     :     0.000416
      f-2     :    -0.002450
      f+3     :    -0.000552
      f-3     :    -0.000452

  4 C s       :     0.001287  s :     0.001287
      pz      :     0.049872  p :     0.047933
      px      :     0.000051
      py      :    -0.001990
      dz2     :    -0.000501  d :     0.038270
      dxz     :    -0.000936
      dyz     :     0.038647
      dx2y2   :     0.000867
      dxy     :     0.000193
      f0      :     0.003472  f :     0.014036
      f+1     :    -0.000136
      f-1     :    -0.000255
      f+2     :     0.010803
      f-2     :    -0.000327
      f+3     :    -0.000015
      f-3     :     0.000495

  5 C s       :    -0.000955  s :    -0.000955
      pz      :    -0.013319  p :    -0.015877
      px      :    -0.001732
      py      :    -0.000827
      dz2     :     0.000186  d :     0.031619
      dxz     :     0.031027
      dyz     :     0.000323
      dx2y2   :     0.000276
      dxy     :    -0.000192
      f0      :     0.000911  f :     0.002332
      f+1     :    -0.000115
      f-1     :     0.000032
      f+2     :     0.001409
      f-2     :     0.000291
      f+3     :    -0.000336
      f-3     :     0.000139

  6 H s       :     0.000238  s :     0.000238
      pz      :    -0.001372  p :    -0.001682
      px      :    -0.000137
      py      :    -0.000173
      dz2     :    -0.000019  d :     0.001555
      dxz     :     0.002720
      dyz     :    -0.000930
      dx2y2   :    -0.000105
      dxy     :    -0.000112

  7 C s       :    -0.000691  s :    -0.000691
      pz      :     0.010350  p :     0.006335
      px      :    -0.001750
      py      :    -0.002265
      dz2     :    -0.000099  d :     0.036802
      dxz     :     0.032563
      dyz     :     0.003847
      dx2y2   :     0.000134
      dxy     :     0.000357
      f0      :     0.000806  f :     0.003995
      f+1     :    -0.000169
      f-1     :    -0.000030
      f+2     :     0.001054
      f-2     :     0.001596
      f+3     :     0.000370
      f-3     :     0.000368

  8 N s       :     0.001031  s :     0.001031
      pz      :     0.059892  p :     0.062879
      px      :     0.000590
      py      :     0.002397
      dz2     :     0.000020  d :     0.009656
      dxz     :     0.008189
      dyz     :     0.001823
      dx2y2   :    -0.000311
      dxy     :    -0.000065
      f0      :     0.000752  f :     0.001918
      f+1     :    -0.000069
      f-1     :    -0.000061
      f+2     :     0.000506
      f-2     :     0.000956
      f+3     :    -0.000193
      f-3     :     0.000027

  9 H s       :    -0.006495  s :    -0.006495
      pz      :     0.031715  p :     0.034022
      px      :     0.001891
      py      :     0.000417
      dz2     :     0.000019  d :     0.018646
      dxz     :     0.015404
      dyz     :     0.002118
      dx2y2   :     0.000468
      dxy     :     0.000636

 10 H s       :     0.002198  s :     0.002198
      pz      :    -0.008158  p :    -0.009509
      px      :    -0.000536
      py      :    -0.000815
      dz2     :     0.000001  d :    -0.001172
      dxz     :     0.004836
      dyz     :    -0.005151
      dx2y2   :    -0.000344
      dxy     :    -0.000513

 11 H s       :    -0.006495  s :    -0.006495
      pz      :     0.031715  p :     0.034022
      px      :     0.001891
      py      :     0.000417
      dz2     :     0.000019  d :     0.018646
      dxz     :     0.015403
      dyz     :     0.002119
      dx2y2   :     0.000468
      dxy     :     0.000636

 12 C s       :    -0.000691  s :    -0.000691
      pz      :     0.010350  p :     0.006334
      px      :    -0.001750
      py      :    -0.002265
      dz2     :    -0.000099  d :     0.036801
      dxz     :     0.032563
      dyz     :     0.003846
      dx2y2   :     0.000134
      dxy     :     0.000357
      f0      :     0.000806  f :     0.003995
      f+1     :    -0.000169
      f-1     :    -0.000030
      f+2     :     0.001054
      f-2     :     0.001596
      f+3     :     0.000370
      f-3     :     0.000368

 13 N s       :     0.001031  s :     0.001031
      pz      :     0.059891  p :     0.062878
      px      :     0.000590
      py      :     0.002397
      dz2     :     0.000020  d :     0.009656
      dxz     :     0.008189
      dyz     :     0.001822
      dx2y2   :    -0.000311
      dxy     :    -0.000065
      f0      :     0.000752  f :     0.001918
      f+1     :    -0.000069
      f-1     :    -0.000061
      f+2     :     0.000506
      f-2     :     0.000956
      f+3     :    -0.000193
      f-3     :     0.000027



                      *****************************
                      * MAYER POPULATION ANALYSIS *
                      *****************************

  NA   - Mulliken gross atomic population
  ZA   - Total nuclear charge
  QA   - Mulliken gross atomic charge
  VA   - Mayer's total valence
  BVA  - Mayer's bonded valence
  FA   - Mayer's free valence

  ATOM       NA         ZA         QA         VA         BVA        FA
  0 C      4.5900     6.0000     1.4100     1.3315     1.3105     0.0209
  1 C      6.9271     6.0000    -0.9271     2.5466     2.4018     0.1449
  2 C      6.4785     6.0000    -0.4785     2.8505     2.8195     0.0311
  3 C      6.9271     6.0000    -0.9271     2.5466     2.4018     0.1449
  4 C      4.5900     6.0000     1.4100     1.3315     1.3105     0.0209
  5 C      7.1299     6.0000    -1.1299     2.6956     2.6946     0.0010
  6 H      1.2260     1.0000    -0.2260     1.3723     1.3723     0.0000
  7 C      5.5406     6.0000     0.4594     3.0135     3.0111     0.0023
  8 N      7.8931     7.0000    -0.8931     2.0904     2.0820     0.0084
  9 H      0.8724     1.0000     0.1276     1.1342     1.1337     0.0005
 10 H      0.5194     1.0000     0.4806     0.5779     0.5776     0.0003
 11 H      0.8723     1.0000     0.1277     1.1342     1.1336     0.0005
 12 C      5.5406     6.0000     0.4594     3.0135     3.0112     0.0023
 13 N      7.8931     7.0000    -0.8931     2.0904     2.0820     0.0084

  Mayer bond orders larger than 0.100000
B(  0-C ,  1-C ) :  -0.1072 B(  0-C ,  2-C ) :   0.2337 B(  0-C ,  4-C ) :   0.5015 
B(  0-C ,  5-C ) :   0.3256 B(  0-C ,  6-H ) :  -0.2650 B(  0-C , 11-H ) :  -0.1821 
B(  0-C , 12-C ) :   0.7130 B(  0-C , 13-N ) :   0.1656 B(  1-C ,  2-C ) :   1.0955 
B(  1-C ,  3-C ) :  -0.1195 B(  1-C ,  5-C ) :  -0.2330 B(  1-C , 11-H ) :   1.2247 
B(  1-C , 12-C ) :   0.4001 B(  2-C ,  3-C ) :   1.0955 B(  2-C ,  4-C ) :   0.2337 
B(  2-C ,  6-H ) :  -0.1066 B(  2-C ,  9-H ) :  -0.1365 B(  2-C , 10-H ) :   0.6470 
B(  2-C , 11-H ) :  -0.1365 B(  3-C ,  4-C ) :  -0.1072 B(  3-C ,  5-C ) :  -0.2330 
B(  3-C ,  7-C ) :   0.4001 B(  3-C ,  9-H ) :   1.2248 B(  4-C ,  5-C ) :   0.3256 
B(  4-C ,  6-H ) :  -0.2650 B(  4-C ,  7-C ) :   0.7130 B(  4-C ,  8-N ) :   0.1656 
B(  4-C ,  9-H ) :  -0.1821 B(  5-C ,  6-H ) :   1.7369 B(  5-C ,  7-C ) :   0.1724 
B(  5-C ,  8-N ) :   0.1079 B(  5-C ,  9-H ) :   0.1321 B(  5-C , 11-H ) :   0.1321 
B(  5-C , 12-C ) :   0.1724 B(  5-C , 13-N ) :   0.1079 B(  6-H ,  9-H ) :   0.1048 
B(  6-H , 11-H ) :   0.1047 B(  7-C ,  8-N ) :   1.6002 B(  7-C , 12-C ) :   0.2547 
B( 12-C , 13-N ) :   1.6002 

-------
TIMINGS
-------

Total SCF time: 0 days 0 hours 2 min 58 sec 

Total time                  ....     178.138 sec
Sum of individual times     ....     177.643 sec  ( 99.7%)

SCF preparation             ....       0.838 sec  (  0.5%)
Fock matrix formation       ....     160.684 sec  ( 90.2%)
  Startup                   ....       1.689 sec  (  1.1% of F)
  Split-RI-J                ....      14.089 sec  (  8.8% of F)
  XC integration            ....     133.581 sec  ( 83.1% of F)
    XC Preparation          ....       0.000 sec  (  0.0% of XC)
    Basis function eval.    ....       6.897 sec  (  5.2% of XC)
    Density eval.           ....      38.171 sec  ( 28.6% of XC)
    XC-Functional eval.     ....       1.444 sec  (  1.1% of XC)
    XC-Potential eval.      ....      82.658 sec  ( 61.9% of XC)
  CPCM terms                ....       6.045 sec  (  3.8% of F)
Diagonalization             ....       0.000 sec  (  0.0%)
Density matrix formation    ....       3.865 sec  (  2.2%)
Total Energy calculation    ....       1.615 sec  (  0.9%)
Population analysis         ....       0.371 sec  (  0.2%)
Orbital Transformation      ....       1.281 sec  (  0.7%)
Orbital Orthonormalization  ....       0.000 sec  (  0.0%)
DIIS solution               ....       6.001 sec  (  3.4%)
SOSCF solution              ....       2.989 sec  (  1.7%)
Finished LeanSCF after 178.3 sec

Maximum memory used throughout the entire LEANSCF-calculation: 62.2 MB


-------------------------------------------------------------------------------
                          DFT DISPERSION CORRECTION                            
                                                                               
                              DFTD3 V3.1  Rev 1                                
                          USING Becke-Johnson damping                          
-------------------------------------------------------------------------------
The R2SCAN functional is recognized
Active option DFTDOPT                   ...         4   

molecular C6(AA) [au] = 3294.364927 


            DFT-D V3
 parameters
 s6 scaling factor         :     1.0000 
 a1 scaling factor         :     0.4948 
 s8 scaling factor         :     0.7898 
 a2 scaling factor         :     5.7308 
 ad hoc parameters k1-k3   :    16.0000     1.3333    -4.0000 

 Edisp/kcal,au: -3.007777641233  -0.004793198262 
 E6   /kcal   :  -2.322433985 
 E8   /kcal   :  -0.685343656 
 % E8         :  22.785715508 

-------------------------   ----------------
Dispersion correction           -0.004793198
-------------------------   ----------------


-------------------------   --------------------
FINAL SINGLE POINT ENERGY      -416.757709659084
-------------------------   --------------------



           ************************************************************
           *        Program running with 4 parallel MPI-processes     *
           *              working on a common directory               *
           ************************************************************

------------------------------------------------------------------------------
                              ORCA PROPERTY CALCULATIONS
------------------------------------------------------------------------------

GBWName                                 ... cs_rporg_162_red_solv_03.gbw
Number of atoms                         ...     14
Number of basis functions               ...    612
Max core memory                         ...   3000 MB

Electric properties:
Dipole moment                           ... YES
Quadrupole moment                       ...  NO
Static polarizability (Dipole/Dipole)   ...  NO
Static polarizability (Dipole/Quad.)    ...  NO
Static polarizability (Quad./Quad.)     ...  NO
Static polarizability (Velocity)        ...  NO

Atomic electric properties:
Dipole moment                           ...  NO
Quadrupole moment                       ...  NO
Static polarizability                   ...  NO

Choice of electric origin               ... Center of mass
Position of electric origin             ...    -0.000004    -0.027660     0.000012

General magnetic properties:
Magnetizability                         ...  NO

EPR properties:
g-Tensor (aka g-matrix)                 ...  NO
Zero-Field splitting spin-orbit         ...  NO
Zero-field splitting spin-spin          ...  NO
Hyperfine couplings                     ...  NO (   0 nuclei)
Quadrupole couplings                    ...  NO (   0 nuclei)
Contact density                         ...  NO (   0 nuclei)

NMR properties:
Chemical shifts                         ...  NO (   0 nuclei)
Spin-rotation constants                 ...  NO (   0 nuclei)
Spin-spin couplings                     ...  NO (   0 nuclei,    0 pairs)

Choice of magnetic origin               ... GIAO
Position of magnetic origin             ...     0.000000     0.000000     0.000000

Properties with geometric perturbations:
SCF Hessian                             ...  NO
IR spectrum                             ...  NO
VCD spectrum                            ...  NO
X-ray spectroscopy properties:
SCF XES/XAS/RIXS spectra                ...  NO


-------------
DIPOLE MOMENT
-------------

Method             : SCF
Type of density    : Electron Density
Multiplicity       :   2
Irrep              :   0
Energy             :  -416.7529164608217229 Eh
Relativity type    : 
Basis              : AO
                                X                 Y                 Z
Electronic contribution:     -0.000103416      -3.104771664       0.000009738
Nuclear contribution   :      0.000114608       5.003113123      -0.000033044
                        -----------------------------------------
Total Dipole Moment    :      0.000011193       1.898341459      -0.000023306
                        -----------------------------------------
Magnitude (a.u.)       :      1.898341459
Magnitude (Debye)      :      4.825200524



--------------------
Rotational spectrum 
--------------------
 
Rotational constants in cm-1:             0.086960             0.030317             0.022480 
Rotational constants in MHz :          2607.004234           908.865871           673.920567 

Dipole components along the rotational axes: 
x,y,z [a.u.] :     0.000030     1.898341    -0.000012 
x,y,z [Debye]:     0.000077     4.825201    -0.000030 

 

Dipole moment calculation done in   0.1 sec 

Maximum memory used throughout the entire PROP-calculation: 46.4 MB

--------------------------------
SUGGESTED CITATIONS FOR THIS RUN
--------------------------------

Below you find a list of papers that are relevant to this ORCA run
We neither can nor want to force you to cite these papers, but we appreciate if you do
You receive ORCA, which is the product of decades of hard work by many enthusiastic individuals, for free
The only thing we kindly ask in return is that you cite our papers,
We deeply appreciate it, if you show your appreciation for ORCA by not just citing the generic ORCA reference.

Please note that relegating all ORCA citations to the supporting information does *not* help us.
SI sections are not indexed - citations you put there will not count into any citation statistics
But we need these citations in order to attract the funding resources that allow us to do what we are doing

Therefore, if you are a happy ORCA user, please consider citing a few of the papers listed below in the main body of your paper

In addition to the list printed below, the program has created the file cs_rporg_162_red_solv_03.bibtex that contains the list in bibtex format
You can import this file easily into all common literature databanks and citation aid programs


List of essential papers. We consider these as the minimum necessary citations

  1. Neese,F.
     Software update: the ORCA program system, version 5.0
     WIRES Comput. Molec. Sci., 2022 12(1)e1606
     doi.org/10.1002/wcms.1606

List of papers to cite with high priority. The work reported in these papers was absolutely
necessary for this run to complete.
Our perspective: the developers of density functionals and basis sets usually get cited in chemistry papers
Good! But without the algorithms to do something with them, the functionals or basis sets would not do anything.
Hence, in our opinion, the algorithm design and method developments papers are equally worthy of getting cited

  1. Neese,F.
     An improvement of the resolution of the identity approximation for the formation of the Coulomb matrix
     J. Comp. Chem., 2003 24(14)1740-1747
     doi.org/10.1002/jcc.10318
  2. Garcia-Rates,M.; Neese,F.
     Effect of the Solute Cavity on the Solvation Energy and its Derivatives within the Framework of the Gaussian Charge Scheme
     J. Comput. Chem., 2020 41 922-939
     doi.org/10.1002/jcc.26139
  3. Neese,F.
     The SHARK Integral Generation and Digestion System
     J. Comp. Chem., 2022  1-16
     doi.org/10.1002/jcc.26942
  4. Lehtola,S.; Steigemann,C.; Oliveira,M.; Marques,M.
     Recent developments in Libxc - A comprehensive library of functionals for density functional theory
     Software X, 2018 7 
     doi.org/10.1016/j.softx.2017.11.002
  5. Grimme,S.; Antony,J.; Ehrlich,S.; Krieg,H.
     A consistent and accurate ab initio parametrization of density functional dispersion correction (DFT-D) for the 94 elements H-Pu
     J. Chem. Phys., 2010 132 154104-XXXX
     doi.org/10.1063/1.3382344
  6. Grimme,S.; Ehrlich,S.; Goerigk,L.
     Effect of the damping function in dispersion corrected density functional theory
     J. Comput. Chem., 2011 32(7)1456-1465
     doi.org/10.1002/jcc.21759

List of suggested additional citations. These are papers that are important in the 'surrounding' of 
of this run, or papers that preceded the highly important papers. If you like your results we are grateful for a citation.

  1. Neese,F.
     The ORCA program system
     WIRES Comput. Molec. Sci., 2012 2(1)73-78
     doi.org/10.1002/wcms.81
  2. Neese,F.
     Software update: the ORCA program system, version 4.0
     WIRES Comput. Molec. Sci., 2018 8(1)1-6
     doi.org/10.1002/wcms.1327
  3. Neese,F.; Wennmohs,F.; Becker,U.; Riplinger,C.
     The ORCA quantum chemistry program package
     J. Chem. Phys., 2020 152 Art. No. L224108
     doi.org/10.1063/5.0004608

List of optional additional citations

  1. Neese,F.
     Approximate second-order SCF convergence for spin unrestricted wavefunctions
     Chem. Phys. Lett., 2000 325(1-3)93-98
     doi.org/10.1016/s0009-2614(00)00662-x

Timings for individual modules:

Sum of individual times          ...      191.821 sec (=   3.197 min)
Startup calculation              ...        6.422 sec (=   0.107 min)   3.3 %
SCF iterations                   ...      183.519 sec (=   3.059 min)  95.7 %
Property calculations            ...        1.879 sec (=   0.031 min)   1.0 %
                             ****ORCA TERMINATED NORMALLY****
TOTAL RUN TIME: 0 days 0 hours 3 minutes 14 seconds 120 msec
