 vasp.6.3.2 27Jun22 (build Oct 25 2024 11:36:28) complex                        
  
 executed on             LinuxIFC date 2025.09.09  14:55:35
 running on   90 total cores
 distrk:  each k-point on   90 cores,    1 groups
 distr:  one band on NCORE=  10 cores,    9 groups


--------------------------------------------------------------------------------------------------------


 INCAR:
   SYSTEM = 061_red
   ISTART = 1
   ICHARG = 2
   INIWAV = 1
   LHFCALC = .TRUE.
   HFSCREEN = 0.2
   NELM = 500
   ALGO = Damped
   ISPIN = 2
   EDIFF = 1E-05
   ISMEAR = 0
   SIGMA = 0.05
   PREC = accurate
   ENCUT = 500
   LREAL = auto  	
   LDIAG = .FALSE.
   LWAVE = .TRUE.
   LCHARG = .FALSE.
   LAECHG = .FALSE.
   LVHAR = .FALSE.
   LVTOT = .FALSE.
   EDIFFG = -0.02
   IBRION = 2
   NSW = 0
   ISIF = 2
   POTIM = 0.5
   IVDW = 12
   VDW_A1 = 0.383
   VDW_S8 = 2.310
   VDW_A2 = 5.685
   LPLANE = .TRUE.
   NCORE = 10
   LSCALU = .FALSE.
   NSIM = 4
   LSOL = .TRUE.
   ISOL = 2
   R_SOLV = 2.1900
   EPSILON_INF = 1.8069
   N_MOL = 0.0115
   P_MOL = 0.82
   EB_K = 35.6880

 POTCAR:    PAW_PBE C 08Apr2002                   
 POTCAR:    PAW_PBE O 08Apr2002                   
 POTCAR:    PAW_PBE H 15Jun2001                   
 -----------------------------------------------------------------------------
|                                                                             |
|           W    W    AA    RRRRR   N    N  II  N    N   GGGG   !!!           |
|           W    W   A  A   R    R  NN   N  II  NN   N  G    G  !!!           |
|           W    W  A    A  R    R  N N  N  II  N N  N  G       !!!           |
|           W WW W  AAAAAA  RRRRR   N  N N  II  N  N N  G  GGG   !            |
|           WW  WW  A    A  R   R   N   NN  II  N   NN  G    G                |
|           W    W  A    A  R    R  N    N  II  N    N   GGGG   !!!           |
|                                                                             |
|     You use a magnetic or noncollinear calculation, but did not specify     |
|     the initial magnetic moment with the MAGMOM tag. Note that a            |
|     default of 1 will be used for all atoms. This ferromagnetic setup       |
|     may break the symmetry of the crystal, in particular it may rule        |
|     out finding an antiferromagnetic solution. Thence, we recommend         |
|     setting the initial magnetic moment manually or verifying carefully     |
|     that this magnetic setup is desired.                                    |
|                                                                             |
 -----------------------------------------------------------------------------

 POTCAR:    PAW_PBE C 08Apr2002                   
   SHA256 =  253f7b50bb8d59471dbedb8285d89021f4a42ed1a2c5d38a03a736e69125dd95 C/POTCAR              
   COPYR  = (c) Copyright 08Apr2002 Georg Kresse                                                    
   COPYR  = This file is part of the software VASP. Any use, copying, and all other rights are regul
   COPYR  = If you do not have a valid VASP license, you may not use, copy or distribute this file. 
   VRHFIN =C: s2p2                                                                                  
   LEXCH  = PE                                                                                      
   EATOM  =   147.1560 eV,   10.8157 Ry                                                             
                                                                                                    
   TITEL  = PAW_PBE C 08Apr2002                                                                     
   LULTRA =        F    use ultrasoft PP ?                                                          
   IUNSCR =        1    unscreen: 0-lin 1-nonlin 2-no                                               
   RPACOR =    1.200    partial core radius                                                         
   POMASS =   12.011; ZVAL   =    4.000    mass and valenz                                          
   RCORE  =    1.500    outmost cutoff radius                                                       
   RWIGS  =    1.630; RWIGS  =    0.863    wigner-seitz radius (au A)                               
   ENMAX  =  400.000; ENMIN  =  300.000 eV                                                          
   ICORE  =        2    local potential                                                             
   LCOR   =        T    correct aug charges                                                         
   LPAW   =        T    paw PP                                                                      
   EAUG   =  644.873                                                                                
   DEXC   =    0.000                                                                                
   RMAX   =    1.529    core radius for proj-oper                                                   
   RAUG   =    1.300    factor for augmentation sphere                                              
   RDEP   =    1.501    radius for radial grids                                                     
   RDEPT  =    1.300    core radius for aug-charge                                                  
                                                                                                    
   Atomic configuration                                                                             
    4 entries                                                                                       
     n  l   j            E        occ.                                                              
     1  0  0.50      -273.3789   2.0000                                                             
     2  0  0.50       -13.7508   2.0000                                                             
     2  1  0.50        -5.2854   2.0000                                                             
     3  2  1.50        -5.4423   0.0000                                                             
   Description                                                                                      
     l       E           TYP  RCUT    TYP  RCUT                                                     
     0    -13.7508458     23  1.200                                                                 
     0     -8.2022199     23  1.200                                                                 
     1     -5.2854383     23  1.500                                                                 
     1     34.0145650     23  1.500                                                                 
     2     -5.4423304      7  1.500                                                                 
  local pseudopotential read in
  partial core-charges read in
  partial kinetic energy density read in
  atomic valenz-charges read in
  non local Contribution for L=           0  read in
    real space projection operators read in
  non local Contribution for L=           0  read in
    real space projection operators read in
  non local Contribution for L=           1  read in
    real space projection operators read in
  non local Contribution for L=           1  read in
    real space projection operators read in
    PAW grid and wavefunctions read in
 
   number of l-projection  operators is LMAX  =           4
   number of lm-projection operators is LMMAX =           8
 
 POTCAR:    PAW_PBE O 08Apr2002                   
   SHA256 =  818f92134a0a090dccd8ba1447fa70422a3b330e708bb4f08108d8ae51209ddf O/POTCAR              
   COPYR  = (c) Copyright 08Apr2002 Georg Kresse                                                    
   COPYR  = This file is part of the software VASP. Any use, copying, and all other rights are regul
   COPYR  = If you do not have a valid VASP license, you may not use, copy or distribute this file. 
   VRHFIN =O: s2p4                                                                                  
   LEXCH  = PE                                                                                      
   EATOM  =   432.3788 eV,   31.7789 Ry                                                             
                                                                                                    
   TITEL  = PAW_PBE O 08Apr2002                                                                     
   LULTRA =        F    use ultrasoft PP ?                                                          
   IUNSCR =        1    unscreen: 0-lin 1-nonlin 2-no                                               
   RPACOR =    1.200    partial core radius                                                         
   POMASS =   16.000; ZVAL   =    6.000    mass and valenz                                          
   RCORE  =    1.520    outmost cutoff radius                                                       
   RWIGS  =    1.550; RWIGS  =    0.820    wigner-seitz radius (au A)                               
   ENMAX  =  400.000; ENMIN  =  300.000 eV                                                          
   ICORE  =        2    local potential                                                             
   LCOR   =        T    correct aug charges                                                         
   LPAW   =        T    paw PP                                                                      
   EAUG   =  605.392                                                                                
   DEXC   =    0.000                                                                                
   RMAX   =    1.553    core radius for proj-oper                                                   
   RAUG   =    1.300    factor for augmentation sphere                                              
   RDEP   =    1.550    radius for radial grids                                                     
   RDEPT  =    1.329    core radius for aug-charge                                                  
                                                                                                    
   Atomic configuration                                                                             
    4 entries                                                                                       
     n  l   j            E        occ.                                                              
     1  0  0.50      -514.6923   2.0000                                                             
     2  0  0.50       -23.9615   2.0000                                                             
     2  1  0.50        -9.0305   4.0000                                                             
     3  2  1.50        -9.5241   0.0000                                                             
   Description                                                                                      
     l       E           TYP  RCUT    TYP  RCUT                                                     
     0    -23.9615318     23  1.200                                                                 
     0     -9.5240782     23  1.200                                                                 
     1     -9.0304911     23  1.520                                                                 
     1      8.1634956     23  1.520                                                                 
     2     -9.5240782      7  1.500                                                                 
  local pseudopotential read in
  partial core-charges read in
  partial kinetic energy density read in
  kinetic energy density of atom read in
  atomic valenz-charges read in
  non local Contribution for L=           0  read in
    real space projection operators read in
  non local Contribution for L=           0  read in
    real space projection operators read in
  non local Contribution for L=           1  read in
    real space projection operators read in
  non local Contribution for L=           1  read in
    real space projection operators read in
    PAW grid and wavefunctions read in
 
   number of l-projection  operators is LMAX  =           4
   number of lm-projection operators is LMMAX =           8
 
 POTCAR:    PAW_PBE H 15Jun2001                   
   SHA256 =  030f79b5d3ab3cf0e668861823c8fb652ff669f3e15e46930bd03bfd63a607b6 H/POTCAR              
   COPYR  = (c) Copyright 15Jun2001 Georg Kresse                                                    
   COPYR  = This file is part of the software VASP. Any use, copying, and all other rights are regul
   COPYR  = If you do not have a valid VASP license, you may not use, copy or distribute this file. 
   VRHFIN =H: ultrasoft test                                                                        
   LEXCH  = PE                                                                                      
   EATOM  =    12.4884 eV,    0.9179 Ry                                                             
                                                                                                    
   TITEL  = PAW_PBE H 15Jun2001                                                                     
   LULTRA =        F    use ultrasoft PP ?                                                          
   IUNSCR =        0    unscreen: 0-lin 1-nonlin 2-no                                               
   RPACOR =    0.000    partial core radius                                                         
   POMASS =    1.000; ZVAL   =    1.000    mass and valenz                                          
   RCORE  =    1.100    outmost cutoff radius                                                       
   RWIGS  =    0.700; RWIGS  =    0.370    wigner-seitz radius (au A)                               
   ENMAX  =  250.000; ENMIN  =  200.000 eV                                                          
   RCLOC  =    0.701    cutoff for local pot                                                        
   LCOR   =        T    correct aug charges                                                         
   LPAW   =        T    paw PP                                                                      
   EAUG   =  400.000                                                                                
   RMAX   =    1.123    core radius for proj-oper                                                   
   RAUG   =    1.200    factor for augmentation sphere                                              
   RDEP   =    1.112    radius for radial grids                                                     
   RDEPT  =    0.926    core radius for aug-charge                                                  
                                                                                                    
   Atomic configuration                                                                             
    2 entries                                                                                       
     n  l   j            E        occ.                                                              
     1  0  0.50        -6.4927   1.0000                                                             
     2  1  0.50        -3.4015   0.0000                                                             
   Description                                                                                      
     l       E           TYP  RCUT    TYP  RCUT                                                     
     0     -6.4927494     23  1.100                                                                 
     0      6.8029130     23  1.100                                                                 
     1     -4.0817478     23  1.100                                                                 
  local pseudopotential read in
  atomic valenz-charges read in
  non local Contribution for L=           0  read in
    real space projection operators read in
  non local Contribution for L=           0  read in
    real space projection operators read in
  non local Contribution for L=           1  read in
    real space projection operators read in
    PAW grid and wavefunctions read in
 
   number of l-projection  operators is LMAX  =           3
   number of lm-projection operators is LMMAX =           5
 
 Optimization of the real space projectors (new method)

 maximal supplied QI-value         = 25.13
 optimisation between [QCUT,QGAM] = [ 11.31, 22.87] = [ 35.82,146.48] Ry 
 Optimized for a Real-space Cutoff    1.03 Angstroem

   l    n(q)    QCUT    max X(q) W(low)/X(q) W(high)/X(q)  e(spline) 
   0      7    11.310   115.676    0.20E-03    0.90E-03    0.20E-06
   0      7    11.310    87.132    0.20E-03    0.89E-03    0.19E-06
   1      6    11.310     4.429    0.16E-03    0.28E-03    0.12E-06
   1      6    11.310     2.733    0.12E-03    0.21E-03    0.99E-07
 Optimization of the real space projectors (new method)

 maximal supplied QI-value         = 24.76
 optimisation between [QCUT,QGAM] = [ 11.39, 22.77] = [ 36.31,145.25] Ry 
 Optimized for a Real-space Cutoff    1.10 Angstroem

   l    n(q)    QCUT    max X(q) W(low)/X(q) W(high)/X(q)  e(spline) 
   0      7    11.387    20.381    0.22E-03    0.48E-03    0.18E-06
   0      7    11.387    15.268    0.22E-03    0.52E-03    0.19E-06
   1      7    11.387     5.964    0.22E-03    0.73E-03    0.24E-06
   1      7    11.387     5.382    0.19E-03    0.60E-03    0.21E-06
 Optimization of the real space projectors (new method)

 maximal supplied QI-value         = 34.20
 optimisation between [QCUT,QGAM] = [ 11.29, 22.57] = [ 35.68,142.71] Ry 
 Optimized for a Real-space Cutoff    1.20 Angstroem

   l    n(q)    QCUT    max X(q) W(low)/X(q) W(high)/X(q)  e(spline) 
   0      8    11.287    19.460    0.22E-03    0.50E-03    0.19E-06
   0      8    11.287    12.209    0.21E-03    0.48E-03    0.18E-06
   1      8    11.287     4.655    0.21E-03    0.11E-04    0.26E-06
  PAW_PBE C 08Apr2002                   :
 energy of atom  1       EATOM= -147.1560
 kinetic energy error for atom=    0.0076 (will be added to EATOM!!)
  PAW_PBE O 08Apr2002                   :
 energy of atom  2       EATOM= -432.3788
 kinetic energy error for atom=    0.0224 (will be added to EATOM!!)
  PAW_PBE H 15Jun2001                   :
 energy of atom  3       EATOM=  -12.4884
 kinetic energy error for atom=    0.0020 (will be added to EATOM!!)
 
 
 POSCAR: C O H
  positions in direct lattice
  velocities in cartesian coordinates
 exchange correlation table for  LEXCH =        8
   RHO(1)=    0.500       N(1)  =     2000
   RHO(2)=  100.500       N(2)  =     4000
 
 POSCAR: C O H
  positions in direct lattice
  velocities in cartesian coordinates
 
 POSCAR: C O H
  positions in direct lattice
  velocities in cartesian coordinates
 


--------------------------------------------------------------------------------------------------------


 ion  position               nearest neighbor table
   1  0.534  0.487  0.520-  23 1.09   2 1.40   6 1.40
   2  0.566  0.472  0.521-  22 1.09   1 1.40   3 1.40
   3  0.593  0.486  0.504-  21 1.09   2 1.40   4 1.40
   4  0.588  0.515  0.485-  20 1.09   5 1.40   3 1.40
   5  0.557  0.530  0.484-  19 1.09   4 1.40   6 1.40
   6  0.530  0.516  0.501-  13 1.39   5 1.40   1 1.40
   7  0.470  0.516  0.499-  13 1.39   8 1.40  12 1.40
   8  0.443  0.530  0.516-  18 1.09   9 1.40   7 1.40
   9  0.412  0.515  0.515-  17 1.09   8 1.40  10 1.40
  10  0.407  0.486  0.496-  16 1.09   9 1.40  11 1.40
  11  0.434  0.472  0.479-  15 1.09  12 1.40  10 1.40
  12  0.466  0.487  0.480-  14 1.09  11 1.40   7 1.40
  13  0.500  0.533  0.500-   6 1.39   7 1.39
  14  0.487  0.476  0.467-  12 1.09
  15  0.431  0.449  0.464-  11 1.09
  16  0.383  0.474  0.495-  10 1.09
  17  0.391  0.526  0.528-   9 1.09
  18  0.447  0.553  0.531-   8 1.09
  19  0.553  0.553  0.469-   5 1.09
  20  0.609  0.526  0.472-   4 1.09
  21  0.617  0.474  0.505-   3 1.09
  22  0.569  0.449  0.536-   2 1.09
  23  0.513  0.476  0.533-   1 1.09
 
  LATTYP: Found a simple cubic cell.
 ALAT       =    40.0000000000
  
  Lattice vectors:
  
 A1 = (  40.0000000000,   0.0000000000,   0.0000000000)
 A2 = (   0.0000000000,  40.0000000000,   0.0000000000)
 A3 = (   0.0000000000,   0.0000000000,  40.0000000000)


Analysis of symmetry for initial positions (statically):
=====================================================================
 Subroutine PRICEL returns:
 Original cell was already a primitive cell.
 

 Routine SETGRP: Setting up the symmetry group for a 
 simple cubic supercell.


 Subroutine GETGRP returns: Found  2 space group operations
 (whereof  2 operations were pure point group operations)
 out of a pool of 48 trial point group operations.


The static configuration has the point symmetry C_2 .


Analysis of symmetry for dynamics (positions and initial velocities):
=====================================================================
 Subroutine PRICEL returns:
 Original cell was already a primitive cell.
 

 Routine SETGRP: Setting up the symmetry group for a 
 simple cubic supercell.


 Subroutine GETGRP returns: Found  2 space group operations
 (whereof  2 operations were pure point group operations)
 out of a pool of 48 trial point group operations.


The dynamic configuration has the point symmetry C_2 .


Analysis of constrained symmetry for selective dynamics:
=====================================================================
 Subroutine PRICEL returns:
 Original cell was already a primitive cell.
 

 Routine SETGRP: Setting up the symmetry group for a 
 simple cubic supercell.


 Subroutine GETGRP returns: Found  2 space group operations
 (whereof  2 operations were pure point group operations)
 out of a pool of 48 trial point group operations.


The constrained configuration has the point symmetry C_2 .


Analysis of structural, dynamic, and magnetic symmetry:
=====================================================================
 Subroutine PRICEL returns:
 Original cell was already a primitive cell.
 

 Routine SETGRP: Setting up the symmetry group for a 
 simple cubic supercell.


 Subroutine GETGRP returns: Found  2 space group operations
 (whereof  2 operations were pure point group operations)
 out of a pool of 48 trial point group operations.


The overall configuration has the point symmetry C_2 .


 Subroutine INISYM returns: Found  2 space group operations
 (whereof  2 operations are pure point group operations),
 and found     1 'primitive' translations


----------------------------------------------------------------------------------------

                                     Primitive cell                                     

  volume of cell :   64000.0000

  direct lattice vectors                    reciprocal lattice vectors
    40.000000000  0.000000000  0.000000000     0.025000000  0.000000000  0.000000000
     0.000000000 40.000000000  0.000000000     0.000000000  0.025000000  0.000000000
     0.000000000  0.000000000 40.000000000     0.000000000  0.000000000  0.025000000

  length of vectors
    40.000000000 40.000000000 40.000000000     0.025000000  0.025000000  0.025000000

  position of ions in fractional coordinates (direct lattice)
     0.534201786  0.486892582  0.519787923
     0.565633248  0.471761572  0.520970911
     0.592762843  0.485593345  0.503805875
     0.588290287  0.514926214  0.485323997
     0.556946432  0.530231554  0.483756351
     0.530019232  0.516090534  0.500962021
     0.469980504  0.516088008  0.499039850
     0.443050939  0.530229480  0.516242392
     0.411707755  0.514924854  0.514672121
     0.407236465  0.485589978  0.496191862
     0.434369598  0.471757699  0.479030131
     0.465799303  0.486889056  0.480216421
     0.499999445  0.533465002  0.500001673
     0.486905821  0.476191242  0.466705844
     0.431102443  0.448993864  0.464373909
     0.382800301  0.473602701  0.495120561
     0.390719339  0.525961527  0.528147951
     0.447016826  0.553024471  0.530644104
     0.552978535  0.553023655  0.469351590
     0.609276556  0.525961386  0.471845398
     0.617200275  0.473606566  0.504876143
     0.568901923  0.448999662  0.535629463
     0.513098146  0.476196046  0.533302508

  ion indices of the primitive-cell ions
   primitive index   ion index
                 1           1
                 2           2
                 3           3
                 4           4
                 5           5
                 6           6
                 7           7
                 8           8
                 9           9
                10          10
                11          11
                12          12
                13          13
                14          14
                15          15
                16          16
                17          17
                18          18
                19          19
                20          20
                21          21
                22          22
                23          23

----------------------------------------------------------------------------------------

 
 
 KPOINTS: K-Point Grid                            

Automatic generation of k-mesh.
 Grid dimensions read from file:
 generate k-points for:    1    1    1

 Generating k-lattice:

  Cartesian coordinates                     Fractional coordinates (reciprocal lattice)
     0.025000000  0.000000000  0.000000000     1.000000000  0.000000000  0.000000000
     0.000000000  0.025000000  0.000000000     0.000000000  1.000000000  0.000000000
     0.000000000  0.000000000  0.025000000     0.000000000  0.000000000  1.000000000

  Length of vectors
     0.025000000  0.025000000  0.025000000

  Shift w.r.t. Gamma in fractional coordinates (k-lattice)
     0.000000000  0.000000000  0.000000000

 
 Subroutine IBZKPT returns following result:
 ===========================================
 
 Found      1 irreducible k-points:
 
 Following reciprocal coordinates:
            Coordinates               Weight
  0.000000  0.000000  0.000000      1.000000
 
 Following cartesian coordinates:
            Coordinates               Weight
  0.000000  0.000000  0.000000      1.000000
 
 
 Subroutine IBZKPT_HF returns following result:
 ==============================================
 
 Found      1 k-points in 1st BZ
 the following      1 k-points will be used (e.g. in the exchange kernel)
 Following reciprocal coordinates:   # in IRBZ
  0.000000  0.000000  0.000000    1.00000000   1 t-inv F


--------------------------------------------------------------------------------------------------------




 Dimension of arrays:
   k-points           NKPTS =      1   k-points in BZ     NKDIM =      1   number of bands    NBANDS=     63
   number of dos      NEDOS =    301   number of ions     NIONS =     23
   non local maximal  LDIM  =      4   non local SUM 2l+1 LMDIM =      8
   total plane-waves  NPLWV = ******
   max r-space proj   IRMAX =   2915   max aug-charges    IRDMAX=   5350
   dimension x,y,z NGX =   294 NGY =  294 NGZ =  294
   dimension x,y,z NGXF=   588 NGYF=  588 NGZF=  588
   support grid    NGXF=   588 NGYF=  588 NGZF=  588
   ions per type =              12   1  10
   NGX,Y,Z   is equivalent  to a cutoff of  12.22, 12.22, 12.22 a.u.
   NGXF,Y,Z  is equivalent  to a cutoff of  24.44, 24.44, 24.44 a.u.

 SYSTEM =  061_red                                 
 POSCAR =  C O H                                   

 Startparameter for this run:
   NWRITE =      2    write-flag & timer
   PREC   = accura    normal or accurate (medium, high low for compatibility)
   ISTART =      1    job   : 0-new  1-cont  2-samecut
   ICHARG =      2    charge: 1-file 2-atom 10-const
   ISPIN  =      2    spin polarized calculation?
   LNONCOLLINEAR =      F non collinear calculations
   LSORBIT =      F    spin-orbit coupling
   INIWAV =      1    electr: 0-lowe 1-rand  2-diag
   LASPH  =      F    aspherical Exc in radial PAW
 Electronic Relaxation 1
   ENCUT  =  500.0 eV  36.75 Ry    6.06 a.u.  72.93 72.93 72.93*2*pi/ulx,y,z
   ENINI  =  500.0     initial cutoff
   ENAUG  =  644.9 eV  augmentation charge cutoff
   NELM   =    500;   NELMIN=  2; NELMDL=  0     # of ELM steps 
   EDIFF  = 0.1E-04   stopping-criterion for ELM
   LREAL  =      T    real-space projection
   NLSPLINE    = F    spline interpolate recip. space projectors
   LCOMPAT=      F    compatible to vasp.4.4
   GGA_COMPAT  = T    GGA compatible to vasp.4.4-vasp.4.6
   LMAXPAW     = -100 max onsite density
   LMAXMIX     =    2 max onsite mixed and CHGCAR
   VOSKOWN=      0    Vosko Wilk Nusair interpolation
   ROPT   =   -0.00025  -0.00025  -0.00025
 Ionic relaxation
   EDIFFG = -.2E-01   stopping-criterion for IOM
   NSW    =      0    number of steps for IOM
   NBLOCK =      1;   KBLOCK =      1    inner block; outer block 
   IBRION =     -1    ionic relax: 0-MD 1-quasi-New 2-CG
   NFREE  =      1    steps in history (QN), initial steepest desc. (CG)
   ISIF   =      2    stress and relaxation
   IWAVPR =     10    prediction:  0-non 1-charg 2-wave 3-comb
   ISYM   =      3    0-nonsym 1-usesym 2-fastsym
   LCORR  =      T    Harris-Foulkes like correction to forces

   POTIM  = 0.5000    time-step for ionic-motion
   TEIN   =    0.0    initial temperature
   TEBEG  =    0.0;   TEEND  =   0.0 temperature during run
   SMASS  =  -3.00    Nose mass-parameter (am)
   estimated Nose-frequenzy (Omega)   =  0.10E-29 period in steps = 0.13E+47 mass=  -0.366E-25a.u.
   SCALEE = 1.0000    scale energy and forces
   NPACO  =    256;   APACO  = 10.0  distance and # of slots for P.C.
   PSTRESS=    0.0 pullay stress

  Mass of Ions in am
   POMASS =  12.01 16.00  1.00
  Ionic Valenz
   ZVAL   =   4.00  6.00  1.00
  Atomic Wigner-Seitz radii
   RWIGS  =  -1.00 -1.00 -1.00
  virtual crystal weights 
   VCA    =   1.00  1.00  1.00
   NELECT =      64.0000    total number of electrons
   NUPDOWN=      -1.0000    fix difference up-down

 DOS related values:
   EMIN   =  10.00;   EMAX   =-10.00  energy-range for DOS
   EFERMI =   0.00
   ISMEAR =     0;   SIGMA  =   0.05  broadening in eV -4-tet -1-fermi 0-gaus

 Electronic relaxation 2 (details)
   IALGO  =     53    algorithm
   LDIAG  =      F    sub-space diagonalisation (order eigenvalues)
   LSUBROT=      F    optimize rotation matrix (better conditioning)
   TURBO    =      0    0=normal 1=particle mesh
   IRESTART =      0    0=no restart 2=restart with 2 vectors
   NREBOOT  =      0    no. of reboots
   NMIN     =      0    reboot dimension
   EREF     =   0.00    reference energy to select bands
   IMIX   =      4    mixing-type and parameters
     AMIX     =   0.40;   BMIX     =  1.00
     AMIX_MAG =   1.60;   BMIX_MAG =  1.00
     AMIN     =   0.10
     WC   =   100.;   INIMIX=   1;  MIXPRE=   1;  MAXMIX= -45

 Intra band minimization:
   WEIMIN = 0.0000     energy-eigenvalue tresh-hold
   EBREAK =  0.40E-07  absolut break condition
   DEPER  =   0.30     relativ break condition  

   TIME   =   0.40     timestep for ELM

  volume/ion in A,a.u.               =    2782.61     18777.97
  Fermi-wavevector in a.u.,A,eV,Ry     =   0.163710  0.309367  0.364649  0.026801
  Thomas-Fermi vector in A             =   0.862763
 
 Write flags
   LWAVE        =      T    write WAVECAR
   LDOWNSAMPLE  =      F    k-point downsampling of WAVECAR
   LCHARG       =      F    write CHGCAR
   LVTOT        =      F    write LOCPOT, total local potential
   LVHAR        =      F    write LOCPOT, Hartree potential only
   LELF         =      F    write electronic localiz. function (ELF)
   LORBIT       =      0    0 simple, 1 ext, 2 COOP (PROOUT), +10 PAW based schemes


 Dipole corrections
   LMONO  =      F    monopole corrections only (constant potential shift)
   LDIPOL =      F    correct potential (dipole corrections)
   IDIPOL =      0    1-x, 2-y, 3-z, 4-all directions 
   EPSILON=  1.0000000 bulk dielectric constant

 Exchange correlation treatment:
   GGA     =    --    GGA type
   LEXCH   =     8    internal setting for exchange type
   LIBXC   =     F    Libxc                    
   VOSKOWN =     0    Vosko Wilk Nusair interpolation
   EXXOEP  =     0    0=HF, 1=EXX-LHF (local Hartree Fock) 2=EXX OEP
   LHFCALC =     T    Hartree Fock is set to
   LSYMGRAD=     F    symmetrize gradient (conserves proper symmetry)
   PRECFOCK=normal    Normal, Fast or Accurate (Low or Medium for compatibility)
   LRHFCALC=     F    long range Hartree Fock
   LRSCOR  =     F    long range correlation only (use DFT for short range part)
   LTHOMAS =     F    Thomas Fermi screening in HF
   LMODELHF=     F    short range full HF, long range fraction AEXX
   FOCKCORR=     1    mode to apply convergence corrections
   LFOCKACE=     T    use Adeptively-Compressed-Exchange operator
   ENCUT4O =  -1.0   cutoff for four orbital integrals eV
   LMAXFOCK=     4    L truncation for augmentation on plane wave grid
   LMAXFOCKAE=  -1    L truncation for all-electron charge restoration on plane wave grid
   NMAXFOCKAE=   1    number of basis functions for all-electron charge restoration
   LFOCKAEDFT=     F  apply the AE augmentation even for DFT
   NKREDX  =     1    reduce k-point grid by
   NKREDY  =     1    reduce k-point grid by
   NKREDZ  =     1    reduce k-point grid by
   SHIFTRED=     F    shift reduced grid of Gamma
   HFKIDENT=     F    idential grid for each k-point
   ODDONLY =     F    use only odd q-grid points
   EVENONLY=     F    use only even q-grid points
   HFALPHA =   -1.0000 decay constant for conv. correction
   MCALPHA =    0.0000 extent of test-charge in conv. correction in multipole expansion
   AEXX    =    0.2500 exact exchange contribution
   HFSCREEN=    0.2000 screening length (either q_TF or 0.3 A-1)
   HFSCREENC=   0.2000 screening length for correlation (either q_TF or 0.3 A-1)
   HFRCUT  =    0.0000 spherical cutoff for potential kernel
   ALDAX   =    0.7500 LDA exchange part
   AGGAX   =    0.7500 GGA exchange part
   ALDAC   =    1.0000 LDA correlation
   AGGAC   =    1.0000 GGA correlation
   ENCUTFOCK=  -1.0 apply spherical cutoff to Coloumb kernel
   NBANDSGWLOW=     1    first orbital included in HF term
   NBLOCK_FOCK=    64    blocking factor in FOCK_ACC

 Linear response parameters
   LEPSILON=     F    determine dielectric tensor
   LRPA    =     F    only Hartree local field effects (RPA)
   LNABLA  =     F    use nabla operator in PAW spheres
   LVEL    =     F    velocity operator in full k-point grid
   CSHIFT  =0.1000    complex shift for real part using Kramers Kronig
   OMEGAMAX=  -1.0    maximum frequency
   DEG_THRESHOLD= 0.2000000E-02 threshold for treating states as degnerate
   RTIME   =   -0.100 relaxation time in fs
  (WPLASMAI=    0.000 imaginary part of plasma frequency in eV, 0.658/RTIME)
   DFIELD  = 0.0000000 0.0000000 0.0000000 field for delta impulse in time
 
  Optional k-point grid parameters
   LKPOINTS_OPT  =     F    use optional k-point grid
   KPOINTS_OPT_MODE=     1    mode for optional k-point grid
 
 Orbital magnetization related:
   ORBITALMAG=     F  switch on orbital magnetization
   LCHIMAG   =     F  perturbation theory with respect to B field
   DQ        =  0.001000  dq finite difference perturbation B field
   LLRAUG    =     F  two centre corrections for induced B field

 Solvation model:
   LSOL             =     T         switch on solvation model
   LSOL_SCF         =     T         include solvation in SCF
   ISOL             =     2         solvation model type
   EFERMI_ref       =  0.000000         reference Fermi level
   capacitance_init =  1.000000         initial capacitance
 Nonlinear solvation model:
   LNLDIEL     =     T         switch on non-linear dielectric mode
   LNLION      =     T         switch on non-linear ionic mode
   LNLTEST     =     F         test non-linear model in linear regime
   I_NLOC_SOL  =     1         type of nonlocal dielectric response
   NC_K        =  0.015000     cutoff charge density for cavities (1/Angstrom**3)
   TAU         =  0.000879     cavity formation energy (eV/Angstrom**2)
   SIGMA_K     =  0.600000     cavity width
   A_K         =  0.125000     smoothing length (Angstrom)
   R_SOLV      =  2.190000     solvent radius (Angstrom)
   R_CAV       =  0.000000     cavity radius (Angstrom)
   R_DIEL      =  1.000000     dielectric radius (Angstrom)
   R_ION       =  0.000000     ionic radius (Angstrom)
   R_B         =  0.000000     bound charge radius (Angstrom)
   SOLTEMP     =298.000000     solvent temperature (K)
   EB_K        = 35.688000     relative permittivity of the bulk solvent
   EPSILON_INF =  1.806900     optical relative permittivity of bulk solvent
   N_MOL       =  0.011500     molar density of solvent (1/Angstrom**3)
   P_MOL       =  0.820000     solvent dipole moment (e*Angstrom)
   C_MOLAR     =  0.000000     electrolyte concentration (mol/L)
   LAMBDA_D_K  =  0.000000     Debye length (Angstrom)
   ZION        =  1.000000     charge of ions in electrolyte (e)
   D_ION       = -1.000000     minimum ion packing diameter (Angstrom)



--------------------------------------------------------------------------------------------------------


 Static calculation
 charge density and potential will be updated during run
 spin polarized calculation
 Conjugate gradient for all bands (Kresse, et al. variant)
 perform Loewdin sub-space diagonalisation
    ordering is kept fixed
    before iterative eigenvector-optimisation
 modified Broyden-mixing scheme, WC =      100.0
 initial mixing is a Kerker type mixing with AMIX =  0.4000 and BMIX =      1.0000
 Hartree-type preconditioning will be used
 using additional bands           31
 real space projection scheme for non local part
 use partial core corrections
 no Harris-corrections to forces 
 use gradient corrections 
 use of overlap-Matrix (Vanderbilt PP)
 Gauss-broadening in eV      SIGMA  =   0.05


--------------------------------------------------------------------------------------------------------


  energy-cutoff  :      500.00
  volume of cell :    64000.00
      direct lattice vectors                 reciprocal lattice vectors
    40.000000000  0.000000000  0.000000000     0.025000000  0.000000000  0.000000000
     0.000000000 40.000000000  0.000000000     0.000000000  0.025000000  0.000000000
     0.000000000  0.000000000 40.000000000     0.000000000  0.000000000  0.025000000

  length of vectors
    40.000000000 40.000000000 40.000000000     0.025000000  0.025000000  0.025000000


 
 old parameters found on file WAVECAR:
  energy-cutoff  :      500.00
  volume of cell :    64000.00
      direct lattice vectors                 reciprocal lattice vectors
    40.000000000  0.000000000  0.000000000     0.025000000  0.000000000  0.000000000
     0.000000000 40.000000000  0.000000000     0.000000000  0.025000000  0.000000000
     0.000000000  0.000000000 40.000000000     0.000000000  0.000000000  0.025000000

  length of vectors

 
 k-points in units of 2pi/SCALE and weight: K-Point Grid                            
   0.00000000  0.00000000  0.00000000       1.000
 
 k-points in reciprocal lattice and weights: K-Point Grid                            
   0.00000000  0.00000000  0.00000000       1.000
 
 position of ions in fractional coordinates (direct lattice) 
   0.53420179  0.48689258  0.51978792
   0.56563325  0.47176157  0.52097091
   0.59276284  0.48559335  0.50380587
   0.58829029  0.51492621  0.48532400
   0.55694643  0.53023155  0.48375635
   0.53001923  0.51609053  0.50096202
   0.46998050  0.51608801  0.49903985
   0.44305094  0.53022948  0.51624239
   0.41170776  0.51492485  0.51467212
   0.40723647  0.48558998  0.49619186
   0.43436960  0.47175770  0.47903013
   0.46579930  0.48688906  0.48021642
   0.49999944  0.53346500  0.50000167
   0.48690582  0.47619124  0.46670584
   0.43110244  0.44899386  0.46437391
   0.38280030  0.47360270  0.49512056
   0.39071934  0.52596153  0.52814795
   0.44701683  0.55302447  0.53064410
   0.55297854  0.55302366  0.46935159
   0.60927656  0.52596139  0.47184540
   0.61720027  0.47360657  0.50487614
   0.56890192  0.44899966  0.53562946
   0.51309815  0.47619605  0.53330251
 
 position of ions in cartesian coordinates  (Angst):
  21.36807144 19.47570329 20.79151692
  22.62532993 18.87046288 20.83883643
  23.71051371 19.42373381 20.15223498
  23.53161148 20.59704856 19.41295989
  22.27785728 21.20926216 19.35025404
  21.20076926 20.64362137 20.03848083
  18.79922015 20.64352034 19.96159400
  17.72203755 21.20917920 20.64969569
  16.46831021 20.59699416 20.58688484
  16.28945861 19.42359912 19.84767449
  17.37478394 18.87030795 19.16120524
  18.63197211 19.47556225 19.20865685
  19.99997779 21.33860009 20.00006693
  19.47623282 19.04764968 18.66823376
  17.24409771 17.95975457 18.57495637
  15.31201204 18.94410803 19.80482245
  15.62877354 21.03846109 21.12591804
  17.88067304 22.12097883 21.22576415
  22.11914141 22.12094621 18.77406360
  24.37106223 21.03845546 18.87381593
  24.68801098 18.94426265 20.19504574
  22.75607693 17.95998648 21.42517854
  20.52392583 19.04784184 21.33210030
 


--------------------------------------------------------------------------------------------------------


 k-point   1 :   0.0000 0.0000 0.0000  plane waves: 1624525

 maximum and minimum number of plane-waves per node :    162473   162437

 maximum number of plane-waves:   1624525
 maximum index in each direction: 
   IXMAX=   72   IYMAX=   72   IZMAX=   72
   IXMIN=  -72   IYMIN=  -72   IZMIN=  -72


 real space projection operators:
  total allocation   :       2559.34 KBytes
  max/ min on nodes  :        259.06        254.16


 parallel 3D FFT for wavefunctions:
    minimum data exchange during FFTs selected (reduces bandwidth)
 parallel 3D FFT for charge:
    minimum data exchange during FFTs selected (reduces bandwidth)


 FFT grid for exact exchange (Hartree Fock) 
  NGX =224; NGY =224; NGZ =224

 
 Radii for the augmentation spheres in the non-local exchange
 for species   1 augmentation radius   0.874 (default was   0.699)
       energy cutoff for augmentation   2000.0
 for species   2 augmentation radius   0.902 (default was   0.722)
       energy cutoff for augmentation   2000.0
 for species   3 augmentation radius   0.650 (default was   0.520)
       energy cutoff for augmentation   2000.0

 real space projection operators:
  total allocation   :        598.29 KBytes
  max/ min on nodes  :         63.63         54.91

 Maximum index for augmentation-charges in exchange           75
  SETUP_FOCK is finished

 total amount of memory used by VASP MPI-rank0   786591. kBytes
=======================================================================

   base      :      30000. kBytes
   nonlr-proj:       1730. kBytes
   fftplans  :     224335. kBytes
   grid      :     421299. kBytes
   one-center:         18. kBytes
   HF        :          9. kBytes
   wavefun   :     109200. kBytes
 
     INWAV:  cpu time     16.8155: real time     16.9250
 Broyden mixing: mesh for mixing (old mesh)
   NGX =145   NGY =145   NGZ =145
  (NGX  =588   NGY  =588   NGZ  =588)
  gives a total of ****** points

 initial charge density was supplied:
 charge density of overlapping atoms calculated
 number of electron      64.0000000 magnetization      23.0000000
 charge density for first step will be calculated from the start-wavefunctions


--------------------------------------------------------------------------------------------------------


 Maximum index for non-local projection operator          320
 Maximum index for augmentation-charges          284 (set IRDMAX)


--------------------------------------------------------------------------------------------------------


 initial charge from wavefunction
 First call to EWALD:  gamma=   0.044
 Maximum number of real-space cells 3x 3x 3
 Maximum number of reciprocal cells 3x 3x 3

    FEWALD:  cpu time      0.0039: real time      0.0039


--------------------------------------- Iteration      1(   1)  ---------------------------------------


    POTLOK:  cpu time     14.1533: real time     14.1538
    SETDIJ:  cpu time      0.0677: real time      0.0677
    TRIAL :  cpu time    229.7142: real time    229.7243
    CORREC:  cpu time      0.1965: real time      0.1965
    CHARGE:  cpu time      4.3205: real time      4.3207
    --------------------------------------------
      LOOP:  cpu time    248.5097: real time    248.5209

 eigenvalue-minimisations  :     0
 total energy-change (2. order) :-0.1749443E+03  (-0.1475583E-01)
 number of electron      63.9999985 magnetization       0.0000000
 augmentation part        1.9717827 magnetization       0.0000000

 Free energy of the ion-electron system (eV)
  ---------------------------------------------------
  alpha Z        PSCENC =         0.29396090
  Ewald energy   TEWEN  =      7477.74511483
  -Hartree energ DENC   =     -9354.44628297
  -exchange      EXHF   =       145.49263707
  -V(xc)+E(xc)   XCENC  =       168.96884676
  PAW double counting   =      6022.97810326    -6029.73120053
  entropy T*S    EENTRO =        -0.00000000
  eigenvalues    EBANDS =      -900.32985245
  atomic energy  EATOM  =      2294.08438695
  ---------------------------------------------------
  free energy    TOTEN  =      -174.94428618 eV

  energy without entropy =     -174.94428618  energy(sigma->0) =     -174.94428618
  exchange ACFDT corr.  =        -0.00000000  see jH, gK, PRB 81, 115126


--------------------------------------------------------------------------------------------------------




--------------------------------------- Iteration      1(   2)  ---------------------------------------


    --------------------------------------------
      INIT:  cpu time      0.3876: real time      0.3877
  FINALIZE:  cpu time    115.3515: real time    115.3562
    --------------------------------------------
    POTLOK:  cpu time    131.8182: real time    131.8236
    SETDIJ:  cpu time      0.0721: real time      0.0721
    TRIAL :  cpu time    231.9181: real time    231.9282
    CORREC:  cpu time      0.5188: real time      0.5188
    CHARGE:  cpu time      3.5748: real time      3.5750
    --------------------------------------------
      LOOP:  cpu time    367.9123: real time    367.9378

 eigenvalue-minimisations  :     0
 total energy-change (2. order) : 0.2576603E+00  (-0.7647661E-02)
 number of electron      63.9999985 magnetization      -0.0000000
 augmentation part        1.9726154 magnetization      -0.0000000

 Free energy of the ion-electron system (eV)
  ---------------------------------------------------
  alpha Z        PSCENC =         0.29396090
  Ewald energy   TEWEN  =      7477.74511483
  -Hartree energ DENC   =     -9355.88282675
  -exchange      EXHF   =       145.52336481
  -V(xc)+E(xc)   XCENC  =       169.00010082
  PAW double counting   =      6023.67448533    -6030.43056728
  entropy T*S    EENTRO =        -0.00000000
  eigenvalues    EBANDS =      -904.44299483
  atomic energy  EATOM  =      2294.08438695
  ---------------------------------------------------
  free energy    TOTEN  =      -174.68662589 eV

  energy without entropy =     -174.68662589  energy(sigma->0) =     -174.68662589
  exchange ACFDT corr.  =         0.00000000  see jH, gK, PRB 81, 115126


--------------------------------------------------------------------------------------------------------




--------------------------------------- Iteration      1(   3)  ---------------------------------------


    --------------------------------------------
      INIT:  cpu time      0.3904: real time      0.3904
  FINALIZE:  cpu time     61.1657: real time     61.1689
    --------------------------------------------
    POTLOK:  cpu time     78.4621: real time     78.4661
    SETDIJ:  cpu time      0.0904: real time      0.0904
    TRIAL :  cpu time    230.1855: real time    230.1992
    CORREC:  cpu time      0.1093: real time      0.1093
    CHARGE:  cpu time      3.3800: real time      3.3801
    --------------------------------------------
      LOOP:  cpu time    312.2348: real time    312.2586

 eigenvalue-minimisations  :     0
 total energy-change (2. order) :-0.4774323E-02  (-0.3117543E-02)
 number of electron      63.9999985 magnetization      -0.0000000
 augmentation part        1.9720799 magnetization      -0.0000001

 Free energy of the ion-electron system (eV)
  ---------------------------------------------------
  alpha Z        PSCENC =         0.29396090
  Ewald energy   TEWEN  =      7477.74511483
  -Hartree energ DENC   =     -9358.93223609
  -exchange      EXHF   =       145.56583900
  -V(xc)+E(xc)   XCENC  =       169.04067031
  PAW double counting   =      6028.91051720    -6035.66887984
  entropy T*S    EENTRO =        -0.00000000
  eigenvalues    EBANDS =      -901.73457791
  atomic energy  EATOM  =      2294.08438695
  ---------------------------------------------------
  free energy    TOTEN  =      -174.69140021 eV

  energy without entropy =     -174.69140021  energy(sigma->0) =     -174.69140021
  exchange ACFDT corr.  =         0.00000000  see jH, gK, PRB 81, 115126


--------------------------------------------------------------------------------------------------------




--------------------------------------- Iteration      1(   4)  ---------------------------------------


    --------------------------------------------
      INIT:  cpu time      0.3646: real time      0.3646
  FINALIZE:  cpu time     60.8722: real time     60.8755
    --------------------------------------------
    POTLOK:  cpu time     78.7453: real time     78.7495
    SETDIJ:  cpu time      0.0704: real time      0.0704
    TRIAL :  cpu time    230.6936: real time    230.7065
    CORREC:  cpu time      0.3500: real time      0.3500
    CHARGE:  cpu time      3.3633: real time      3.3635
    --------------------------------------------
      LOOP:  cpu time    313.2297: real time    313.2536

 eigenvalue-minimisations  :     0
 total energy-change (2. order) :-0.1622156E-02  (-0.8244894E-03)
 number of electron      63.9999985 magnetization      -0.0000000
 augmentation part        1.9713510 magnetization       0.0000000

 Free energy of the ion-electron system (eV)
  ---------------------------------------------------
  alpha Z        PSCENC =         0.29396090
  Ewald energy   TEWEN  =      7477.74511483
  -Hartree energ DENC   =     -9359.39215068
  -exchange      EXHF   =       145.55740651
  -V(xc)+E(xc)   XCENC  =       169.03103984
  PAW double counting   =      6032.47527849    -6039.23104287
  entropy T*S    EENTRO =        -0.00000000
  eigenvalues    EBANDS =      -901.44702614
  atomic energy  EATOM  =      2294.08438695
  ---------------------------------------------------
  free energy    TOTEN  =      -174.69302236 eV

  energy without entropy =     -174.69302236  energy(sigma->0) =     -174.69302236
  exchange ACFDT corr.  =        -0.00000000  see jH, gK, PRB 81, 115126


--------------------------------------------------------------------------------------------------------




--------------------------------------- Iteration      1(   5)  ---------------------------------------


    --------------------------------------------
      INIT:  cpu time      0.3908: real time      0.3909
  FINALIZE:  cpu time     60.0759: real time     60.0783
    --------------------------------------------
    POTLOK:  cpu time     76.8314: real time     76.8345
    SETDIJ:  cpu time      0.0700: real time      0.0700
    TRIAL :  cpu time    230.2571: real time    230.2661
    CORREC:  cpu time      0.3687: real time      0.3687
    CHARGE:  cpu time      3.9131: real time      3.9133
    --------------------------------------------
      LOOP:  cpu time    311.4486: real time    311.4663

 eigenvalue-minimisations  :     0
 total energy-change (2. order) :-0.3356668E-03  (-0.2322071E-03)
 number of electron      63.9999985 magnetization      -0.0000000
 augmentation part        1.9713018 magnetization       0.0000001

 Free energy of the ion-electron system (eV)
  ---------------------------------------------------
  alpha Z        PSCENC =         0.29396090
  Ewald energy   TEWEN  =      7477.74511483
  -Hartree energ DENC   =     -9358.75929556
  -exchange      EXHF   =       145.54127966
  -V(xc)+E(xc)   XCENC  =       169.01323345
  PAW double counting   =      6033.41967951    -6040.17242131
  entropy T*S    EENTRO =        -0.00000000
  eigenvalues    EBANDS =      -902.08624162
  atomic energy  EATOM  =      2294.08438695
  ---------------------------------------------------
  free energy    TOTEN  =      -174.69335803 eV

  energy without entropy =     -174.69335803  energy(sigma->0) =     -174.69335803
  exchange ACFDT corr.  =        -0.00000000  see jH, gK, PRB 81, 115126


--------------------------------------------------------------------------------------------------------




--------------------------------------- Iteration      1(   6)  ---------------------------------------


    --------------------------------------------
      INIT:  cpu time      0.5722: real time      0.5722
  FINALIZE:  cpu time     62.7747: real time     62.7786
    --------------------------------------------
    POTLOK:  cpu time     81.7677: real time     81.7724
    SETDIJ:  cpu time      0.0701: real time      0.0701
    TRIAL :  cpu time    231.4562: real time    231.4686
    CORREC:  cpu time      0.9495: real time      0.9495
    CHARGE:  cpu time      3.3572: real time      3.3574
    --------------------------------------------
      LOOP:  cpu time    317.6163: real time    317.6408

 eigenvalue-minimisations  :     0
 total energy-change (2. order) :-0.9915241E-04  (-0.1115638E-03)
 number of electron      63.9999985 magnetization      -0.0000000
 augmentation part        1.9714669 magnetization       0.0000000

 Free energy of the ion-electron system (eV)
  ---------------------------------------------------
  alpha Z        PSCENC =         0.29396090
  Ewald energy   TEWEN  =      7477.74511483
  -Hartree energ DENC   =     -9358.69873017
  -exchange      EXHF   =       145.54397811
  -V(xc)+E(xc)   XCENC  =       169.01459864
  PAW double counting   =      6033.65860843    -6040.41117234
  entropy T*S    EENTRO =        -0.00000000
  eigenvalues    EBANDS =      -902.14055831
  atomic energy  EATOM  =      2294.08438695
  ---------------------------------------------------
  free energy    TOTEN  =      -174.69345718 eV

  energy without entropy =     -174.69345718  energy(sigma->0) =     -174.69345718
  exchange ACFDT corr.  =        -0.00000000  see jH, gK, PRB 81, 115126


--------------------------------------------------------------------------------------------------------




--------------------------------------- Iteration      1(   7)  ---------------------------------------


    --------------------------------------------
      INIT:  cpu time      0.3922: real time      0.3922
  FINALIZE:  cpu time     67.6936: real time     67.6970
    --------------------------------------------
    POTLOK:  cpu time     85.6419: real time     85.6462
    SETDIJ:  cpu time      0.0698: real time      0.0698
    TRIAL :  cpu time    232.6848: real time    232.6961
    CORREC:  cpu time      0.3936: real time      0.3936
    CHARGE:  cpu time      4.1342: real time      4.1344
    --------------------------------------------
      LOOP:  cpu time    322.9323: real time    322.9552

 eigenvalue-minimisations  :     0
 total energy-change (2. order) :-0.5623414E-04  (-0.4845365E-04)
 number of electron      63.9999985 magnetization      -0.0000000
 augmentation part        1.9715325 magnetization      -0.0000001

 Free energy of the ion-electron system (eV)
  ---------------------------------------------------
  alpha Z        PSCENC =         0.29396090
  Ewald energy   TEWEN  =      7477.74511483
  -Hartree energ DENC   =     -9358.87438861
  -exchange      EXHF   =       145.54992193
  -V(xc)+E(xc)   XCENC  =       169.02032704
  PAW double counting   =      6033.52201477    -6040.27534319
  entropy T*S    EENTRO =        -0.00000000
  eigenvalues    EBANDS =      -901.96546949
  atomic energy  EATOM  =      2294.08438695
  ---------------------------------------------------
  free energy    TOTEN  =      -174.69351342 eV

  energy without entropy =     -174.69351342  energy(sigma->0) =     -174.69351342
  exchange ACFDT corr.  =         0.00000000  see jH, gK, PRB 81, 115126


--------------------------------------------------------------------------------------------------------




--------------------------------------- Iteration      1(   8)  ---------------------------------------


    --------------------------------------------
      INIT:  cpu time      0.5763: real time      0.5763
  FINALIZE:  cpu time     63.4134: real time     63.4168
    --------------------------------------------
    POTLOK:  cpu time     82.7688: real time     82.7730
    SETDIJ:  cpu time      0.0717: real time      0.0717
    TRIAL :  cpu time    232.1411: real time    232.1542
    CORREC:  cpu time      0.0766: real time      0.0768
    CHARGE:  cpu time      3.1815: real time      3.1827
    --------------------------------------------
      LOOP:  cpu time    318.2450: real time    318.2756

 eigenvalue-minimisations  :     0
 total energy-change (2. order) :-0.2496259E-04  (-0.2266943E-04)
 number of electron      63.9999985 magnetization      -0.0000000
 augmentation part        1.9715285 magnetization      -0.0000003

 Free energy of the ion-electron system (eV)
  ---------------------------------------------------
  alpha Z        PSCENC =         0.29396090
  Ewald energy   TEWEN  =      7477.74511483
  -Hartree energ DENC   =     -9358.91268379
  -exchange      EXHF   =       145.55045858
  -V(xc)+E(xc)   XCENC  =       169.02132693
  PAW double counting   =      6033.14284054    -6039.89645127
  entropy T*S    EENTRO =        -0.00000000
  eigenvalues    EBANDS =      -901.92319734
  atomic energy  EATOM  =      2294.08438695
  ---------------------------------------------------
  free energy    TOTEN  =      -174.69353838 eV

  energy without entropy =     -174.69353838  energy(sigma->0) =     -174.69353838
  exchange ACFDT corr.  =         0.00000000  see jH, gK, PRB 81, 115126


--------------------------------------------------------------------------------------------------------




--------------------------------------- Iteration      1(   9)  ---------------------------------------


    --------------------------------------------
      INIT:  cpu time      0.5837: real time      0.5837
  FINALIZE:  cpu time     62.4195: real time     62.4227
    --------------------------------------------
    POTLOK:  cpu time     80.2716: real time     80.2757
    SETDIJ:  cpu time      0.0712: real time      0.0712
    TRIAL :  cpu time    235.4923: real time    235.5055
    CORREC:  cpu time      0.0075: real time      0.0075
    CHARGE:  cpu time      3.3754: real time      3.3755
    --------------------------------------------
      LOOP:  cpu time    319.2248: real time    319.2486

 eigenvalue-minimisations  :     0
 total energy-change (2. order) :-0.1210823E-04  (-0.8371013E-05)
 number of electron      63.9999985 magnetization      -0.0000000
 augmentation part        1.9715417 magnetization      -0.0000002

 Free energy of the ion-electron system (eV)
  ---------------------------------------------------
  alpha Z        PSCENC =         0.29396090
  Ewald energy   TEWEN  =      7477.74511483
  -Hartree energ DENC   =     -9358.85192711
  -exchange      EXHF   =       145.54851211
  -V(xc)+E(xc)   XCENC  =       169.01979606
  PAW double counting   =      6032.78329667    -6039.53684119
  entropy T*S    EENTRO =        -0.00000000
  eigenvalues    EBANDS =      -901.97785639
  atomic energy  EATOM  =      2294.08438695
  ---------------------------------------------------
  free energy    TOTEN  =      -174.69355049 eV

  energy without entropy =     -174.69355049  energy(sigma->0) =     -174.69355049
  exchange ACFDT corr.  =        -0.00000000  see jH, gK, PRB 81, 115126


--------------------------------------------------------------------------------------------------------




--------------------------------------- Iteration      1(  10)  ---------------------------------------


    --------------------------------------------
      INIT:  cpu time      1.3606: real time      1.3607
  FINALIZE:  cpu time     63.2245: real time     63.2269
    --------------------------------------------
    POTLOK:  cpu time     84.2078: real time     84.2109
    SETDIJ:  cpu time      0.0727: real time      0.0727
    TRIAL :  cpu time    232.8888: real time    232.8986
    CORREC:  cpu time      0.1118: real time      0.1118
    CHARGE:  cpu time      3.7475: real time      3.7477
    --------------------------------------------
      LOOP:  cpu time    321.0417: real time    321.0632

 eigenvalue-minimisations  :     0
 total energy-change (2. order) :-0.4518871E-05  (-0.2960922E-05)
 number of electron      63.9999985 magnetization      -0.0000000
 augmentation part        1.9715668 magnetization      -0.0000001

 Free energy of the ion-electron system (eV)
  ---------------------------------------------------
  alpha Z        PSCENC =         0.29396090
  Ewald energy   TEWEN  =      7477.74511483
  -Hartree energ DENC   =     -9358.83067854
  -exchange      EXHF   =       145.54806149
  -V(xc)+E(xc)   XCENC  =       169.01943324
  PAW double counting   =      6032.62065567    -6039.37423287
  entropy T*S    EENTRO =        -0.00000000
  eigenvalues    EBANDS =      -901.99794219
  atomic energy  EATOM  =      2294.08438695
  ---------------------------------------------------
  free energy    TOTEN  =      -174.69355501 eV

  energy without entropy =     -174.69355501  energy(sigma->0) =     -174.69355501
  exchange ACFDT corr.  =        -0.00000000  see jH, gK, PRB 81, 115126


--------------------------------------------------------------------------------------------------------


  average scaling for gradient   1.3534


 average (electrostatic) potential at core
  the test charge radii are     0.6991  0.7215  0.5201
  (the norm of the test charge is              1.0000)
       1 -55.1489       2 -55.1705       3 -54.9996       4 -55.1632       5 -55.1054
       6 -56.6721       7 -56.6721       8 -55.1054       9 -55.1632      10 -54.9996
      11 -55.1705      12 -55.1489      13 -75.4369      14 -38.1813      15 -38.0277
      16 -37.9517      17 -38.0252      18 -38.1092      19 -38.1094      20 -38.0255
      21 -37.9514      22 -38.0277      23 -38.1816
 
 
 
 E-fermi :  -5.8812     XC(G=0):  -0.0338     alpha+bet : -0.0243

 Fermi energy:        -5.8811669802

 spin component 1

 k-point     1 :       0.0000    0.0000    0.0000
  band No.  band energies     occupation 
      1     -29.9098      1.00000
      2     -23.9013      1.00000
      3     -23.5189      1.00000
      4     -21.1696      1.00000
      5     -20.8170      1.00000
      6     -20.7050      1.00000
      7     -20.0634      1.00000
      8     -17.5453      1.00000
      9     -17.0658      1.00000
     10     -16.7334      1.00000
     11     -16.0251      1.00000
     12     -15.0325      1.00000
     13     -14.0139      1.00000
     14     -13.3713      1.00000
     15     -13.1310      1.00000
     16     -12.8880      1.00000
     17     -12.2249      1.00000
     18     -12.0795      1.00000
     19     -11.6386      1.00000
     20     -11.6186      1.00000
     21     -11.1243      1.00000
     22     -10.9643      1.00000
     23     -10.1740      1.00000
     24      -9.9933      1.00000
     25      -9.8568      1.00000
     26      -9.7309      1.00000
     27      -9.2533      1.00000
     28      -9.0586      1.00000
     29      -7.2188      1.00000
     30      -7.0480      1.00000
     31      -6.9919      1.00000
     32      -6.1320      1.00000
     33      -1.0746      0.00000
     34      -0.8799      0.00000
     35      -0.6544      0.00000
     36      -0.3876      0.00000
     37      -0.3501      0.00000
     38      -0.1144      0.00000
     39       0.0406      0.00000
     40       0.0614      0.00000
     41       0.0320      0.00000
     42       0.1139      0.00000
     43       0.1177      0.00000
     44       0.1326      0.00000
     45       0.1400      0.00000
     46       0.1449      0.00000
     47       0.1511      0.00000
     48       0.2046      0.00000
     49       0.2015      0.00000
     50       0.2029      0.00000
     51       0.2083      0.00000
     52       0.2111      0.00000
     53       0.2122      0.00000
     54       0.2122      0.00000
     55       0.2123      0.00000
     56       0.2546      0.00000
     57       0.2806      0.00000
     58       0.5943      0.00000
     59       0.3392      0.00000
     60       0.4717      0.00000
     61       0.4245      0.00000
     62       0.3819      0.00000
     63       0.3204      0.00000
 Fermi energy:        -5.8811669802

 spin component 2

 k-point     1 :       0.0000    0.0000    0.0000
  band No.  band energies     occupation 
      1     -29.9098      1.00000
      2     -23.9013      1.00000
      3     -23.5189      1.00000
      4     -21.1696      1.00000
      5     -20.8170      1.00000
      6     -20.7050      1.00000
      7     -20.0634      1.00000
      8     -17.5453      1.00000
      9     -17.0658      1.00000
     10     -16.7334      1.00000
     11     -16.0251      1.00000
     12     -15.0325      1.00000
     13     -14.0139      1.00000
     14     -13.3713      1.00000
     15     -13.1310      1.00000
     16     -12.8880      1.00000
     17     -12.2249      1.00000
     18     -12.0795      1.00000
     19     -11.6386      1.00000
     20     -11.6186      1.00000
     21     -11.1243      1.00000
     22     -10.9643      1.00000
     23     -10.1740      1.00000
     24      -9.9933      1.00000
     25      -9.8568      1.00000
     26      -9.7309      1.00000
     27      -9.2533      1.00000
     28      -9.0586      1.00000
     29      -7.2188      1.00000
     30      -7.0480      1.00000
     31      -6.9919      1.00000
     32      -6.1320      1.00000
     33      -1.0746      0.00000
     34      -0.8799      0.00000
     35      -0.6544      0.00000
     36      -0.3876      0.00000
     37      -0.3501      0.00000
     38      -0.1144      0.00000
     39       0.0406      0.00000
     40       0.0614      0.00000
     41       0.0320      0.00000
     42       0.1139      0.00000
     43       0.1177      0.00000
     44       0.1326      0.00000
     45       0.1399      0.00000
     46       0.1449      0.00000
     47       0.1511      0.00000
     48       0.2047      0.00000
     49       0.2015      0.00000
     50       0.2031      0.00000
     51       0.2083      0.00000
     52       0.2111      0.00000
     53       0.2122      0.00000
     54       0.2122      0.00000
     55       0.2123      0.00000
     56       0.2550      0.00000
     57       0.2935      0.00000
     58       0.3986      0.00000
     59       0.4671      0.00000
     60       0.3749      0.00000
     61       0.4345      0.00000
     62       0.3072      0.00000
     63       0.3543      0.00000


--------------------------------------------------------------------------------------------------------


 soft charge-density along one line, spin component           1
         0         1         2         3         4         5         6         7         8         9
 total charge-density along one line
 
 soft charge-density along one line, spin component           2
         0         1         2         3         4         5         6         7         8         9
 total charge-density along one line
 
 pseudopotential strength for first ion, spin component:           1
  9.994  13.288   0.001  -0.001   0.000  -0.004   0.004  -0.001
 13.288  17.668   0.001  -0.002   0.000  -0.005   0.006  -0.001
  0.001   0.001  -4.212   0.002   0.001   8.212  -0.002  -0.001
 -0.001  -0.002   0.002  -4.211   0.000  -0.002   8.212   0.000
  0.000   0.000   0.001   0.000  -4.211  -0.001   0.000   8.211
 -0.004  -0.005   8.212  -0.002  -0.001 -18.126   0.001   0.000
  0.004   0.006  -0.002   8.212   0.000   0.001 -18.131  -0.002
 -0.001  -0.001  -0.001   0.000   8.211   0.000  -0.002 -18.123
 pseudopotential strength for first ion, spin component:           2
  9.994  13.288   0.001  -0.001   0.000  -0.004   0.004  -0.001
 13.288  17.668   0.001  -0.002   0.000  -0.005   0.006  -0.001
  0.001   0.001  -4.212   0.002   0.001   8.212  -0.002  -0.001
 -0.001  -0.002   0.002  -4.211   0.000  -0.002   8.212   0.000
  0.000   0.000   0.001   0.000  -4.211  -0.001   0.000   8.211
 -0.004  -0.005   8.212  -0.002  -0.001 -18.126   0.001   0.000
  0.004   0.006  -0.002   8.212   0.000   0.001 -18.131  -0.002
 -0.001  -0.001  -0.001   0.000   8.211   0.000  -0.002 -18.123
 total augmentation occupancy for first ion, spin component:           1
  8.910  -4.047   0.116  -0.138   0.182   0.025  -0.029   0.037
 -4.047   1.875  -0.083   0.099  -0.113  -0.016   0.018  -0.022
  0.116  -0.083   1.655  -0.264  -0.115   0.148  -0.043  -0.020
 -0.138   0.099  -0.264   1.403  -0.094  -0.043   0.110  -0.013
  0.182  -0.113  -0.115  -0.094   1.795  -0.020  -0.013   0.167
  0.025  -0.016   0.148  -0.043  -0.020   0.014  -0.006  -0.003
 -0.029   0.018  -0.043   0.110  -0.013  -0.006   0.009  -0.001
  0.037  -0.022  -0.020  -0.013   0.167  -0.003  -0.001   0.016
 total augmentation occupancy for first ion, spin component:           2
 -0.000   0.000  -0.000   0.000  -0.000  -0.000   0.000  -0.000
  0.000  -0.000   0.000  -0.000   0.000   0.000  -0.000   0.000
 -0.000   0.000  -0.000   0.000  -0.000   0.000   0.000   0.000
  0.000  -0.000   0.000  -0.000   0.000  -0.000   0.000  -0.000
 -0.000   0.000  -0.000   0.000  -0.000   0.000  -0.000  -0.000
 -0.000   0.000   0.000  -0.000   0.000   0.000  -0.000   0.000
  0.000  -0.000   0.000   0.000  -0.000  -0.000   0.000  -0.000
 -0.000   0.000   0.000  -0.000  -0.000   0.000  -0.000   0.000


------------------------ aborting loop because EDIFF is reached ----------------------------------------


    FORLOC:  cpu time      0.3549: real time      0.3549
    FORHF :  cpu time    113.8130: real time    113.8216
    FORNL :  cpu time      5.4460: real time      5.4463
    STRESS:  cpu time     16.6304: real time     16.6313
    FORCOR:  cpu time     16.5212: real time     16.5219
    OFIELD:  cpu time      0.0193: real time      0.0193
 WARNING: Using user supplied parameters
     VDW_A1 = 0.383
     VDW_A2 = 5.685
     VDW_S8 = 2.31
     because the xc functional is not supported. Required parameters not
     defined in the INCAR file will be replaced with PBE defaults ones.


 ---------------------------------------------------------------------------------------------

         DFTD3 V3.0 Rev 1        
 IVDW         = 12
 DF unknown   
 parameters
 VDW_S6       =    1.0000
 VDW_S8       =    2.3100
 VDW_A1       =    0.3830
 VDW_A2       =    5.6850
 k1-k3        =   16.0000    1.3333   -4.0000
 VDW_RADIUS   =   50.2022 A
 VDW_CNRADIUS =   21.1671 A
 Edisp (eV)   -0.49683

 E6    (eV) :    -0.2538
 E8    (eV) :    -0.2430
 % E8        : 48.92
    FORVDW:  cpu time      0.0104: real time      0.0105

  FORCE on cell =-STRESS in cart. coord.  units (eV):
  Direction    XX          YY          ZZ          XY          YZ          ZX
  --------------------------------------------------------------------------------------
  Alpha Z     0.29396     0.29396     0.29396
  Ewald    5094.00670  1867.02500   516.71229    -0.00099    -0.01936  -373.33833
  Hartree  5161.50239  2526.22714  1665.16393     0.00768    -0.00575  -177.34931
  E(xc)    -180.64632  -181.72143  -182.83629    -0.00005    -0.00002    -0.45425
  Local  -10857.50082 -5042.81311 -2882.55674    -0.00499     0.02284   529.93583
  n-local   -80.92633   -82.58278   -81.09777     0.00077     0.00062     1.16131
  augment     1.76707     3.33855     4.31461    -0.00010    -0.00004    -0.05664
  Kinetic   923.44005   972.44027  1022.21445     0.00036     0.00075    19.87016
  Fock      -68.16380   -66.67687   -64.42456     0.00011     0.00012     1.29658
  vdW        -0.30180    -0.07213    -0.04123    -0.00001     0.00000    -0.01422
  -------------------------------------------------------------------------------------
  Total      -6.52891    -4.54141    -2.25735     0.00000     0.00000     1.05113
  in kB      -0.16344    -0.11369    -0.05651     0.00000     0.00000     0.02631
  external pressure =       -0.11 kB  Pullay stress =        0.00 kB


 VOLUME and BASIS-vectors are now :
 -----------------------------------------------------------------------------
  energy-cutoff  :      500.00
  volume of cell :    64000.00
      direct lattice vectors                 reciprocal lattice vectors
    40.000000000  0.000000000  0.000000000     0.025000000  0.000000000  0.000000000
     0.000000000 40.000000000  0.000000000     0.000000000  0.025000000  0.000000000
     0.000000000  0.000000000 40.000000000     0.000000000  0.000000000  0.025000000

  length of vectors
    40.000000000 40.000000000 40.000000000     0.025000000  0.025000000  0.025000000


 FORCES acting on ions:
    Electron-Ion                     Ewald-Force                    Non-Local-Force
 -----------------------------------------------------------------------------------------------
   0.177E+02 0.123E+03 -.134E+03   -.181E+02 -.124E+03 0.136E+03   0.482E+00 0.116E+01 -.135E+01
   -.917E+02 0.176E+03 -.113E+03   0.924E+02 -.177E+03 0.113E+03   -.614E+00 0.911E+00 -.431E+00
   -.218E+03 0.904E+02 -.105E+02   0.219E+03 -.909E+02 0.105E+02   -.111E+01 0.511E+00 -.570E-01
   -.204E+03 -.723E+02 0.935E+02   0.205E+03 0.723E+02 -.937E+02   -.109E+01 -.127E+00 0.325E+00
   -.923E+02 -.164E+03 0.116E+03   0.928E+02 0.165E+03 -.117E+03   -.494E+00 -.118E+01 0.124E+01
   -.675E+02 -.320E+02 -.556E+01   0.739E+02 0.285E+02 0.562E+01   -.613E+01 0.337E+01 -.400E-01
   0.675E+02 -.320E+02 0.555E+01   -.739E+02 0.285E+02 -.561E+01   0.613E+01 0.337E+01 0.400E-01
   0.923E+02 -.164E+03 -.116E+03   -.928E+02 0.165E+03 0.117E+03   0.494E+00 -.118E+01 -.124E+01
   0.204E+03 -.723E+02 -.934E+02   -.205E+03 0.723E+02 0.937E+02   0.109E+01 -.127E+00 -.325E+00
   0.218E+03 0.904E+02 0.105E+02   -.219E+03 -.909E+02 -.106E+02   0.111E+01 0.511E+00 0.570E-01
   0.917E+02 0.176E+03 0.113E+03   -.924E+02 -.177E+03 -.113E+03   0.614E+00 0.911E+00 0.431E+00
   -.177E+02 0.123E+03 0.134E+03   0.182E+02 -.124E+03 -.136E+03   -.482E+00 0.116E+01 0.135E+01
   0.138E-01 -.314E+03 -.133E-01   -.173E-01 0.358E+03 0.149E-01   0.000E+00 -.389E+02 0.000E+00
   -.360E+02 0.498E+02 0.603E+02   0.404E+02 -.521E+02 -.631E+02   -.437E+01 0.224E+01 0.281E+01
   0.222E+02 0.740E+02 0.478E+02   -.229E+02 -.787E+02 -.509E+02   0.683E+00 0.471E+01 0.303E+01
   0.822E+02 0.377E+02 0.374E+01   -.872E+02 -.402E+02 -.396E+01   0.506E+01 0.248E+01 0.222E+00
   0.737E+02 -.335E+02 -.417E+02   -.780E+02 0.358E+02 0.444E+02   0.435E+01 -.228E+01 -.279E+01
   0.117E+02 -.770E+02 -.514E+02   -.109E+02 0.818E+02 0.544E+02   -.832E+00 -.472E+01 -.299E+01
   -.117E+02 -.770E+02 0.514E+02   0.109E+02 0.818E+02 -.544E+02   0.832E+00 -.472E+01 0.299E+01
   -.736E+02 -.335E+02 0.417E+02   0.780E+02 0.358E+02 -.445E+02   -.435E+01 -.228E+01 0.279E+01
   -.822E+02 0.377E+02 -.374E+01   0.872E+02 -.402E+02 0.396E+01   -.506E+01 0.248E+01 -.222E+00
   -.222E+02 0.740E+02 -.478E+02   0.229E+02 -.787E+02 0.509E+02   -.683E+00 0.471E+01 -.303E+01
   0.360E+02 0.498E+02 -.603E+02   -.404E+02 -.520E+02 0.631E+02   0.437E+01 0.224E+01 -.281E+01
 -----------------------------------------------------------------------------------------------
   -.344E-02 0.297E+02 0.324E-03   -.782E-13 -.121E-12 -.568E-13   0.000E+00 -.247E+02 0.444E-15
 
 
 POSITION                                       TOTAL-FORCE (eV/Angst)
 -----------------------------------------------------------------------------------
     21.36807     19.47570     20.79152         0.112610      0.135760     -0.132032
     22.62533     18.87046     20.83884        -0.011485      0.176413     -0.119100
     23.71051     19.42373     20.15223        -0.217157      0.109129     -0.010112
     23.53161     20.59705     19.41296        -0.164339     -0.100183      0.102913
     22.27786     21.20926     19.35025        -0.039832     -0.184825      0.119560
     21.20077     20.64362     20.03848        -0.026968      0.029159      0.013334
     18.79922     20.64352     19.96159         0.026968      0.029159     -0.013334
     17.72204     21.20918     20.64970         0.039832     -0.184825     -0.119560
     16.46831     20.59699     20.58688         0.164339     -0.100183     -0.102913
     16.28946     19.42360     19.84767         0.217157      0.109129      0.010112
     17.37478     18.87031     19.16121         0.011485      0.176413      0.119100
     18.63197     19.47556     19.20866        -0.112610      0.135760      0.132032
     19.99998     21.33860     20.00007        -0.000000     -0.542505     -0.000000
     19.47623     19.04765     18.66823        -0.192882      0.104438      0.129981
     17.24410     17.95975     18.57496         0.029795      0.215707      0.140066
     15.31201     18.94411     19.80482         0.216896      0.109817      0.010295
     15.62877     21.03846     21.12592         0.207104     -0.108394     -0.134180
     17.88067     22.12098     21.22576        -0.037263     -0.215769     -0.142876
     22.11914     22.12095     18.77406         0.037263     -0.215769      0.142876
     24.37106     21.03846     18.87382        -0.207104     -0.108394      0.134180
     24.68801     18.94426     20.19505        -0.216896      0.109817     -0.010295
     22.75608     17.95999     21.42518        -0.029795      0.215707     -0.140066
     20.52393     19.04784     21.33210         0.192882      0.104438     -0.129981
 -----------------------------------------------------------------------------------
    total drift:                               -0.003444      0.014214      0.000324


--------------------------------------------------------------------------------------------------------



  FREE ENERGIE OF THE ION-ELECTRON SYSTEM (eV)
  ---------------------------------------------------
  free  energy   TOTEN  =      -175.19038566 eV

  energy  without entropy=     -175.19038566  energy(sigma->0) =     -175.19038566
 


--------------------------------------------------------------------------------------------------------


    --------------------------------------------
      INIT:  cpu time      0.4051: real time      0.4051
  FINALIZE:  cpu time     62.4838: real time     62.4861
    --------------------------------------------
    POTLOK:  cpu time     82.4025: real time     82.4056


--------------------------------------------------------------------------------------------------------


 writing wavefunctions
     LOOP+:  cpu time   3474.1656: real time   3476.4684
    4ORBIT:  cpu time      0.0000: real time      0.0000

 total amount of memory used by VASP MPI-rank0  3442776. kBytes
=======================================================================

   base      :      30000. kBytes
   nonlr-proj:       3746. kBytes
   fftplans  :     224335. kBytes
   grid      :     421299. kBytes
   one-center:         18. kBytes
   HF        :          9. kBytes
   wavefun   :     109200. kBytes
   fock_wrk  :    2654169. kBytes
 
  
  
 General timing and accounting informations for this job:
 ========================================================
  
                  Total CPU time used (sec):     3534.530
                            User time (sec):     2186.275
                          System time (sec):     1348.254
                         Elapsed time (sec):     3537.850
  
                   Maximum memory used (kb):     5125388.
                   Average memory used (kb):          N/A
  
                          Minor page faults:     37779361
                          Major page faults:            0
                 Voluntary context switches:         3561
