
                                 *****************
                                 * O   R   C   A *
                                 *****************

                                            #,                                       
                                            ###                                      
                                            ####                                     
                                            #####                                    
                                            ######                                   
                                           ########,                                 
                                     ,,################,,,,,                         
                               ,,#################################,,                 
                          ,,##########################################,,             
                       ,#########################################, ''#####,          
                    ,#############################################,,   '####,        
                  ,##################################################,,,,####,       
                ,###########''''           ''''###############################       
              ,#####''   ,,,,##########,,,,          '''####'''          '####       
            ,##' ,,,,###########################,,,                        '##       
           ' ,,###''''                  '''############,,,                           
         ,,##''                                '''############,,,,        ,,,,,,###''
      ,#''                                            '''#######################'''  
     '                                                          ''''####''''         
             ,#######,   #######,   ,#######,      ##                                
            ,#'     '#,  ##    ##  ,#'     '#,    #''#        ,####,   ,####,        
            ##       ##  ##   ,#'  ##            #'  '#       #'       #'  '#        
            ##       ##  #######   ##           ,######,      #####,   #    #        
            '#,     ,#'  ##    ##  '#,     ,#' ,#      #,     #,   #   #,  ,#        
             '#######'   ##     ##  '#######'  #'      '#     '####' # '####'        



                #########################################################
                #                        -***-                          #
                #          Department of theory and spectroscopy        #
                #                                                       #
                #                      Frank Neese                      #
                #                                                       #
                #     Directorship, Architecture, Infrastructure        #
                #                    SHARK, DRIVERS                     #
                #        Core code/Algorithms in most modules           #
                #                                                       #
                #        Max Planck Institute fuer Kohlenforschung      #
                #                Kaiser Wilhelm Platz 1                 #
                #                 D-45470 Muelheim/Ruhr                 #
                #                      Germany                          #
                #                                                       #
                #                  All rights reserved                  #
                #                        -***-                          #
                #########################################################


                         Program Version 6.0.0  -   RELEASE  -


 With contributions from (in alphabetic order):
   Daniel Aravena         : Magnetic Suceptibility
   Michael Atanasov       : Ab Initio Ligand Field Theory (pilot matlab implementation)
   Alexander A. Auer      : GIAO ZORA, VPT2 properties, NMR spectrum
   Ute Becker             : All parallelization in ORCA, NUMFREQ, NUMCALC
   Giovanni Bistoni       : ED, misc. LED, open-shell LED, HFLD
   Martin Brehm           : Molecular dynamics
   Dmytro Bykov           : pre 5.0 version of the SCF Hessian
   Marcos Casanova-Páez   : Triplet and SCS-CIS(D). UHF-(DLPNO)-IP/EA/STEOM-CCSD. UHF-CVS-IP/STEOM-CCSD
   Vijay G. Chilkuri      : MRCI spin determinant printing, contributions to CSF-ICE
   Pauline Colinet        : FMM embedding
   Dipayan Datta          : RHF DLPNO-CCSD density
   Achintya Kumar Dutta   : EOM-CC, STEOM-CC
   Nicolas Foglia         : Exact transition moments, OPA infrastructure, MCD improvements
   Dmitry Ganyushin       : Spin-Orbit,Spin-Spin,Magnetic field MRCI
   Miquel Garcia          : C-PCM and meta-GGA Hessian, CCSD/C-PCM, Gaussian charge scheme
   Tiago L. C. Gouveia    : GS-ROHF, GS-ROCIS
   Yang Guo               : DLPNO-NEVPT2, F12-NEVPT2, CIM, IAO-localization
   Andreas Hansen         : Spin unrestricted coupled pair/coupled cluster methods
   Ingolf Harden          : AUTO-CI MPn and infrastructure 
   Benjamin Helmich-Paris : MC-RPA, TRAH-(SCF,CASSCF), AVAS, COSX integrals, SCF dyn. polar.
   Lee Huntington         : MR-EOM, pCC
   Robert Izsak           : Overlap fitted RIJCOSX, COSX-SCS-MP3, EOM
   Riya Kayal             : Wick's Theorem for AUTO-CI, AUTO-CI UHF-CCSDT
   Emily Kempfer          : AUTO-CI, RHF CISDT and CCSDT
   Christian Kollmar      : KDIIS, OOCD, Brueckner-CCSD(T), CCSD density, CASPT2, CASPT2-K, improved NEVPT2
   Axel Koslowski         : Symmetry handling
   Simone Kossmann        : Meta GGA functionals, TD-DFT gradient, OOMP2, (MP2 Hessian; deprecated post 5.0)
   Lucas Lang             : DCDCAS
   Marvin Lechner         : AUTO-CI (C++ implementation), FIC-MRCC
   Spencer Leger          : CASSCF response
   Dagmar Lenk            : GEPOL surface, SMD, ORCA-2-JSON
   Dimitrios Liakos       : Extrapolation schemes; Compound Job, initial MDCI parallelization
   Dimitrios Manganas     : Further ROCIS development; embedding schemes. LFT, Crystal Embedding
   Dimitrios Pantazis     : SARC Basis sets
   Anastasios Papadopoulos: AUTO-CI, single reference methods and gradients
   Taras Petrenko         : pre 6.0 DFT Hessian and TD-DFT gradient, (ASA, deprecated), ECA, 1-Electron XAS/XES, NRVS
   Peter Pinski           : DLPNO-MP2, DLPNO-MP2 Gradient
   Christoph Reimann      : Effective Core Potentials
   Marius Retegan         : Local ZFS, SOC
   Christoph Riplinger    : Optimizer, TS searches, QM/MM, DLPNO-CCSD(T), (RO)-DLPNO pert. Triples
   Michael Roemelt        : Original ROCIS implementation
   Masaaki Saitow         : Open-shell DLPNO-CCSD energy and density
   Barbara Sandhoefer     : DKH picture change effects
   Kantharuban Sivalingam : CASSCF convergence/infrastructure, NEVPT2 and variants, FIC-MRCI
   Bernardo de Souza      : ESD, SOC TD-DFT
   Georgi Stoychev        : AutoAux, RI-MP2 NMR, DLPNO-MP2 response, X2C
   Van Anh Tran           : RI-MP2 g-tensors
   Willem Van den Heuvel  : Paramagnetic NMR
   Zikuan Wang            : NOTCH, Electric field optimization 
   Frank Wennmohs         : Technical directorship and infrastructure
   Hang Xu                : AUTO-CI-Response properties 


 We gratefully acknowledge several colleagues who have allowed us to
 interface, adapt or use parts of their codes:
   Stefan Grimme, W. Hujo, H. Kruse, P. Pracht,  : VdW corrections, initial TS optimization,
                  C. Bannwarth, S. Ehlert,         DFT functionals, gCP, sTDA/sTD-DF
                  L. Wittmann, M. Mueller
   Ed Valeev, F. Pavosevic, A. Kumar             : LibInt (2-el integral package), F12 methods
   Garnet Chan, S. Sharma, J. Yang, R. Olivares  : DMRG
   Ulf Ekstrom                                   : XCFun DFT Library
   Mihaly Kallay                                 : mrcc  (arbitrary order and MRCC methods)
   Frank Weinhold                                : gennbo (NPA and NBO analysis)
   Simon Mueller                                 : openCOSMO-RS
   Christopher J. Cramer and Donald G. Truhlar   : smd solvation model
   Lars Goerigk                                  : TD-DFT with DH, B97 family of functionals
   V. Asgeirsson, H. Jonsson                     : NEB implementation
   FAccTs GmbH                                   : IRC, NEB, NEB-TS, DLPNO-Multilevel, CI-OPT
                                                   MM, QMMM, 2- and 3-layer-ONIOM, Crystal-QMMM,
                                                   LR-CPCM, SF, NACMEs, symmetry and pop. for TD-DFT,
                                                   nearIR, NL-DFT gradient (VV10), updates on ESD,
                                                   ML-optimized integration grids, MBIS, APM,
                                                   GOAT, DOCKER, SOLVATOR, interface openCOSMO-RS
   S Lehtola, MJT Oliveira, MAL Marques          : LibXC Library
   Liviu Ungur et al                             : ANISO software


 Your calculation uses the libint2 library for the computation of 2-el integrals
 For citations please refer to: http://libint.valeyev.net

 Your ORCA version has been built with support for libXC version: 6.2.2
 For citations please refer to: https://libxc.gitlab.io

 This ORCA versions uses:
   CBLAS   interface :  Fast vector & matrix operations
   LAPACKE interface :  Fast linear algebra routines
   SCALAPACK package :  Parallel linear algebra routines
   Shared memory     :  Shared parallel matrices
   BLAS/LAPACK       :  OpenBLAS 0.3.27  USE64BITINT DYNAMIC_ARCH NO_AFFINITY SkylakeX SINGLE_THREADED
        Core in use  :  SkylakeX
   Copyright (c) 2011-2014, The OpenBLAS Project


NOTE: MaxCore=3000 MB was set to SCF,MP2,MDCI,CIPSI,MRCI and CIS
      => If you want to overwrite this, your respective input block should be placed after the MaxCore statement
Your calculation utilizes the atom-pairwise dispersion correction
with the Becke-Johnson damping scheme (D3BJ)


Your calculation utilizes the SMD solvation module
Please cite in your paper:
A.V. Marenich, C.J. Cramer, D.G. Truhlar J. Phys. Chem. B, 113, (2009), 6378 

Warning: RI is on but no J-basis has been assigned. Assigning Def2/J (nothing to worry about!)
================================================================================

----- Orbital basis set information -----
Your calculation utilizes the basis: aug-cc-pVTZ 
    H, B-Ne : Obtained from the ccRepo (grant-hill.group.shef.ac.uk/ccrepo) Feb. 2017
              R. A. Kendall, T. H. Dunning, Jr., R. J. Harrison, J. Chem. Phys. 96, 6796 (1992)
         He : Obtained from the ccRepo (grant-hill.group.shef.ac.uk/ccrepo) Feb. 2017
              D. E. Woon, T. H. Dunning, Jr., J. Chem. Phys. 100, 2975 (1994)
  Li-Be, Na : Obtained from the ccRepo (grant-hill.group.shef.ac.uk/ccrepo) Feb. 2017
              B. P. Prascher, D. E. Woon, K. A. Peterson, T. H. Dunning, Jr., A. K. Wilson, Theor. Chem. Acc. 128, 69 (2011)
         Mg : Obtained from the Peterson Research Group Website (tyr0.chem.wsu.edu/~kipeters) Feb. 2017
              B. P. Prascher, D. E. Woon, K. A. Peterson, T. H. Dunning, Jr., A. K. Wilson, Theor. Chem. Acc. 128, 69 (2011)
      Al-Ar : Obtained from the ccRepo (grant-hill.group.shef.ac.uk/ccrepo) Feb. 2017
              D. E. Woon, T. H. Dunning, Jr., J. Chem. Phys. 98, 1358 (1993)
      Sc-Zn : Obtained from the ccRepo (grant-hill.group.shef.ac.uk/ccrepo) Feb. 2017
              N. B. Balabanov, K. A. Peterson, J. Chem. Phys. 123, 064107 (2005)
              N. B. Balabanov, K. A. Peterson, J. Chem. Phys. 125, 074110 (2006)
      Ga-Kr : Obtained from the ccRepo (grant-hill.group.shef.ac.uk/ccrepo) Feb. 2017
              A. K. Wilson, D. E. Woon, K. A. Peterson, T. H. Dunning, Jr., J. Chem. Phys. 110, 7667 (1999)
     Ag, Au : Obtained from the Peterson Research Group Website (tyr0.chem.wsu.edu/~kipeters) Feb. 2017
              K. A. Peterson, C. Puzzarini, Theor. Chem. Acc. 114, 283 (2005)

----- AuxJ basis set information -----
Your calculation utilizes the auxiliary basis: def2/J
   F. Weigend, Phys. Chem. Chem. Phys. 8, 1057 (2006).

================================================================================
                                        WARNINGS
                       Please study these warnings very carefully!
================================================================================


================================================================================
                                       INPUT FILE
================================================================================
NAME = cs_rporg_184_ox_solv_04.inp
|  1> !PBE0 aug-cc-pVTZ d3 TightSCF SlowConv RIJCOSX defgrid2
|  2>  
|  3> %pal
|  4> nprocs 4
|  5> end
|  6>  
|  7> %scf
|  8> MaxIter 1500
|  9> end
| 10>  
| 11> %maxcore 3000
| 12>  
| 13> !CPCM
| 14> %cpcm smd true
| 15> SMDsolvent "MeCN"
| 16> surfacetype gepol_ses
| 17> rsolv 2.19
| 18> end 
| 19>  
| 20> * xyz 1 1
| 21> S          -0.00010944424839      1.35688622383581     -0.00045588940143
| 22> C          -1.36031372365063      0.28664543166242     -0.00546340006884
| 23> C          -2.62476671337193      0.84705677005335     -0.00971453464717
| 24> C          -3.78353785154568      0.02886102280580     -0.01423429397565
| 25> C          -3.60107018284620     -1.39624179093014     -0.01297231605589
| 26> C          -2.35199681392559     -1.94146658195771     -0.00876136479511
| 27> H          -2.20685076914384     -3.02424367637830     -0.00793305758699
| 28> C          -1.17128315978886     -1.13818915246922     -0.00497020504615
| 29> N          -0.00001727096531     -1.76076243632930     -0.00102819010967
| 30> C           1.17121135470124     -1.13812134734186      0.00317013049378
| 31> C           2.35197256200709     -1.94133049036071      0.00663254829317
| 32> C           3.60101296929016     -1.39603417388084      0.01111542619478
| 33> C           3.78339829568492      0.02907907789014      0.01307239629264
| 34> C           2.62457944996628      0.84720769458296      0.00871634184597
| 35> C           1.36015864778127      0.28672353397519      0.00420556171077
| 36> H           2.71641587399496      1.93353835850929      0.00870793171486
| 37> N           5.01788004531514      0.56609746843354      0.01833544940540
| 38> C           5.18814133491822      2.00584377316990      0.01634403450098
| 39> H           4.74542942133653      2.46193420678108     -0.88734870267485
| 40> H           4.72786575445769      2.46596005134639      0.90894953027437
| 41> H           6.25942535209398      2.24475285672826      0.02662709311567
| 42> C           6.19613286716415     -0.28271908536379      0.01876057872020
| 43> H           7.09315770451857      0.34984666853403      0.03069035539786
| 44> H           6.22593666634906     -0.93099154946415      0.91190332484387
| 45> H           6.23822191663831     -0.91632293624570     -0.88458991452958
| 46> H           4.46615171425756     -2.05841324252657      0.01286181646995
| 47> H           2.20688865714732     -3.02411577980646      0.00525686441104
| 48> H          -4.46616949026249     -2.05867393830664     -0.01518022916305
| 49> N          -5.01805188093167      0.56580837981430     -0.01910492853996
| 50> C          -6.19625511800718     -0.28307615883811     -0.01957513903852
| 51> H          -6.23708281763836     -0.91821943273873      0.88272679402223
| 52> H          -6.22732906825129     -0.92976319747341     -0.91384668889601
| 53> H          -7.09331253060909      0.34948868396873     -0.02891629923048
| 54> C          -5.18838315405153      2.00554867169595     -0.01756056694950
| 55> H          -4.74545392382641      2.46196127570139      0.88586029063703
| 56> H          -4.72835954265605      2.46538730377880     -0.91044348638837
| 57> H          -6.25968060226678      2.24440376590571     -0.02761767922995
| 58> H          -2.71666652963520      1.93338075123861     -0.00930728201738
| 59> *
| 60> 
| 61>                          ****END OF INPUT****
================================================================================

                       ****************************
                       * Single Point Calculation *
                       ****************************

---------------------------------
CARTESIAN COORDINATES (ANGSTROEM)
---------------------------------
  S     -0.000109    1.356886   -0.000456
  C     -1.360314    0.286645   -0.005463
  C     -2.624767    0.847057   -0.009715
  C     -3.783538    0.028861   -0.014234
  C     -3.601070   -1.396242   -0.012972
  C     -2.351997   -1.941467   -0.008761
  H     -2.206851   -3.024244   -0.007933
  C     -1.171283   -1.138189   -0.004970
  N     -0.000017   -1.760762   -0.001028
  C      1.171211   -1.138121    0.003170
  C      2.351973   -1.941330    0.006633
  C      3.601013   -1.396034    0.011115
  C      3.783398    0.029079    0.013072
  C      2.624579    0.847208    0.008716
  C      1.360159    0.286724    0.004206
  H      2.716416    1.933538    0.008708
  N      5.017880    0.566097    0.018335
  C      5.188141    2.005844    0.016344
  H      4.745429    2.461934   -0.887349
  H      4.727866    2.465960    0.908950
  H      6.259425    2.244753    0.026627
  C      6.196133   -0.282719    0.018761
  H      7.093158    0.349847    0.030690
  H      6.225937   -0.930992    0.911903
  H      6.238222   -0.916323   -0.884590
  H      4.466152   -2.058413    0.012862
  H      2.206889   -3.024116    0.005257
  H     -4.466169   -2.058674   -0.015180
  N     -5.018052    0.565808   -0.019105
  C     -6.196255   -0.283076   -0.019575
  H     -6.237083   -0.918219    0.882727
  H     -6.227329   -0.929763   -0.913847
  H     -7.093313    0.349489   -0.028916
  C     -5.188383    2.005549   -0.017561
  H     -4.745454    2.461961    0.885860
  H     -4.728360    2.465387   -0.910443
  H     -6.259681    2.244404   -0.027618
  H     -2.716667    1.933381   -0.009307

----------------------------
CARTESIAN COORDINATES (A.U.)
----------------------------
  NO LB      ZA    FRAG     MASS         X           Y           Z
   0 S    16.0000    0    32.060   -0.000207    2.564143   -0.000862
   1 C     6.0000    0    12.011   -2.570620    0.541681   -0.010324
   2 C     6.0000    0    12.011   -4.960090    1.600705   -0.018358
   3 C     6.0000    0    12.011   -7.149850    0.054539   -0.026899
   4 C     6.0000    0    12.011   -6.805036   -2.638515   -0.024514
   5 C     6.0000    0    12.011   -4.444630   -3.668840   -0.016557
   6 H     1.0000    0     1.008   -4.170344   -5.714992   -0.014991
   7 C     6.0000    0    12.011   -2.213404   -2.150866   -0.009392
   8 N     7.0000    0    14.007   -0.000033   -3.327359   -0.001943
   9 C     6.0000    0    12.011    2.213269   -2.150738    0.005991
  10 C     6.0000    0    12.011    4.444584   -3.668583    0.012534
  11 C     6.0000    0    12.011    6.804928   -2.638122    0.021005
  12 C     6.0000    0    12.011    7.149587    0.054951    0.024703
  13 C     6.0000    0    12.011    4.959736    1.600991    0.016471
  14 C     6.0000    0    12.011    2.570327    0.541829    0.007947
  15 H     1.0000    0     1.008    5.133282    3.653858    0.016456
  16 N     7.0000    0    14.007    9.482419    1.069769    0.034649
  17 C     6.0000    0    12.011    9.804166    3.790495    0.030886
  18 H     1.0000    0     1.008    8.967562    4.652381   -1.676846
  19 H     1.0000    0     1.008    8.934371    4.659989    1.717666
  20 H     1.0000    0     1.008   11.828600    4.241968    0.050318
  21 C     6.0000    0    12.011   11.708994   -0.534262    0.035452
  22 H     1.0000    0     1.008   13.404125    0.661114    0.057996
  23 H     1.0000    0     1.008   11.765315   -1.759319    1.723248
  24 H     1.0000    0     1.008   11.788531   -1.731599   -1.671633
  25 H     1.0000    0     1.008    8.439804   -3.889837    0.024305
  26 H     1.0000    0     1.008    4.170415   -5.714751    0.009934
  27 H     1.0000    0     1.008   -8.439837   -3.890330   -0.028686
  28 N     7.0000    0    14.007   -9.482744    1.069223   -0.036103
  29 C     6.0000    0    12.011  -11.709225   -0.534936   -0.036992
  30 H     1.0000    0     1.008  -11.786378   -1.735183    1.668112
  31 H     1.0000    0     1.008  -11.767946   -1.756998   -1.726920
  32 H     1.0000    0     1.008  -13.404418    0.660438   -0.054644
  33 C     6.0000    0    12.011   -9.804623    3.789938   -0.033185
  34 H     1.0000    0     1.008   -8.967608    4.652433    1.674033
  35 H     1.0000    0     1.008   -8.935305    4.658907   -1.720489
  36 H     1.0000    0     1.008  -11.829082    4.241308   -0.052190
  37 H     1.0000    0     1.008   -5.133756    3.653560   -0.017588

--------------------------------
INTERNAL COORDINATES (ANGSTROEM)
--------------------------------
 S      0   0   0     0.000000000000     0.00000000     0.00000000
 C      1   0   0     1.730779047163     0.00000000     0.00000000
 C      2   1   0     1.383083621318   117.90066366     0.00000000
 C      3   2   1     1.418525734593   120.87167728   179.98691287
 C      4   3   2     1.436737301119   117.92880116     0.05769643
 C      5   4   3     1.362891076282   120.87779043   359.94286685
 H      6   5   4     1.092462492084   121.21638740   180.00926668
 C      6   5   4     1.428059429675   122.19010999     0.00000000
 N      8   6   5     1.326452718939   117.77918026   180.00110380
 C      9   8   6     1.326452428537   124.01218715   180.02164532
 C     10   9   8     1.428059503118   117.77916281   180.02155793
 C     11  10   9     1.362890350684   122.19012095   180.00345363
 C     12  11  10     1.436737977987   120.87786816     0.02375374
 C     13  12  11     1.418525475927   117.92868948   359.93240536
 C     14  13  12     1.383084526133   120.87171223     0.06907571
 H     14  13  12     1.090205595397   120.38982599   180.07892938
 N     13  12  11     1.346239815813   120.80288003   179.95866159
 C     17  13  12     1.449780084866   120.25348383   179.82092347
 H     18  17  13     1.104840660586   111.34724386   298.94446501
 H     18  17  13     1.104674237274   111.32098995    60.52406575
 H     18  17  13     1.097648731133   109.31458682   179.70884839
 C     17  13  12     1.452160264892   120.72095831     0.15628227
 H     22  17  13     1.097695454763   109.03914189   180.40235897
 H     22  17  13     1.104015135363   111.43023210   299.41074606
 H     22  17  13     1.104204438314   111.47476619    61.30097551
 H     12  11  10     1.089593561151   118.97651626   180.04490557
 H     11  10   9     1.092462912412   116.59338605     0.00000000
 H      5   4   3     1.089595354455   120.14579821   179.93018500
 N      4   3   2     1.346239605728   121.26841257   180.03562028
 C     29   4   3     1.452159787667   120.72099743   180.18930677
 H     30  29   4     1.104184159388   111.46833064    61.19770949
 H     30  29   4     1.104034112339   111.43883853   299.30100684
 H     30  29   4     1.097696469491   109.03726659   180.27928113
 C     29   4   3     1.449781789002   120.25308789   359.89613932
 H     34  29   4     1.104838456067   111.34682755   298.93212267
 H     34  29   4     1.104677870885   111.32115185    60.51138730
 H     34  29   4     1.097647996441   109.31469259   179.69789691
 H      3   2   1     1.090204354322   118.73845520   359.97334511

---------------------------
INTERNAL COORDINATES (A.U.)
---------------------------
 S      0   0   0     0.000000000000     0.00000000     0.00000000
 C      1   0   0     3.270698397468     0.00000000     0.00000000
 C      2   1   0     2.613649264603   117.90066366     0.00000000
 C      3   2   1     2.680625152300   120.87167728   179.98691287
 C      4   3   2     2.715040025504   117.92880116     0.05769643
 C      5   4   3     2.575490884538   120.87779043   359.94286685
 H      6   5   4     2.064454921620   121.21638740   180.00926668
 C      6   5   4     2.698641225049   122.19010999     0.00000000
 N      8   6   5     2.506632368389   117.77918026   180.00110380
 C      9   8   6     2.506631819610   124.01218715   180.02164532
 C     10   9   8     2.698641363836   117.77916281   180.02155793
 C     11  10   9     2.575489513356   122.19012095   180.00345363
 C     12  11  10     2.715041304599   120.87786816     0.02375374
 C     13  12  11     2.680624663493   117.92868948   359.93240536
 C     14  13  12     2.613650974455   120.87171223     0.06907571
 H     14  13  12     2.060190004970   120.38982599   180.07892938
 N     13  12  11     2.544024562467   120.80288003   179.95866159
 C     17  13  12     2.739687314809   120.25348383   179.82092347
 H     18  17  13     2.087846270127   111.34724386   298.94446501
 H     18  17  13     2.087531775646   111.32098995    60.52406575
 H     18  17  13     2.074255493087   109.31458682   179.70884839
 C     17  13  12     2.744185203208   120.72095831     0.15628227
 H     22  17  13     2.074343787952   109.03914189   180.40235897
 H     22  17  13     2.086286253540   111.43023210   299.41074606
 H     22  17  13     2.086643984274   111.47476619    61.30097551
 H     12  11  10     2.059033427860   118.97651626   180.04490557
 H     11  10   9     2.064455715925   116.59338605     0.00000000
 H      5   4   3     2.059036816713   120.14579821   179.93018500
 N      4   3   2     2.544024165464   121.26841257   180.03562028
 C     29   4   3     2.744184301383   120.72099743   180.18930677
 H     30  29   4     2.086605662658   111.46833064    61.19770949
 H     30  29   4     2.086322114827   111.43883853   299.30100684
 H     30  29   4     2.074345705510   109.03726659   180.27928113
 C     29   4   3     2.739690535161   120.25308789   359.89613932
 H     34  29   4     2.087842104192   111.34682755   298.93212267
 H     34  29   4     2.087538642176   111.32115185    60.51138730
 H     34  29   4     2.074254104720   109.31469259   179.69789691
 H      3   2   1     2.060187659677   118.73845520   359.97334511

---------------------
BASIS SET INFORMATION
---------------------
There are 4 groups of distinct atoms

 Group   1 Type S   : 42s17p3d2f contracted to 6s5p3d2f pattern {131313111/77111/111/11}
 Group   2 Type C   : 19s6p3d2f contracted to 5s4p3d2f pattern {88111/3111/111/11}
 Group   3 Type H   : 6s3p2d contracted to 4s3p2d pattern {3111/111/11}
 Group   4 Type N   : 19s6p3d2f contracted to 5s4p3d2f pattern {88111/3111/111/11}

Atom   0S    basis set group =>   1
Atom   1C    basis set group =>   2
Atom   2C    basis set group =>   2
Atom   3C    basis set group =>   2
Atom   4C    basis set group =>   2
Atom   5C    basis set group =>   2
Atom   6H    basis set group =>   3
Atom   7C    basis set group =>   2
Atom   8N    basis set group =>   4
Atom   9C    basis set group =>   2
Atom  10C    basis set group =>   2
Atom  11C    basis set group =>   2
Atom  12C    basis set group =>   2
Atom  13C    basis set group =>   2
Atom  14C    basis set group =>   2
Atom  15H    basis set group =>   3
Atom  16N    basis set group =>   4
Atom  17C    basis set group =>   2
Atom  18H    basis set group =>   3
Atom  19H    basis set group =>   3
Atom  20H    basis set group =>   3
Atom  21C    basis set group =>   2
Atom  22H    basis set group =>   3
Atom  23H    basis set group =>   3
Atom  24H    basis set group =>   3
Atom  25H    basis set group =>   3
Atom  26H    basis set group =>   3
Atom  27H    basis set group =>   3
Atom  28N    basis set group =>   4
Atom  29C    basis set group =>   2
Atom  30H    basis set group =>   3
Atom  31H    basis set group =>   3
Atom  32H    basis set group =>   3
Atom  33C    basis set group =>   2
Atom  34H    basis set group =>   3
Atom  35H    basis set group =>   3
Atom  36H    basis set group =>   3
Atom  37H    basis set group =>   3
---------------------------------
AUXILIARY/J BASIS SET INFORMATION
---------------------------------
There are 4 groups of distinct atoms

 Group   1 Type S   : 14s5p5d2f1g contracted to 8s4p3d1f1g pattern {71111111/2111/311/2/1}
 Group   2 Type C   : 12s5p4d2f1g contracted to 6s4p3d1f1g pattern {711111/2111/211/2/1}
 Group   3 Type H   : 5s2p1d contracted to 3s1p1d pattern {311/2/1}
 Group   4 Type N   : 12s5p4d2f1g contracted to 6s4p3d1f1g pattern {711111/2111/211/2/1}

Atom   0S    basis set group =>   1
Atom   1C    basis set group =>   2
Atom   2C    basis set group =>   2
Atom   3C    basis set group =>   2
Atom   4C    basis set group =>   2
Atom   5C    basis set group =>   2
Atom   6H    basis set group =>   3
Atom   7C    basis set group =>   2
Atom   8N    basis set group =>   4
Atom   9C    basis set group =>   2
Atom  10C    basis set group =>   2
Atom  11C    basis set group =>   2
Atom  12C    basis set group =>   2
Atom  13C    basis set group =>   2
Atom  14C    basis set group =>   2
Atom  15H    basis set group =>   3
Atom  16N    basis set group =>   4
Atom  17C    basis set group =>   2
Atom  18H    basis set group =>   3
Atom  19H    basis set group =>   3
Atom  20H    basis set group =>   3
Atom  21C    basis set group =>   2
Atom  22H    basis set group =>   3
Atom  23H    basis set group =>   3
Atom  24H    basis set group =>   3
Atom  25H    basis set group =>   3
Atom  26H    basis set group =>   3
Atom  27H    basis set group =>   3
Atom  28N    basis set group =>   4
Atom  29C    basis set group =>   2
Atom  30H    basis set group =>   3
Atom  31H    basis set group =>   3
Atom  32H    basis set group =>   3
Atom  33C    basis set group =>   2
Atom  34H    basis set group =>   3
Atom  35H    basis set group =>   3
Atom  36H    basis set group =>   3
Atom  37H    basis set group =>   3


           ************************************************************
           *        Program running with 4 parallel MPI-processes     *
           *              working on a common directory               *
           ************************************************************
------------------------------------------------------------------------------
                             ORCA STARTUP CALCULATIONS
                           -- RI-GTO INTEGRALS CHOSEN --
------------------------------------------------------------------------------
------------------------------------------------------------------------------
                   ___                                                        
                  /   \      - P O W E R E D   B Y -                         
                 /     \                                                     
                 |  |  |   _    _      __       _____    __    __             
                 |  |  |  | |  | |    /  \     |  _  \  |  |  /  |          
                  \  \/   | |  | |   /    \    | | | |  |  | /  /          
                 / \  \   | |__| |  /  /\  \   | |_| |  |  |/  /          
                |  |  |   |  __  | /  /__\  \  |    /   |      \           
                |  |  |   | |  | | |   __   |  |    \   |  |\   \          
                \     /   | |  | | |  |  |  |  | |\  \  |  | \   \       
                 \___/    |_|  |_| |__|  |__|  |_| \__\ |__|  \__/        
                                                                              
                      - O R C A' S   B I G   F R I E N D -                    
                                      &                                       
                       - I N T E G R A L  F E E D E R -                       
                                                                              
 v1 FN, 2020, v2 2021, v3 2022-2024                                           
------------------------------------------------------------------------------


----------------------
SHARK INTEGRAL PACKAGE
----------------------

Number of atoms                             ...     38
Number of basis functions                   ...   1477
Number of shells                            ...    573
Maximum angular momentum                    ...      3
Integral batch strategy                     ... SHARK/LIBINT Hybrid
RI-J (if used) integral strategy            ... SPLIT-RIJ (Revised 2003 algorithm where possible)
Printlevel                                  ...      1
Contraction scheme used                     ... PARTIAL GENERAL contraction
Prescreening option                         ... SCHWARTZ
   Thresh                                   ... 2.500e-11
   Tcut                                     ... 2.500e-12
   Tpresel                                  ... 2.500e-12 
Coulomb Range Separation                    ... NOT USED
Exchange Range Separation                   ... NOT USED
Multipole approximations                    ... NOT USED
Finite Nucleus Model                        ... NOT USED
CABS basis                                  ... NOT available
Auxiliary Coulomb fitting basis             ... AVAILABLE
   # of basis functions in Aux-J            ...   1180
   # of shells in Aux-J                     ...    392
   Maximum angular momentum in Aux-J        ...      4
Auxiliary J/K fitting basis                 ... NOT available
Auxiliary Correlation fitting basis         ... NOT available
Auxiliary 'external' fitting basis          ... NOT available

Checking pre-screening integrals            ... done (  0.0 sec) Dimension = 573
Save PGC pre-screening integrals            ... done (  0.0 sec) Dimension = 573
Calculate PGC overlap integrals             ... done (  0.2 sec) Dimension = 444
Calculating pre-screening integrals (ORCA)  ... done (  0.6 sec) Dimension = 444
Check shell pair data                       ... done (  0.0 sec)
Shell pair information
Shell pair cut-off parameter TPreSel        ...   2.5e-12
Total number of shell pairs                 ...    164451
Shell pairs after pre-screening             ...    105712
Total number of primitive shell pairs       ...    209739
Primitive shell pairs kept                  ...    121974
          la=0 lb=0:  23737 shell pairs
          la=1 lb=0:  27761 shell pairs
          la=1 lb=1:   7497 shell pairs
          la=2 lb=0:  18198 shell pairs
          la=2 lb=1:   9816 shell pairs
          la=2 lb=2:   3294 shell pairs
          la=3 lb=0:   7806 shell pairs
          la=3 lb=1:   4204 shell pairs
          la=3 lb=2:   2766 shell pairs
          la=3 lb=3:    633 shell pairs

Calculating one electron integrals          ... done (  0.3 sec)
Calculating RI/J V-Matrix + Cholesky decomp.... done (  0.1 sec)
Calculating Nuclear repulsion               ... done (  0.0 sec) ENN=   1586.920725370305 Eh

Diagonalization of the overlap matrix:
Smallest eigenvalue                        ... 8.675e-08
Time for diagonalization                   ...    0.462 sec
Threshold for overlap eigenvalues          ... 1.000e-07
Number of eigenvalues below threshold      ... 1
Smallest eigenvalue above threshold        ... 1.671e-07

IMPORTANT:
Smallest eigenvalue of S below the DiffSThresh (1.000e-06) while
Thresh>1e-12 and/or TCut>1e-13! In order to avoid SCF convergence issues,
Thresh will be set to at least 1e-12 and TCut to at least 1e-13.
This can be turned off by adding %SCF DiffSThresh -1 END to the input.

Time for construction of square roots      ...    0.222 sec
Total time needed                          ...    0.718 sec

-------------------
DFT GRID GENERATION
-------------------

General Integration Accuracy     IntAcc      ... 4.388
Radial Grid Type                 RadialGrid  ... OptM3 with GC (2021)
Angular Grid (max. ang.)         AngularGrid ... 4 (Lebedev-302)
Angular grid pruning method      GridPruning ... 4 (adaptive)
Weight generation scheme         WeightScheme... mBecke (2022)
Basis function cutoff            BFCut       ... 1.0000e-11
Integration weight cutoff        WCut        ... 1.0000e-14
Partially contracted basis set               ... off
Rotationally invariant grid construction     ... off
Angular grids for H and He will be reduced by one unit
Diffuse basis detected: some atoms will have their outermost
                        angular grid increased by 1.

Total number of grid points                  ...   185970
Total number of batches                      ...     2932
Average number of points per batch           ...       63
Average number of grid points per atom       ...     4894

---------------------
SHARK GRID GENERATION
---------------------

General Integration Accuracy     IntAcc      ... 4.388
Radial Grid Type                 RadialGrid  ... OptM3 with GC (2021)
Angular Grid (max. ang.)         AngularGrid ... 4 (Lebedev-302)
Angular grid pruning method      GridPruning ... 4 (adaptive)
Weight generation scheme         WeightScheme... mBecke (2022)
Basis function cutoff            BFCut       ... 1.0000e-11
Integration weight cutoff        WCut        ... 1.0000e-14
Partially contracted basis set               ... off
Rotationally invariant grid construction     ... off
Angular grids for H and He will be reduced by one unit
Diffuse basis detected: some atoms will have their outermost
                        angular grid increased by 1.
Core-polarized basis detected: some atoms will have their core
                               angular grid increased.
Steep s-basis detected: some atoms will have their radial
                        grid points doubled.

Total number of grid points                  ...   316422
Total number of batches                      ...     4963
Average number of points per batch           ...       63
Average number of grid points per atom       ...     8327

--------------------
COSX GRID GENERATION
--------------------

GRIDX 1
-------
General Integration Accuracy     IntAcc      ... 3.816
Radial Grid Type                 RadialGrid  ... OptM3 with GC (2021)
Angular Grid (max. ang.)         AngularGrid ... 1 (Lebedev-50)
Angular grid pruning method      GridPruning ... 4 (adaptive)
Weight generation scheme         WeightScheme... mBecke (2022)
Basis function cutoff            BFCut       ... 1.0000e-11
Integration weight cutoff        WCut        ... 1.0000e-14
Partially contracted basis set               ... on
Rotationally invariant grid construction     ... off
Angular grids for H and He will be reduced by one unit
Diffuse basis detected: some atoms will have their outermost
                        angular grid increased by 1.

Total number of grid points                  ...    24484
Total number of batches                      ...      212
Average number of points per batch           ...      115
Average number of grid points per atom       ...      644
UseSFitting                                  ... on

GRIDX 2
-------
General Integration Accuracy     IntAcc      ... 4.020
Radial Grid Type                 RadialGrid  ... OptM3 with GC (2021)
Angular Grid (max. ang.)         AngularGrid ... 2 (Lebedev-110)
Angular grid pruning method      GridPruning ... 4 (adaptive)
Weight generation scheme         WeightScheme... mBecke (2022)
Basis function cutoff            BFCut       ... 1.0000e-11
Integration weight cutoff        WCut        ... 1.0000e-14
Partially contracted basis set               ... on
Rotationally invariant grid construction     ... off
Angular grids for H and He will be reduced by one unit
Diffuse basis detected: some atoms will have their outermost
                        angular grid increased by 1.

Total number of grid points                  ...    55068
Total number of batches                      ...      451
Average number of points per batch           ...      122
Average number of grid points per atom       ...     1449
UseSFitting                                  ... on

GRIDX 3
-------
General Integration Accuracy     IntAcc      ... 4.338
Radial Grid Type                 RadialGrid  ... OptM3 with GC (2021)
Angular Grid (max. ang.)         AngularGrid ... 3 (Lebedev-194)
Angular grid pruning method      GridPruning ... 4 (adaptive)
Weight generation scheme         WeightScheme... mBecke (2022)
Basis function cutoff            BFCut       ... 1.0000e-11
Integration weight cutoff        WCut        ... 1.0000e-14
Partially contracted basis set               ... on
Rotationally invariant grid construction     ... off
Angular grids for H and He will be reduced by one unit
Diffuse basis detected: some atoms will have their outermost
                        angular grid increased by 1.

Total number of grid points                  ...   122664
Total number of batches                      ...      978
Average number of points per batch           ...      125
Average number of grid points per atom       ...     3228
UseSFitting                                  ... on
Initializing property integral containers    ... done (  0.0 sec)

SHARK setup successfully completed in  23.3 seconds

Maximum memory used throughout the entire STARTUP-calculation: 227.4 MB


           ************************************************************
           *        Program running with 4 parallel MPI-processes     *
           *              working on a common directory               *
           ************************************************************
-------------------------------------------------------------------------------
                                 ORCA GUESS
                   Start orbitals & Density for SCF / CASSCF
-------------------------------------------------------------------------------

------------
SCF SETTINGS
------------
Hamiltonian:
 Density Functional     Method          .... DFT(GTOs)
 Exchange Functional    Exchange        .... PBE
   PBE kappa parameter   XKappa         ....  0.804000
   PBE mue parameter    XMuePBE         ....  0.219520
 Correlation Functional Correlation     .... PBE
   PBE beta parameter  CBetaPBE         ....  0.066725
 LDA part of GGA corr.  LDAOpt          .... PW91-LDA
 Gradients option       PostSCFGGA      .... off
 Hybrid DFT is turned on
   Fraction HF Exchange ScalHFX         ....  0.250000
   Scaling of DF-GGA-X  ScalDFX         ....  0.750000
   Scaling of DF-GGA-C  ScalDFC         ....  1.000000
   Scaling of DF-LDA-C  ScalLDAC        ....  1.000000
   Perturbative correction              ....  0.000000
   NL short-range parameter             ....  6.900000
 RI-approximation to the Coulomb term is turned on
   Number of AuxJ basis functions       .... 1180
   RIJ-COSX (HFX calculated with COS-X)).... on


General Settings:
 Integral files         IntName         .... cs_rporg_184_ox_solv_04
 Hartree-Fock type      HFTyp           .... RHF
 Total Charge           Charge          ....    1
 Multiplicity           Mult            ....    1
 Number of Electrons    NEL             ....  150
 Basis Dimension        Dim             .... 1338
 Nuclear Repulsion      ENuc            ....   1586.9207253703 Eh

Convergence Acceleration:
 AO-DIIS                CNVDIIS         .... on
   Start iteration      DIISMaxIt       ....     0
   Startup error        DIISStart       ....  0.200000
   # of expansion vecs  DIISMaxEq       ....     5
   Bias factor          DIISBfac        ....   1.050
   Max. coefficient     DIISMaxC        ....  10.000
 MO-DIIS                CNVKDIIS        .... off
 Trust-Rad. Augm. Hess. CNVTRAH         .... auto
   Auto Start mean grad. ratio tolernc. ....  1.125000
   Auto Start start iteration           ....    50
   Auto Start num. interpolation iter.  ....    10
   Max. Number of Micro iterations      ....    24
   Max. Number of Macro iterations      .... Maxiter - #DIIS iter
   Number of Davidson start vectors     ....     2
   Converg. threshold    (grad. norm)   ....   1.000e-05
   Grad. Scal. Fac. for Micro threshold ....   0.100
   Minimum threshold for Micro iter.    ....   1.000e-02
   NR start threshold (gradient norm)   ....   1.000e-04
   Initial trust radius                 ....   0.400
   Minimum AH scaling param. (alpha)    ....   1.000
   Maximum AH scaling param. (alpha)    .... 1000.000
   Quad. conv. algorithm                .... NR
   White noise on init. David. guess    .... on
   Maximum white noise                  ....   0.010
   Pseudo random numbers                .... off
   Inactive MOs                         .... canonical
   Orbital update algorithm             .... Taylor
   Preconditioner                       .... Diag
   Full preconditioner red. dimension   ....   250
 SOSCF                  CNVSOSCF        .... on
   Start iteration      SOSCFMaxIt      ....   150
   Startup grad/error   SOSCFStart      ....  0.001000
   Hessian update       SOSCFHessUp     .... L-BFGS
 Level Shifting         CNVShift        .... on
   Level shift para.    LevelShift      ....    0.2500
   Turn off err/grad.   ShiftErr        ....    0.0000
 Zerner damping         CNVZerner       .... off
 Static damping         CNVDamp         .... on
   Fraction old density DampFac         ....    0.8500
   Max. Damping (<1)    DampMax         ....    0.9800
   Min. Damping (>=0)   DampMin         ....    0.0000
   Turn off err/grad.   DampErr         ....    0.0300

SCF Procedure:
 Maximum # iterations   MaxIter         ....  1500
 SCF integral mode      SCFMode         .... Direct
   Integral package                     .... SHARK and LIBINT hybrid scheme
 Reset frequency        DirectResetFreq ....    20
 Integral Threshold     Thresh          ....  1.000e-12 Eh
 Primitive CutOff       TCut            ....  1.000e-13 Eh

Convergence Tolerance:
 Convergence Check Mode ConvCheckMode   .... Total+1el-Energy
 Convergence forced     ConvForced      .... 0
 Energy Change          TolE            ....  1.000e-08 Eh
 1-El. energy change                    ....  1.000e-05 Eh
 Orbital Gradient       TolG            ....  1.000e-05
 Orbital Rotation angle TolX            ....  1.000e-05
 DIIS Error             TolErr          ....  5.000e-07

------------------------------
INITIAL GUESS: MODEL POTENTIAL
------------------------------
Loading Hartree-Fock densities                     ... done
Calculating cut-offs                               ... done
Initializing the effective Hamiltonian             ... done
Setting up the integral package (SHARK)            ... done
Starting the Coulomb interaction                   ... done (   3.2 sec)
Making the grid                                    ... done (   1.1 sec)
Mapping shells                                     ... done
Starting the XC term evaluation                    ... done (   3.7 sec)
  promolecular density results
     # of electrons  =    150.983224381
     EX              =   -131.765925000
     EC              =     -5.160954851
     EX+EC           =   -136.926879851
Transforming the Hamiltonian                       ... done (   0.2 sec)
Diagonalizing the Hamiltonian                      ... done (   0.4 sec)
Back transforming the eigenvectors                 ... done (   0.1 sec)
Now organizing SCF variables                       ... done
                      ------------------
                      INITIAL GUESS DONE (   9.0 sec)
                      ------------------
             **** ENERGY FILE WAS UPDATED (cs_rporg_184_ox_solv_04.en.tmp) ****
Finished Guess after  16.6 sec
Maximum memory used throughout the entire GUESS-calculation: 187.1 MB


           ************************************************************
           *        Program running with 4 parallel MPI-processes     *
           *              working on a common directory               *
           ************************************************************

-------------------------------------------------------------------------------------------
                                      ORCA LEAN-SCF
                              memory conserving SCF solver
-------------------------------------------------------------------------------------------

--------------------
CPCM SOLVATION MODEL
--------------------
CPCM parameters:
  Epsilon                                         ...      35.6880
  Refrac                                          ...       1.3442
  Rsolv                                           ...       2.1900
  Surface type                                    ...    GEPOL SES
  Discretization scheme                           ... Constant num. charges
  Epsilon function type                           ...         CPCM
Solvent:                                          ... ACETONITRILE
SMD-CDS solvent descriptors:
  Soln                                            ...       1.3442
  Soln25                                          ...       1.3416
  Sola                                            ...       0.0700
  Solb                                            ...       0.3200
  Solg                                            ...      41.2500
  Solc                                            ...       0.0000
  Solh                                            ...       0.0000
Radii:
  Scheme                                          ... Element-dependent radii
  Radius for S  used is    4.7054 Bohr (=   2.4900 Ang.)
  Radius for C  used is    3.4960 Bohr (=   1.8500 Ang.)
  Radius for H  used is    2.2677 Bohr (=   1.2000 Ang.)
  Radius for N  used is    3.5716 Bohr (=   1.8900 Ang.)
Calculating surface                               ...        done! (  0.1s)
Cavity surface points                             ...         1184
Cavity Volume                                     ...    2137.9225
Cavity Surface-area                               ...    1103.9153
Calculating surface distance matrix               ...        done! (  0.0s)
Performing Cholesky decomposition & store         ...        done! (  0.1s)
Overall time for CPCM initialization              ...                 0.2s

----------------------------------------D-I-I-S--------------------------------------------
Iteration    Energy (Eh)           Delta-E    RMSDP     MaxDP     DIISErr   Damp  Time(sec)
-------------------------------------------------------------------------------------------
               ***  Starting incremental Fock matrix formation  ***
    1    -1181.6773669500537380     0.00e+00  3.71e-03  1.12e+00  1.89e-01  0.850 117.1
Warning: op=0 Small HOMO/LUMO gap (   0.075) - skipping pre-diagonalization
         Will do a full diagonalization
    2    -1181.7725592900449101    -9.52e-02  3.58e-03  1.07e+00  1.41e-01  0.850  62.6
                               ***Turning on AO-DIIS***
    3    -1181.8387143851543897    -6.62e-02  2.96e-03  8.75e-01  9.61e-02  0.850  61.5
    4    -1181.8821523892636378    -4.34e-02  2.50e-03  7.45e-01  7.71e-02  0.850  61.6
    5    -1181.9136023866728920    -3.14e-02  2.13e-03  6.34e-01  6.51e-02  0.850  60.3
    6    -1181.9382320601114316    -2.46e-02  1.81e-03  5.40e-01  5.55e-02  0.850  59.5
    7    -1181.9583544899649041    -2.01e-02  1.55e-03  4.59e-01  4.68e-02  0.850  60.1
    8    -1181.9750215746537378    -1.67e-02  1.32e-03  3.91e-01  3.89e-02  0.850  60.1
    9    -1181.9887848278087858    -1.38e-02  1.12e-03  3.32e-01  3.26e-02  0.850  58.1
   10    -1182.0001549397409235    -1.14e-02  9.53e-04  2.82e-01  2.75e-02  0.850  59.7
   11    -1182.0095900652333967    -9.44e-03  5.40e-03  1.60e+00  2.32e-02  0.000  58.5
   12    -1182.0596801993222016    -5.01e-02  6.63e-05  6.69e-03  1.76e-03  0.000  64.0
                              *** Initializing SOSCF ***
---------------------------------------S-O-S-C-F--------------------------------------
Iteration    Energy (Eh)           Delta-E    RMSDP     MaxDP     MaxGrad    Time(sec)
--------------------------------------------------------------------------------------
   13    -1182.0597081098337640    -2.79e-05  2.64e-05  3.67e-03  2.11e-04    56.1
               *** Restarting incremental Fock matrix formation ***
   14    -1182.0597009696082296     7.14e-06  2.74e-03  2.23e-01  1.51e-04   121.2
   15    -1182.0597040830878086    -3.11e-06  7.36e-04  7.37e-02  1.28e-04   105.3
   16    -1182.0597038429034455     2.40e-07  6.88e-04  7.11e-02  1.33e-04   100.5
   17    -1182.0597047366838979    -8.94e-07  8.02e-05  7.07e-03  2.40e-05    99.1
   18    -1182.0597047220892364     1.46e-08  6.30e-05  5.60e-03  2.86e-05    91.1
   19    -1182.0597047533399291    -3.13e-08  1.80e-05  2.49e-03  2.19e-06    90.3
                  *** Gradient check signals convergence ***

               *****************************************************
               *                     SUCCESS                       *
               *           SCF CONVERGED AFTER  19 CYCLES          *
               *****************************************************

Recomputing exchange energy using gridx3       ... done (  208.441 sec)
Old exchange energy                            :    -33.477245179 Eh
New exchange energy                            :    -33.476955450 Eh
Exchange energy change after final integration :      0.000289729 Eh
Total energy after final integration           :  -1182.059415025 Eh

SMD CDS free energy correction energy :                -3.62829     Kcal/mol
Total Energy after SMD CDS correction =             -1182.065197077 Eh
             **** ENERGY FILE WAS UPDATED (cs_rporg_184_ox_solv_04.en.tmp) ****

----------------
TOTAL SCF ENERGY
----------------

Total Energy       :      -1182.06519707650591 Eh          -32165.62928 eV

Components:
Nuclear Repulsion  :       1586.92072537030549 Eh           43182.30828 eV
Electronic Energy  :      -2768.90856692218449 Eh          -75345.83261 eV
One Electron Energy:      -4744.88596669544404 Eh         -129114.91123 eV
Two Electron Energy:       1975.97739977325955 Eh           53769.07861 eV
CPCM Dielectric    :         -0.07186320146083 Eh              -1.95550 eV
SMD CDS (Gcds)     :         -0.00578205191089 Eh              -0.15734 eV

Virial components:
Potential Energy   :      -2357.97510352201880 Eh          -64163.76459 eV
Kinetic Energy     :       1175.90990644551289 Eh           31998.13531 eV
Virial Ratio       :          2.00523449168789

DFT components:
N(Alpha)           :       74.999931616742 electrons
N(Beta)            :       74.999931616742 electrons
N(Total)           :      149.999863233484 electrons
E(X)               :     -100.120611012508 Eh       
E(C)               :       -5.116053317682 Eh       
E(XC)              :     -105.236664330190 Eh       

CPCM Solvation Model Properties:
Surface-charge          :         -1.05409023150390
Corrected charge        :         -1.00000000000000
Outlying charge corr.   :          0.00015431739532 Eh               0.00420 eV
Free-energy (cav+disp)  :         -0.00578205191089 Eh              -0.15734 eV

---------------
SCF CONVERGENCE
---------------

  Last Energy change         ...    3.1251e-08  Tolerance :   1.0000e-08
  Last MAX-Density change    ...    2.4891e-03  Tolerance :   1.0000e-07
  Last RMS-Density change    ...    1.7982e-05  Tolerance :   5.0000e-09
  Last DIIS Error            ...    2.1095e-04  Tolerance :   5.0000e-07
  Last Orbital Gradient      ...    2.1931e-06  Tolerance :   1.0000e-05
  Last Orbital Rotation      ...    9.2246e-06  Tolerance :   1.0000e-05


----------------
ORBITAL ENERGIES
----------------

  NO   OCC          E(Eh)            E(eV) 
   0   2.0000     -89.111405     -2424.8446 
   1   2.0000     -14.449413      -393.1885 
   2   2.0000     -14.449410      -393.1884 
   3   2.0000     -14.424829      -392.5196 
   4   2.0000     -10.308618      -280.5118 
   5   2.0000     -10.308599      -280.5112 
   6   2.0000     -10.306247      -280.4472 
   7   2.0000     -10.306209      -280.4462 
   8   2.0000     -10.293816      -280.1090 
   9   2.0000     -10.293811      -280.1088 
  10   2.0000     -10.258299      -279.1425 
  11   2.0000     -10.258296      -279.1424 
  12   2.0000     -10.258248      -279.1411 
  13   2.0000     -10.258218      -279.1403 
  14   2.0000     -10.256314      -279.0885 
  15   2.0000     -10.256297      -279.0880 
  16   2.0000     -10.252737      -278.9911 
  17   2.0000     -10.252656      -278.9890 
  18   2.0000     -10.251399      -278.9547 
  19   2.0000     -10.251356      -278.9536 
  20   2.0000      -8.069006      -219.5688 
  21   2.0000      -6.005783      -163.4257 
  22   2.0000      -6.002150      -163.3268 
  23   2.0000      -5.999792      -163.2626 
  24   2.0000      -1.015614       -27.6363 
  25   2.0000      -1.013452       -27.5774 
  26   2.0000      -1.007297       -27.4099 
  27   2.0000      -0.906657       -24.6714 
  28   2.0000      -0.903197       -24.5772 
  29   2.0000      -0.857150       -23.3242 
  30   2.0000      -0.812249       -22.1024 
  31   2.0000      -0.803173       -21.8555 
  32   2.0000      -0.781977       -21.2787 
  33   2.0000      -0.758335       -20.6353 
  34   2.0000      -0.756476       -20.5848 
  35   2.0000      -0.731575       -19.9072 
  36   2.0000      -0.718735       -19.5578 
  37   2.0000      -0.674503       -18.3541 
  38   2.0000      -0.649744       -17.6804 
  39   2.0000      -0.648442       -17.6450 
  40   2.0000      -0.626003       -17.0344 
  41   2.0000      -0.587246       -15.9798 
  42   2.0000      -0.581125       -15.8132 
  43   2.0000      -0.548854       -14.9351 
  44   2.0000      -0.542460       -14.7611 
  45   2.0000      -0.540562       -14.7094 
  46   2.0000      -0.515017       -14.0143 
  47   2.0000      -0.497877       -13.5479 
  48   2.0000      -0.496787       -13.5182 
  49   2.0000      -0.485574       -13.2131 
  50   2.0000      -0.472137       -12.8475 
  51   2.0000      -0.470836       -12.8121 
  52   2.0000      -0.466898       -12.7050 
  53   2.0000      -0.463929       -12.6242 
  54   2.0000      -0.452419       -12.3109 
  55   2.0000      -0.449874       -12.2417 
  56   2.0000      -0.424620       -11.5545 
  57   2.0000      -0.424107       -11.5405 
  58   2.0000      -0.422204       -11.4888 
  59   2.0000      -0.422198       -11.4886 
  60   2.0000      -0.413294       -11.2463 
  61   2.0000      -0.413024       -11.2390 
  62   2.0000      -0.412246       -11.2178 
  63   2.0000      -0.395187       -10.7536 
  64   2.0000      -0.388779       -10.5792 
  65   2.0000      -0.381505       -10.3813 
  66   2.0000      -0.377400       -10.2696 
  67   2.0000      -0.367035        -9.9875 
  68   2.0000      -0.366339        -9.9686 
  69   2.0000      -0.328713        -8.9447 
  70   2.0000      -0.305981        -8.3262 
  71   2.0000      -0.301908        -8.2153 
  72   2.0000      -0.283481        -7.7139 
  73   2.0000      -0.245650        -6.6845 
  74   2.0000      -0.221773        -6.0348 
  75   0.0000      -0.124549        -3.3892 
  76   0.0000      -0.043863        -1.1936 
  77   0.0000      -0.030598        -0.8326 
  78   0.0000      -0.018555        -0.5049 
  79   0.0000      -0.005105        -0.1389 
  80   0.0000      -0.002046        -0.0557 
  81   0.0000       0.009021         0.2455 
  82   0.0000       0.010118         0.2753 
  83   0.0000       0.013609         0.3703 
  84   0.0000       0.018609         0.5064 
  85   0.0000       0.022008         0.5989 
*Only the first 10 virtual orbitals were printed.

                    ********************************
                    * MULLIKEN POPULATION ANALYSIS *
                    ********************************

-----------------------
MULLIKEN ATOMIC CHARGES
-----------------------
   0 S :    0.105330
   1 C :    0.704567
   2 C :   -0.890238
   3 C :    1.139885
   4 C :   -0.084875
   5 C :   -1.026515
   6 H :    0.467322
   7 C :    0.448299
   8 N :   -1.001140
   9 C :    0.447593
  10 C :   -1.001144
  11 C :   -0.046391
  12 C :    0.997750
  13 C :   -0.908937
  14 C :    0.767084
  15 H :    0.107394
  16 N :   -0.228139
  17 C :   -0.957325
  18 H :    0.335654
  19 H :    0.337447
  20 H :    0.257782
  21 C :   -0.937584
  22 H :    0.294711
  23 H :    0.296369
  24 H :    0.298929
  25 H :    0.429091
  26 H :    0.474130
  27 H :    0.366795
  28 N :   -0.240243
  29 C :   -0.909652
  30 H :    0.297602
  31 H :    0.295839
  32 H :    0.294603
  33 C :   -0.962675
  34 H :    0.336984
  35 H :    0.337350
  36 H :    0.257808
  37 H :    0.098540
Sum of atomic charges:    1.0000000

--------------------------------
MULLIKEN REDUCED ORBITAL CHARGES
--------------------------------
  0 S s       :     6.177006  s :     6.177006
      pz      :     3.683179  p :     9.664204
      px      :     2.698966
      py      :     3.282059
      dz2     :     0.014237  d :     0.042185
      dxz     :     0.029420
      dyz     :     0.008920
      dx2y2   :    -0.046290
      dxy     :     0.035898
      f0      :     0.003498  f :     0.011275
      f+1     :     0.001717
      f-1     :     0.001156
      f+2     :     0.001038
      f-2     :     0.001706
      f+3     :     0.000641
      f-3     :     0.001518

  1 C s       :     3.340403  s :     3.340403
      pz      :     0.959400  p :     1.791865
      px      :     0.013616
      py      :     0.818848
      dz2     :    -0.022275  d :     0.211058
      dxz     :    -0.022784
      dyz     :    -0.012212
      dx2y2   :     0.110516
      dxy     :     0.157812
      f0      :     0.004706  f :    -0.047893
      f+1     :     0.000072
      f-1     :    -0.000724
      f+2     :    -0.002982
      f-2     :     0.004313
      f+3     :    -0.048739
      f-3     :    -0.004539

  2 C s       :     4.240523  s :     4.240523
      pz      :     1.088728  p :     2.410265
      px      :     0.526772
      py      :     0.794764
      dz2     :     0.001652  d :     0.252664
      dxz     :    -0.019520
      dyz     :     0.007829
      dx2y2   :     0.159421
      dxy     :     0.103282
      f0      :     0.002042  f :    -0.013213
      f+1     :    -0.000297
      f-1     :     0.000759
      f+2     :     0.001612
      f-2     :     0.000184
      f+3     :    -0.015899
      f-3     :    -0.001614

  3 C s       :     3.572012  s :     3.572012
      pz      :     0.893731  p :     1.534415
      px      :     0.456459
      py      :     0.184225
      dz2     :    -0.029389  d :    -0.245413
      dxz     :     0.060540
      dyz     :    -0.007520
      dx2y2   :    -0.059962
      dxy     :    -0.209082
      f0      :     0.003641  f :    -0.000898
      f+1     :     0.001160
      f-1     :    -0.000668
      f+2     :     0.003152
      f-2     :     0.005332
      f+3     :    -0.005828
      f-3     :    -0.007687

  4 C s       :     3.643854  s :     3.643854
      pz      :     0.979625  p :     2.447792
      px      :     0.732424
      py      :     0.735744
      dz2     :    -0.004679  d :     0.003216
      dxz     :     0.015642
      dyz     :     0.001959
      dx2y2   :     0.015760
      dxy     :    -0.025467
      f0      :     0.001032  f :    -0.009987
      f+1     :     0.000884
      f-1     :     0.000369
      f+2     :    -0.000255
      f-2     :     0.000235
      f+3     :    -0.016050
      f-3     :     0.003799

  5 C s       :     4.115605  s :     4.115605
      pz      :     0.931388  p :     2.734586
      px      :     0.958247
      py      :     0.844952
      dz2     :    -0.003872  d :     0.189438
      dxz     :     0.044282
      dyz     :     0.017758
      dx2y2   :     0.153523
      dxy     :    -0.022254
      f0      :     0.001348  f :    -0.013113
      f+1     :     0.000168
      f-1     :     0.001214
      f+2     :    -0.000897
      f-2     :     0.000944
      f+3     :    -0.015183
      f-3     :    -0.000706

  6 H s       :     0.495182  s :     0.495182
      pz      :     0.019417  p :     0.031414
      px      :     0.023024
      py      :    -0.011026
      dz2     :     0.000265  d :     0.006082
      dxz     :     0.000128
      dyz     :     0.004280
      dx2y2   :     0.001029
      dxy     :     0.000380

  7 C s       :     3.059048  s :     3.059048
      pz      :     0.928878  p :     2.429315
      px      :     0.651426
      py      :     0.849011
      dz2     :    -0.023522  d :     0.078892
      dxz     :     0.009220
      dyz     :     0.000713
      dx2y2   :     0.045096
      dxy     :     0.047385
      f0      :     0.003064  f :    -0.015554
      f+1     :     0.002256
      f-1     :     0.001951
      f+2     :     0.001328
      f-2     :     0.004008
      f+3     :    -0.018294
      f-3     :    -0.009867

  8 N s       :     4.196668  s :     4.196668
      pz      :     1.092851  p :     3.654819
      px      :     1.021581
      py      :     1.540387
      dz2     :    -0.008304  d :     0.154635
      dxz     :     0.070145
      dyz     :     0.015900
      dx2y2   :     0.035102
      dxy     :     0.041792
      f0      :     0.000843  f :    -0.004982
      f+1     :    -0.001788
      f-1     :    -0.000181
      f+2     :    -0.000512
      f-2     :     0.003046
      f+3     :    -0.004374
      f-3     :    -0.002016

  9 C s       :     3.084730  s :     3.084730
      pz      :     0.929293  p :     2.411389
      px      :     0.672285
      py      :     0.809810
      dz2     :    -0.021352  d :     0.070750
      dxz     :     0.009422
      dyz     :     0.000589
      dx2y2   :     0.026786
      dxy     :     0.055304
      f0      :     0.003063  f :    -0.014461
      f+1     :     0.002465
      f-1     :     0.001940
      f+2     :     0.001349
      f-2     :     0.004010
      f+3     :    -0.017779
      f-3     :    -0.009510

 10 C s       :     4.084063  s :     4.084063
      pz      :     0.931318  p :     2.726669
      px      :     0.938992
      py      :     0.856359
      dz2     :    -0.004304  d :     0.204117
      dxz     :     0.044304
      dyz     :     0.017769
      dx2y2   :     0.168591
      dxy     :    -0.022243
      f0      :     0.001348  f :    -0.013705
      f+1     :     0.000117
      f-1     :     0.001184
      f+2     :    -0.000900
      f-2     :     0.000945
      f+3     :    -0.015586
      f-3     :    -0.000812

 11 C s       :     3.601587  s :     3.601587
      pz      :     0.979613  p :     2.432003
      px      :     0.694678
      py      :     0.757713
      dz2     :    -0.005108  d :     0.022521
      dxz     :     0.015692
      dyz     :     0.001987
      dx2y2   :     0.026703
      dxy     :    -0.016752
      f0      :     0.001035  f :    -0.009721
      f+1     :     0.000877
      f-1     :     0.000377
      f+2     :    -0.000258
      f-2     :     0.000252
      f+3     :    -0.015746
      f-3     :     0.003742

 12 C s       :     3.576991  s :     3.576991
      pz      :     0.893692  p :     1.689053
      px      :     0.458674
      py      :     0.336687
      dz2     :    -0.029478  d :    -0.263664
      dxz     :     0.060408
      dyz     :    -0.007242
      dx2y2   :    -0.076097
      dxy     :    -0.211254
      f0      :     0.003644  f :    -0.000130
      f+1     :     0.001231
      f-1     :    -0.000519
      f+2     :     0.003154
      f-2     :     0.005347
      f+3     :    -0.005605
      f-3     :    -0.007382

 13 C s       :     4.222349  s :     4.222349
      pz      :     1.089136  p :     2.453021
      px      :     0.559643
      py      :     0.804243
      dz2     :    -0.001250  d :     0.246551
      dxz     :    -0.019734
      dyz     :     0.007829
      dx2y2   :     0.138891
      dxy     :     0.120814
      f0      :     0.002046  f :    -0.012984
      f+1     :    -0.000315
      f-1     :     0.000675
      f+2     :     0.001605
      f-2     :     0.000177
      f+3     :    -0.015462
      f-3     :    -0.001710

 14 C s       :     3.332527  s :     3.332527
      pz      :     0.959716  p :     1.704380
      px      :    -0.005326
      py      :     0.749990
      dz2     :    -0.021667  d :     0.243051
      dxz     :    -0.022829
      dyz     :    -0.012266
      dx2y2   :     0.113857
      dxy     :     0.185956
      f0      :     0.004698  f :    -0.047042
      f+1     :     0.000092
      f-1     :    -0.000721
      f+2     :    -0.002974
      f-2     :     0.004328
      f+3     :    -0.048350
      f-3     :    -0.004115

 15 H s       :     0.869410  s :     0.869410
      pz      :     0.016934  p :     0.011266
      px      :    -0.022459
      py      :     0.016791
      dz2     :     0.001194  d :     0.011930
      dxz     :     0.000987
      dyz     :     0.004911
      dx2y2   :     0.002262
      dxy     :     0.002576

 16 N s       :     4.095875  s :     4.095875
      pz      :     1.428068  p :     3.033993
      px      :     0.786659
      py      :     0.819266
      dz2     :    -0.003281  d :     0.073070
      dxz     :     0.029935
      dyz     :     0.025723
      dx2y2   :     0.014129
      dxy     :     0.006564
      f0      :     0.000723  f :     0.025201
      f+1     :    -0.000319
      f-1     :    -0.000695
      f+2     :     0.002524
      f-2     :     0.002444
      f+3     :     0.021421
      f-3     :    -0.000898

 17 C s       :     3.622099  s :     3.622099
      pz      :     1.147376  p :     3.157586
      px      :     1.125126
      py      :     0.885084
      dz2     :     0.020710  d :     0.143819
      dxz     :     0.014612
      dyz     :     0.078504
      dx2y2   :    -0.000118
      dxy     :     0.030110
      f0      :     0.004904  f :     0.033821
      f+1     :     0.001859
      f-1     :     0.003664
      f+2     :     0.003028
      f-2     :     0.004874
      f+3     :     0.014138
      f-3     :     0.001352

 18 H s       :     0.639373  s :     0.639373
      pz      :     0.009900  p :     0.019960
      px      :     0.003648
      py      :     0.006411
      dz2     :     0.002110  d :     0.005013
      dxz     :     0.000569
      dyz     :     0.001617
      dx2y2   :     0.000622
      dxy     :     0.000096

 19 H s       :     0.637840  s :     0.637840
      pz      :     0.009473  p :     0.019718
      px      :     0.003561
      py      :     0.006683
      dz2     :     0.002222  d :     0.004996
      dxz     :     0.000441
      dyz     :     0.001615
      dx2y2   :     0.000626
      dxy     :     0.000093

 20 H s       :     0.708640  s :     0.708640
      pz      :     0.011102  p :     0.027134
      px      :     0.015279
      py      :     0.000753
      dz2     :    -0.000421  d :     0.006443
      dxz     :     0.003088
      dyz     :     0.000372
      dx2y2   :    -0.000567
      dxy     :     0.003972

 21 C s       :     3.595497  s :     3.595497
      pz      :     1.146470  p :     3.162328
      px      :     0.934389
      py      :     1.081469
      dz2     :     0.014609  d :     0.146816
      dxz     :     0.026362
      dyz     :     0.068847
      dx2y2   :     0.028943
      dxy     :     0.008055
      f0      :     0.005052  f :     0.032942
      f+1     :     0.001646
      f-1     :     0.004204
      f+2     :     0.005518
      f-2     :     0.002101
      f+3     :     0.010123
      f-3     :     0.004300

 22 H s       :     0.668005  s :     0.668005
      pz      :     0.010987  p :     0.030595
      px      :     0.012839
      py      :     0.006769
      dz2     :    -0.000468  d :     0.006688
      dxz     :     0.000946
      dyz     :     0.002468
      dx2y2   :     0.004035
      dxy     :    -0.000293

 23 H s       :     0.671342  s :     0.671342
      pz      :     0.012470  p :     0.027274
      px      :     0.001347
      py      :     0.013456
      dz2     :     0.002135  d :     0.005015
      dxz     :     0.002047
      dyz     :     0.000129
      dx2y2   :     0.000072
      dxy     :     0.000632

 24 H s       :     0.668400  s :     0.668400
      pz      :     0.013178  p :     0.027672
      px      :     0.001295
      py      :     0.013199
      dz2     :     0.001942  d :     0.004999
      dxz     :     0.002094
      dyz     :     0.000242
      dx2y2   :     0.000093
      dxy     :     0.000629

 25 H s       :     0.585368  s :     0.585368
      pz      :     0.017302  p :    -0.024440
      px      :    -0.016340
      py      :    -0.025403
      dz2     :     0.000095  d :     0.009982
      dxz     :     0.004141
      dyz     :     0.000913
      dx2y2   :     0.003993
      dxy     :     0.000841

 26 H s       :     0.485784  s :     0.485784
      pz      :     0.019422  p :     0.034072
      px      :     0.024171
      py      :    -0.009520
      dz2     :     0.000162  d :     0.006013
      dxz     :     0.000128
      dyz     :     0.004285
      dx2y2   :     0.001020
      dxy     :     0.000418

 27 H s       :     0.637766  s :     0.637766
      pz      :     0.017275  p :    -0.014778
      px      :    -0.010703
      py      :    -0.021349
      dz2     :     0.000160  d :     0.010217
      dxz     :     0.004142
      dyz     :     0.000912
      dx2y2   :     0.004065
      dxy     :     0.000939

 28 N s       :     4.088613  s :     4.088613
      pz      :     1.427918  p :     3.048623
      px      :     0.778758
      py      :     0.841947
      dz2     :    -0.004305  d :     0.078027
      dxz     :     0.029963
      dyz     :     0.025758
      dx2y2   :     0.016642
      dxy     :     0.009968
      f0      :     0.000721  f :     0.024980
      f+1     :    -0.000323
      f-1     :    -0.000696
      f+2     :     0.002527
      f-2     :     0.002444
      f+3     :     0.021304
      f-3     :    -0.000998

 29 C s       :     3.576718  s :     3.576718
      pz      :     1.146594  p :     3.153789
      px      :     0.930092
      py      :     1.077103
      dz2     :     0.014160  d :     0.146133
      dxz     :     0.026366
      dyz     :     0.068859
      dx2y2   :     0.029148
      dxy     :     0.007599
      f0      :     0.005055  f :     0.033012
      f+1     :     0.001645
      f-1     :     0.004277
      f+2     :     0.005515
      f-2     :     0.002105
      f+3     :     0.010136
      f-3     :     0.004280

 30 H s       :     0.669411  s :     0.669411
      pz      :     0.013891  p :     0.028008
      px      :     0.001113
      py      :     0.013005
      dz2     :     0.001989  d :     0.004979
      dxz     :     0.002062
      dyz     :     0.000237
      dx2y2   :     0.000098
      dxy     :     0.000593

 31 H s       :     0.671699  s :     0.671699
      pz      :     0.013085  p :     0.027469
      px      :     0.001106
      py      :     0.013278
      dz2     :     0.002105  d :     0.004993
      dxz     :     0.002024
      dyz     :     0.000151
      dx2y2   :     0.000092
      dxy     :     0.000620

 32 H s       :     0.668782  s :     0.668782
      pz      :     0.010959  p :     0.029906
      px      :     0.012636
      py      :     0.006312
      dz2     :    -0.000454  d :     0.006709
      dxz     :     0.000950
      dyz     :     0.002467
      dx2y2   :     0.004069
      dxy     :    -0.000323

 33 C s       :     3.627511  s :     3.627511
      pz      :     1.147098  p :     3.156129
      px      :     1.120667
      py      :     0.888364
      dz2     :     0.019596  d :     0.145174
      dxz     :     0.014577
      dyz     :     0.078528
      dx2y2   :     0.002567
      dxy     :     0.029906
      f0      :     0.004902  f :     0.033861
      f+1     :     0.001864
      f-1     :     0.003627
      f+2     :     0.003019
      f-2     :     0.004876
      f+3     :     0.014250
      f-3     :     0.001323

 34 H s       :     0.638134  s :     0.638134
      pz      :     0.009874  p :     0.019839
      px      :     0.003356
      py      :     0.006608
      dz2     :     0.002120  d :     0.005044
      dxz     :     0.000567
      dyz     :     0.001618
      dx2y2   :     0.000645
      dxy     :     0.000094

 35 H s       :     0.638316  s :     0.638316
      pz      :     0.009353  p :     0.019338
      px      :     0.003115
      py      :     0.006870
      dz2     :     0.002214  d :     0.004996
      dxz     :     0.000444
      dyz     :     0.001614
      dx2y2   :     0.000632
      dxy     :     0.000093

 36 H s       :     0.708757  s :     0.708757
      pz      :     0.011108  p :     0.027030
      px      :     0.014847
      py      :     0.001075
      dz2     :    -0.000400  d :     0.006405
      dxz     :     0.003088
      dyz     :     0.000369
      dx2y2   :    -0.000623
      dxy     :     0.003971

 37 H s       :     0.873806  s :     0.873806
      pz      :     0.017005  p :     0.015819
      px      :    -0.018860
      py      :     0.017674
      dz2     :     0.001228  d :     0.011836
      dxz     :     0.000977
      dyz     :     0.004911
      dx2y2   :     0.002189
      dxy     :     0.002530



                     *******************************
                     * LOEWDIN POPULATION ANALYSIS *
                     *******************************

----------------------
LOEWDIN ATOMIC CHARGES
----------------------
   0 S :    1.415015
   1 C :   -0.455311
   2 C :    0.163996
   3 C :   -0.194545
   4 C :    0.256271
   5 C :    0.227736
   6 H :   -0.152727
   7 C :   -0.347070
   8 N :    0.404215
   9 C :   -0.347186
  10 C :    0.227700
  11 C :    0.256282
  12 C :   -0.194579
  13 C :    0.163749
  14 C :   -0.455624
  15 H :   -0.197993
  16 N :    0.267228
  17 C :    0.514858
  18 H :   -0.130091
  19 H :   -0.131020
  20 H :   -0.153069
  21 C :    0.516242
  22 H :   -0.154099
  23 H :   -0.132063
  24 H :   -0.130820
  25 H :   -0.176886
  26 H :   -0.152704
  27 H :   -0.176913
  28 N :    0.267237
  29 C :    0.516234
  30 H :   -0.130932
  31 H :   -0.131913
  32 H :   -0.154112
  33 C :    0.514884
  34 H :   -0.130122
  35 H :   -0.131005
  36 H :   -0.153044
  37 H :   -0.197821

-------------------------------
LOEWDIN REDUCED ORBITAL CHARGES
-------------------------------
  0 S s       :     4.869382  s :     4.869382
      pz      :     3.104594  p :     8.891397
      px      :     2.743320
      py      :     3.043483
      dz2     :     0.064788  d :     0.549543
      dxz     :     0.109512
      dyz     :     0.040161
      dx2y2   :     0.163599
      dxy     :     0.171484
      f0      :     0.024343  f :     0.274662
      f+1     :     0.026437
      f-1     :     0.016047
      f+2     :     0.011463
      f-2     :     0.047494
      f+3     :     0.089871
      f-3     :     0.059008

  1 C s       :     2.501813  s :     2.501813
      pz      :     0.640483  p :     2.360934
      px      :     0.847173
      py      :     0.873279
      dz2     :     0.098583  d :     1.046973
      dxz     :     0.192789
      dyz     :     0.142613
      dx2y2   :     0.259708
      dxy     :     0.353280
      f0      :     0.038251  f :     0.545591
      f+1     :     0.036548
      f-1     :     0.036326
      f+2     :     0.056266
      f-2     :     0.087957
      f+3     :     0.195226
      f-3     :     0.095017

  2 C s       :     2.468791  s :     2.468791
      pz      :     0.645990  p :     2.307254
      px      :     0.837200
      py      :     0.824065
      dz2     :     0.072966  d :     0.709242
      dxz     :     0.132262
      dyz     :     0.041017
      dx2y2   :     0.253226
      dxy     :     0.209771
      f0      :     0.025013  f :     0.350717
      f+1     :     0.033767
      f-1     :     0.020512
      f+2     :     0.027545
      f-2     :     0.045429
      f+3     :     0.122171
      f-3     :     0.076281

  3 C s       :     2.441658  s :     2.441658
      pz      :     0.568427  p :     2.184511
      px      :     0.791779
      py      :     0.824305
      dz2     :     0.092831  d :     1.009231
      dxz     :     0.190319
      dyz     :     0.129992
      dx2y2   :     0.298571
      dxy     :     0.297518
      f0      :     0.034627  f :     0.559145
      f+1     :     0.040272
      f-1     :     0.034887
      f+2     :     0.066734
      f-2     :     0.073675
      f+3     :     0.208627
      f-3     :     0.100324

  4 C s       :     2.470877  s :     2.470877
      pz      :     0.612775  p :     2.273216
[...]
      dx2y2   :     0.043015
      dxy     :     0.014969

 35 H s       :     0.611482  s :     0.611482
      pz      :     0.127377  p :     0.298949
      px      :     0.102426
      py      :     0.069146
      dz2     :     0.076038  d :     0.220573
      dxz     :     0.047291
      dyz     :     0.037058
      dx2y2   :     0.044428
      dxy     :     0.015759

 36 H s       :     0.608388  s :     0.608388
      pz      :     0.087636  p :     0.309425
      px      :     0.146730
      py      :     0.075059
      dz2     :     0.019034  d :     0.235231
      dxz     :     0.085691
      dyz     :     0.005339
      dx2y2   :     0.061064
      dxy     :     0.064105

 37 H s       :     0.621031  s :     0.621031
      pz      :     0.084531  p :     0.334428
      px      :     0.106522
      py      :     0.143375
      dz2     :     0.026158  d :     0.242362
      dxz     :     0.008761
      dyz     :     0.063561
      dx2y2   :     0.060083
      dxy     :     0.083799



                      *****************************
                      * MAYER POPULATION ANALYSIS *
                      *****************************

  NA   - Mulliken gross atomic population
  ZA   - Total nuclear charge
  QA   - Mulliken gross atomic charge
  VA   - Mayer's total valence
  BVA  - Mayer's bonded valence
  FA   - Mayer's free valence

  ATOM       NA         ZA         QA         VA         BVA        FA
  0 S     15.8947    16.0000     0.1053     1.0774     1.0774    -0.0000
  1 C      5.2954     6.0000     0.7046     1.3178     1.3178    -0.0000
  2 C      6.8902     6.0000    -0.8902     1.8804     1.8804     0.0000
  3 C      4.8601     6.0000     1.1399     0.3984     0.3984    -0.0000
  4 C      6.0849     6.0000    -0.0849     2.2099     2.2099     0.0000
  5 C      7.0265     6.0000    -1.0265     2.0674     2.0674    -0.0000
  6 H      0.5327     1.0000     0.4673     0.8244     0.8244    -0.0000
  7 C      5.5517     6.0000     0.4483     2.7752     2.7752     0.0000
  8 N      8.0011     7.0000    -1.0011     1.8804     1.8804    -0.0000
  9 C      5.5524     6.0000     0.4476     2.6599     2.6599     0.0000
 10 C      7.0011     6.0000    -1.0011     2.0462     2.0462    -0.0000
 11 C      6.0464     6.0000    -0.0464     2.2289     2.2289    -0.0000
 12 C      5.0023     6.0000     0.9977     0.8240     0.8240    -0.0000
 13 C      6.9089     6.0000    -0.9089     1.8604     1.8604     0.0000
 14 C      5.2329     6.0000     0.7671     1.2020     1.2020     0.0000
 15 H      0.8926     1.0000     0.1074     1.1262     1.1262     0.0000
 16 N      7.2281     7.0000    -0.2281     2.0556     2.0556     0.0000
 17 C      6.9573     6.0000    -0.9573     3.7292     3.7292     0.0000
 18 H      0.6643     1.0000     0.3357     0.8730     0.8730    -0.0000
 19 H      0.6626     1.0000     0.3374     0.8720     0.8720     0.0000
 20 H      0.7422     1.0000     0.2578     0.9596     0.9596     0.0000
 21 C      6.9376     6.0000    -0.9376     3.7546     3.7546     0.0000
 22 H      0.7053     1.0000     0.2947     0.9280     0.9280    -0.0000
 23 H      0.7036     1.0000     0.2964     0.9325     0.9325     0.0000
 24 H      0.7011     1.0000     0.2989     0.9320     0.9320     0.0000
 25 H      0.5709     1.0000     0.4291     0.6694     0.6694     0.0000
 26 H      0.5259     1.0000     0.4741     0.8259     0.8259     0.0000
 27 H      0.6332     1.0000     0.3668     0.7550     0.7550     0.0000
 28 N      7.2402     7.0000    -0.2402     2.0986     2.0986    -0.0000
 29 C      6.9097     6.0000    -0.9097     3.7549     3.7549    -0.0000
 30 H      0.7024     1.0000     0.2976     0.9333     0.9333    -0.0000
 31 H      0.7042     1.0000     0.2958     0.9335     0.9335    -0.0000
 32 H      0.7054     1.0000     0.2946     0.9245     0.9245    -0.0000
 33 C      6.9627     6.0000    -0.9627     3.7305     3.7305    -0.0000
 34 H      0.6630     1.0000     0.3370     0.8720     0.8720    -0.0000
 35 H      0.6626     1.0000     0.3374     0.8709     0.8709    -0.0000
 36 H      0.7422     1.0000     0.2578     0.9592     0.9592     0.0000
 37 H      0.9015     1.0000     0.0985     1.1514     1.1514    -0.0000

  Mayer bond orders larger than 0.100000
B(  0-S ,  1-C ) :   0.3719 B(  0-S ,  2-C ) :   0.1091 B(  0-S ,  7-C ) :   0.2120 
B(  0-S ,  8-N ) :  -0.1891 B(  0-S ,  9-C ) :   0.2072 B(  0-S , 13-C ) :   0.1130 
B(  0-S , 14-C ) :   0.3614 B(  1-C ,  2-C ) :   0.6001 B(  1-C ,  3-C ) :  -0.2371 
B(  1-C ,  4-C ) :  -0.2288 B(  1-C ,  7-C ) :   0.8419 B(  1-C , 13-C ) :   0.1851 
B(  1-C , 14-C ) :  -0.5595 B(  1-C , 28-N ) :   0.3035 B(  1-C , 33-C ) :   0.1377 
B(  1-C , 37-H ) :   0.1077 B(  2-C ,  3-C ) :   0.3740 B(  2-C ,  4-C ) :  -0.1827 
B(  2-C ,  5-C ) :  -0.1465 B(  2-C ,  7-C ) :   0.4305 B(  2-C ,  9-C ) :  -0.3478 
B(  2-C , 10-C ) :   0.1113 B(  2-C , 11-C ) :  -0.1714 B(  2-C , 13-C ) :   0.1587 
B(  2-C , 14-C ) :   0.2256 B(  2-C , 16-N ) :   0.1762 B(  2-C , 25-H ) :  -0.2961 
B(  2-C , 26-H ) :   0.1605 B(  2-C , 27-H ) :   0.1361 B(  2-C , 28-N ) :  -0.4918 
B(  2-C , 29-C ) :   0.1414 B(  2-C , 33-C ) :  -0.2173 B(  2-C , 37-H ) :   1.1330 
B(  3-C ,  4-C ) :   0.5770 B(  3-C ,  5-C ) :  -0.2310 B(  3-C , 11-C ) :   0.1476 
B(  3-C , 14-C ) :  -0.1288 B(  3-C , 25-H ) :   0.2936 B(  3-C , 27-H ) :  -0.1111 
B(  3-C , 28-N ) :   0.2268 B(  3-C , 29-C ) :  -0.1952 B(  3-C , 33-C ) :  -0.2286 
B(  4-C ,  5-C ) :   1.3409 B(  4-C ,  6-H ) :   0.1029 B(  4-C ,  7-C ) :   0.4216 
B(  4-C ,  8-N ) :   0.1118 B(  4-C , 11-C ) :   0.2422 B(  4-C , 13-C ) :  -0.1157 
B(  4-C , 25-H ) :   0.1623 B(  4-C , 26-H ) :  -0.1466 B(  4-C , 27-H ) :   0.7744 
B(  4-C , 28-N ) :  -0.5085 B(  4-C , 29-C ) :  -0.1425 B(  5-C ,  6-H ) :   0.4396 
B(  5-C ,  7-C ) :  -0.1825 B(  5-C ,  8-N ) :   0.3771 B(  5-C ,  9-C ) :   0.2794 
B(  5-C , 12-C ) :   0.2024 B(  5-C , 14-C ) :   0.1252 B(  5-C , 16-N ) :  -0.1171 
B(  5-C , 26-H ) :  -0.1029 B(  6-H ,  8-N ) :   0.1568 B(  6-H ,  9-C ) :  -0.2120 
B(  6-H , 11-C ) :  -0.2109 B(  6-H , 12-C ) :   0.1608 B(  6-H , 13-C ) :   0.1620 
B(  6-H , 14-C ) :   0.1310 B(  6-H , 25-H ) :  -0.1410 B(  7-C ,  8-N ) :   0.3912 
B(  7-C ,  9-C ) :   0.6833 B(  7-C , 10-C ) :   0.4516 B(  7-C , 12-C ) :  -0.1613 
B(  7-C , 13-C ) :  -0.2850 B(  7-C , 26-H ) :  -0.1166 B(  7-C , 27-H ) :   0.1032 
B(  7-C , 28-N ) :  -0.1425 B(  8-N ,  9-C ) :   0.3124 B(  8-N , 10-C ) :   0.4004 
B(  8-N , 11-C ) :   0.1249 B(  8-N , 14-C ) :  -0.1189 B(  8-N , 26-H ) :   0.1824 
B(  9-C , 10-C ) :  -0.1726 B(  9-C , 11-C ) :   0.4220 B(  9-C , 13-C ) :   0.4166 
B(  9-C , 14-C ) :   0.8291 B(  9-C , 16-N ) :  -0.1360 B(  9-C , 27-H ) :   0.2130 
B( 10-C , 11-C ) :   1.3027 B( 10-C , 12-C ) :  -0.1667 B( 10-C , 13-C ) :  -0.2005 
B( 10-C , 26-H ) :   0.4420 B( 10-C , 28-N ) :  -0.1181 B( 11-C , 12-C ) :   0.7289 
B( 11-C , 13-C ) :  -0.1844 B( 11-C , 14-C ) :  -0.2502 B( 11-C , 16-N ) :  -0.5528 
B( 11-C , 21-C ) :  -0.1781 B( 11-C , 25-H ) :   0.7341 B( 11-C , 26-H ) :   0.1065 
B( 11-C , 27-H ) :   0.2487 B( 11-C , 28-N ) :  -0.1323 B( 12-C , 13-C ) :   0.4325 
B( 12-C , 14-C ) :  -0.2221 B( 12-C , 16-N ) :   0.2379 B( 12-C , 17-C ) :  -0.1357 
B( 12-C , 21-C ) :  -0.1858 B( 12-C , 27-H ) :  -0.1486 B( 13-C , 14-C ) :   0.6226 
B( 13-C , 15-H ) :   1.1297 B( 13-C , 16-N ) :  -0.4835 B( 13-C , 17-C ) :  -0.2853 
B( 13-C , 21-C ) :   0.2068 B( 13-C , 25-H ) :   0.1108 B( 13-C , 27-H ) :  -0.3658 
B( 13-C , 28-N ) :   0.2378 B( 14-C , 16-N ) :   0.2966 B( 14-C , 17-C ) :   0.1160 
B( 14-C , 27-H ) :  -0.2137 B( 14-C , 28-N ) :   0.1105 B( 16-N , 17-C ) :   1.2882 
B( 16-N , 21-C ) :   1.2942 B( 17-C , 18-H ) :   0.8532 B( 17-C , 19-H ) :   0.8507 
B( 17-C , 20-H ) :   0.9566 B( 21-C , 22-H ) :   0.8732 B( 21-C , 23-H ) :   0.9115 
B( 21-C , 24-H ) :   0.9140 B( 21-C , 25-H ) :  -0.1024 B( 25-H , 28-N ) :  -0.1596 
B( 28-N , 29-C ) :   1.2808 B( 28-N , 33-C ) :   1.3010 B( 29-C , 30-H ) :   0.9124 
B( 29-C , 31-H ) :   0.9079 B( 29-C , 32-H ) :   0.8724 B( 33-C , 34-H ) :   0.8524 
B( 33-C , 35-H ) :   0.8509 B( 33-C , 36-H ) :   0.9512 

-------
TIMINGS
-------

Total SCF time: 0 days 0 hours 27 min 43 sec 

Total time                  ....    1663.914 sec
Sum of individual times     ....    1663.646 sec  (100.0%)

SCF preparation             ....       6.852 sec  (  0.4%)
Fock matrix formation       ....    1626.784 sec  ( 97.8%)
  Startup                   ....       1.130 sec  (  0.1% of F)
  Split-RI-J                ....      98.530 sec  (  6.1% of F)
  Chain of spheres X        ....    1266.237 sec  ( 77.8% of F)
  XC integration            ....     211.272 sec  ( 13.0% of F)
    XC Preparation          ....       0.000 sec  (  0.0% of XC)
    Basis function eval.    ....      34.597 sec  ( 16.4% of XC)
    Density eval.           ....      65.948 sec  ( 31.2% of XC)
    XC-Functional eval.     ....       1.249 sec  (  0.6% of XC)
    XC-Potential eval.      ....     106.841 sec  ( 50.6% of XC)
  CPCM terms                ....      45.645 sec  (  2.8% of F)
Diagonalization             ....       0.000 sec  (  0.0%)
Density matrix formation    ....       3.196 sec  (  0.2%)
Total Energy calculation    ....       1.549 sec  (  0.1%)
Population analysis         ....       0.705 sec  (  0.0%)
Orbital Transformation      ....       2.270 sec  (  0.1%)
Orbital Orthonormalization  ....       0.000 sec  (  0.0%)
DIIS solution               ....      17.990 sec  (  1.1%)
SOSCF solution              ....       4.299 sec  (  0.3%)
Finished LeanSCF after 1664.3 sec

Maximum memory used throughout the entire LEANSCF-calculation: 320.1 MB


-------------------------------------------------------------------------------
                          DFT DISPERSION CORRECTION                            
                                                                               
                              DFTD3 V3.1  Rev 1                                
                          USING Becke-Johnson damping                          
-------------------------------------------------------------------------------
The PBE0 functional is recognized
Active option DFTDOPT                   ...         4   

molecular C6(AA) [au] = 17381.020161 


            DFT-D V3
 parameters
 s6 scaling factor         :     1.0000 
 a1 scaling factor         :     0.4145 
 s8 scaling factor         :     1.2177 
 a2 scaling factor         :     4.8593 
 ad hoc parameters k1-k3   :    16.0000     1.3333    -4.0000 

 Edisp/kcal,au: -28.026031526637  -0.044662319368 
 E6   /kcal   : -17.403538285 
 E8   /kcal   : -10.622493241 
 % E8         :  37.902238250 

-------------------------   ----------------
Dispersion correction           -0.044662319
-------------------------   ----------------


-------------------------   --------------------
FINAL SINGLE POINT ENERGY     -1182.109859395874
-------------------------   --------------------



           ************************************************************
           *        Program running with 4 parallel MPI-processes     *
           *              working on a common directory               *
           ************************************************************

------------------------------------------------------------------------------
                              ORCA PROPERTY CALCULATIONS
------------------------------------------------------------------------------

GBWName                                 ... cs_rporg_184_ox_solv_04.gbw
Number of atoms                         ...     38
Number of basis functions               ...   1477
Max core memory                         ...   3000 MB

Electric properties:
Dipole moment                           ... YES
Quadrupole moment                       ...  NO
Static polarizability (Dipole/Dipole)   ...  NO
Static polarizability (Dipole/Quad.)    ...  NO
Static polarizability (Quad./Quad.)     ...  NO
Static polarizability (Velocity)        ...  NO

Atomic electric properties:
Dipole moment                           ...  NO
Quadrupole moment                       ...  NO
Static polarizability                   ...  NO

Choice of electric origin               ... Center of mass
Position of electric origin             ...    -0.000130     0.010539    -0.001239

General magnetic properties:
Magnetizability                         ...  NO

EPR properties:
g-Tensor (aka g-matrix)                 ...  NO
Zero-Field splitting spin-orbit         ...  NO
Zero-field splitting spin-spin          ...  NO
Hyperfine couplings                     ...  NO (   0 nuclei)
Quadrupole couplings                    ...  NO (   0 nuclei)
Contact density                         ...  NO (   0 nuclei)

NMR properties:
Chemical shifts                         ...  NO (   0 nuclei)
Spin-rotation constants                 ...  NO (   0 nuclei)
Spin-spin couplings                     ...  NO (   0 nuclei,    0 pairs)

Choice of magnetic origin               ... GIAO
Position of magnetic origin             ...     0.000000     0.000000     0.000000

Properties with geometric perturbations:
SCF Hessian                             ...  NO
IR spectrum                             ...  NO
VCD spectrum                            ...  NO
X-ray spectroscopy properties:
SCF XES/XAS/RIXS spectra                ...  NO


-------------
DIPOLE MOMENT
-------------

Method             : SCF
Type of density    : Electron Density
Multiplicity       :   1
Irrep              :   0
Energy             : -1182.0651970765059104 Eh
Relativity type    : 
Basis              : AO
                                X                 Y                 Z
Electronic contribution:     -0.003484700      -3.326119779       0.000100461
Nuclear contribution   :     -0.000160838       4.600849614       0.000182721
                        -----------------------------------------
Total Dipole Moment    :     -0.003645538       1.274729835       0.000283182
                        -----------------------------------------
Magnitude (a.u.)       :      1.274735080
Magnitude (Debye)      :      3.240119076



--------------------
Rotational spectrum 
--------------------
 
Rotational constants in cm-1:             0.035338             0.004431             0.003949 
Rotational constants in MHz :          1059.419573           132.841416           118.400139 

Dipole components along the rotational axes: 
x,y,z [a.u.] :    -0.003608    -1.274730     0.000107 
x,y,z [Debye]:    -0.009171    -3.240106     0.000272 

 

Dipole moment calculation done in   0.1 sec 

Maximum memory used throughout the entire PROP-calculation: 195.0 MB

--------------------------------
SUGGESTED CITATIONS FOR THIS RUN
--------------------------------

Below you find a list of papers that are relevant to this ORCA run
We neither can nor want to force you to cite these papers, but we appreciate if you do
You receive ORCA, which is the product of decades of hard work by many enthusiastic individuals, for free
The only thing we kindly ask in return is that you cite our papers,
We deeply appreciate it, if you show your appreciation for ORCA by not just citing the generic ORCA reference.

Please note that relegating all ORCA citations to the supporting information does *not* help us.
SI sections are not indexed - citations you put there will not count into any citation statistics
But we need these citations in order to attract the funding resources that allow us to do what we are doing

Therefore, if you are a happy ORCA user, please consider citing a few of the papers listed below in the main body of your paper

In addition to the list printed below, the program has created the file cs_rporg_184_ox_solv_04.bibtex that contains the list in bibtex format
You can import this file easily into all common literature databanks and citation aid programs


List of essential papers. We consider these as the minimum necessary citations

  1. Neese,F.
     Software update: the ORCA program system, version 5.0
     WIRES Comput. Molec. Sci., 2022 12(1)e1606
     doi.org/10.1002/wcms.1606

List of papers to cite with high priority. The work reported in these papers was absolutely
necessary for this run to complete.
Our perspective: the developers of density functionals and basis sets usually get cited in chemistry papers
Good! But without the algorithms to do something with them, the functionals or basis sets would not do anything.
Hence, in our opinion, the algorithm design and method developments papers are equally worthy of getting cited

  1. Neese,F.
     An improvement of the resolution of the identity approximation for the formation of the Coulomb matrix
     J. Comp. Chem., 2003 24(14)1740-1747
     doi.org/10.1002/jcc.10318
  2. Neese,F.; Wennmohs,F.; Hansen,A.; Becker,U.
     Efficient, approximate and parallel Hartree-Fock and hybrid DFT calculations. A 'chain-of-spheres' algorithm for the Hartree-Fock exchange
     Chem. Phys., 2009 356(1-3)98-109
     doi.org/10.1016/j.chemphys.2008.10.036
  3. Garcia-Rates,M.; Neese,F.
     Effect of the Solute Cavity on the Solvation Energy and its Derivatives within the Framework of the Gaussian Charge Scheme
     J. Comput. Chem., 2020 41 922-939
     doi.org/10.1002/jcc.26139
  4. Helmich-Paris,B.; de Souza,B.; Neese,F.; Izsák,R.
     An improved chain of spheres for exchange algorithm
     J. Chem. Phys., 2021 155 104109
     doi.org/doi: 10.1063/5.0058766.
  5. Neese,F.
     The SHARK Integral Generation and Digestion System
     J. Comp. Chem., 2022  1-16
     doi.org/10.1002/jcc.26942
  6. Grimme,S.; Antony,J.; Ehrlich,S.; Krieg,H.
     A consistent and accurate ab initio parametrization of density functional dispersion correction (DFT-D) for the 94 elements H-Pu
     J. Chem. Phys., 2010 132 154104-XXXX
     doi.org/10.1063/1.3382344
  7. Grimme,S.; Ehrlich,S.; Goerigk,L.
     Effect of the damping function in dispersion corrected density functional theory
     J. Comput. Chem., 2011 32(7)1456-1465
     doi.org/10.1002/jcc.21759

List of suggested additional citations. These are papers that are important in the 'surrounding' of 
of this run, or papers that preceded the highly important papers. If you like your results we are grateful for a citation.

  1. Izsak,R.; Neese,F.
     An overlap fitted chain of spheres exchange method
     J. Chem. Phys., 2011 135 144105
     doi.org/10.1063/1.3646921
  2. Izsak,R.; Hansen,A.; Neese,F.
     The resolution of identity and chain of spheres approximations for the LPNO-CCSD singles Fock term
     Molec. Phys., 2012 110 2413-2417
     doi.org/10.1080/00268976.2012.687466
  3. Neese,F.
     The ORCA program system
     WIRES Comput. Molec. Sci., 2012 2(1)73-78
     doi.org/10.1002/wcms.81
  4. Izsak,R.; Neese,F.; Klopper,W.
     Robust fitting techniques in the chain of spheres approximation to the Fock exchange: The role of the complementary space
     J. Chem. Phys., 2013 139 
     doi.org/10.1063/1.4819264
  5. Neese,F.
     Software update: the ORCA program system, version 4.0
     WIRES Comput. Molec. Sci., 2018 8(1)1-6
     doi.org/10.1002/wcms.1327
  6. Neese,F.; Wennmohs,F.; Becker,U.; Riplinger,C.
     The ORCA quantum chemistry program package
     J. Chem. Phys., 2020 152 Art. No. L224108
     doi.org/10.1063/5.0004608

List of optional additional citations

  1. Neese,F.
     Approximate second-order SCF convergence for spin unrestricted wavefunctions
     Chem. Phys. Lett., 2000 325(1-3)93-98
     doi.org/10.1016/s0009-2614(00)00662-x

Timings for individual modules:

Sum of individual times          ...     1711.236 sec (=  28.521 min)
Startup calculation              ...       25.284 sec (=   0.421 min)   1.5 %
SCF iterations                   ...     1683.550 sec (=  28.059 min)  98.4 %
Property calculations            ...        2.403 sec (=   0.040 min)   0.1 %
                             ****ORCA TERMINATED NORMALLY****
TOTAL RUN TIME: 0 days 0 hours 28 minutes 34 seconds 907 msec
