 vasp.5.4.4.18Apr17-6-g9f103f2a35 (build May 01 2020 14:57:12) complex          
  
 executed on             LinuxIFC date 2024.10.10  12:56:01
 running on   60 total cores
 distrk:  each k-point on   60 cores,    1 groups
 distr:  one band on NCORES_PER_BAND=  10 cores,    6 groups


--------------------------------------------------------------------------------------------------------


 INCAR:
 POTCAR:    PAW_PBE C 08Apr2002                   
 POTCAR:    PAW_PBE Cl 06Sep2000                  
 POTCAR:    PAW_PBE O 08Apr2002                   
 POTCAR:    PAW_PBE H 15Jun2001                   
 POTCAR:    PAW_PBE C 08Apr2002                   
   SHA256 =  253f7b50bb8d59471dbedb8285d89021f4a42ed1a2c5d38a03a736e69125dd95 C/
   COPYR  = (c) Copyright 08Apr2002 Georg Kresse                                
   COPYR  = This file is part of the software VASP. Any use, copying, and all ot
   COPYR  = If you do not have a valid VASP license, you may not use, copy or di
   VRHFIN =C: s2p2                                                              
   LEXCH  = PE                                                                  
   EATOM  =   147.1560 eV,   10.8157 Ry                                         
                                                                                
   TITEL  = PAW_PBE C 08Apr2002                                                 
   LULTRA =        F    use ultrasoft PP ?                                      
   IUNSCR =        1    unscreen: 0-lin 1-nonlin 2-no                           
   RPACOR =    1.200    partial core radius                                     
   POMASS =   12.011; ZVAL   =    4.000    mass and valenz                      
   RCORE  =    1.500    outmost cutoff radius                                   
   RWIGS  =    1.630; RWIGS  =    0.863    wigner-seitz radius (au A)           
   ENMAX  =  400.000; ENMIN  =  300.000 eV                                      
   ICORE  =        2    local potential                                         
   LCOR   =        T    correct aug charges                                     
   LPAW   =        T    paw PP                                                  
   EAUG   =  644.873                                                            
   DEXC   =    0.000                                                            
   RMAX   =    1.529    core radius for proj-oper                               
   RAUG   =    1.300    factor for augmentation sphere                          
   RDEP   =    1.501    radius for radial grids                                 
   RDEPT  =    1.300    core radius for aug-charge                              
                                                                                
   Atomic configuration                                                         
    4 entries                                                                   
     n  l   j            E        occ.                                          
     1  0  0.50      -273.3789   2.0000                                         
     2  0  0.50       -13.7508   2.0000                                         
     2  1  0.50        -5.2854   2.0000                                         
     3  2  1.50        -5.4423   0.0000                                         
   Description                                                                  
     l       E           TYP  RCUT    TYP  RCUT                                 
     0    -13.7508458     23  1.200                                             
     0     -8.2022199     23  1.200                                             
     1     -5.2854383     23  1.500                                             
     1     34.0145650     23  1.500                                             
     2     -5.4423304      7  1.500                                             
  local pseudopotential read in
  partial core-charges read in
  partial kinetic energy density read in
  atomic valenz-charges read in
  non local Contribution for L=           0  read in
    real space projection operators read in
  non local Contribution for L=           0  read in
    real space projection operators read in
  non local Contribution for L=           1  read in
    real space projection operators read in
  non local Contribution for L=           1  read in
    real space projection operators read in
    PAW grid and wavefunctions read in
 
   number of l-projection  operators is LMAX  =           4
   number of lm-projection operators is LMMAX =           8
 
 POTCAR:    PAW_PBE Cl 06Sep2000                  
   SHA256 =  9f1b6e6ed4247ac726a768b330d26d7667cc3c95a39ff49c1d064c2d9dcce931 Cl
   COPYR  = (c) Copyright 06Sep2000 Georg Kresse                                
   COPYR  = This file is part of the software VASP. Any use, copying, and all ot
   COPYR  = If you do not have a valid VASP license, you may not use, copy or di
   VRHFIN =Cl: s2p5                                                             
   LEXCH  = PE                                                                  
   EATOM  =   409.7259 eV,   30.1140 Ry                                         
                                                                                
   TITEL  = PAW_PBE Cl 06Sep2000                                                
   LULTRA =        F    use ultrasoft PP ?                                      
   IUNSCR =        1    unscreen: 0-lin 1-nonlin 2-no                           
   RPACOR =    1.500    partial core radius                                     
   POMASS =   35.453; ZVAL   =    7.000    mass and valenz                      
   RCORE  =    1.900    outmost cutoff radius                                   
   RWIGS  =    2.100; RWIGS  =    1.111    wigner-seitz radius (au A)           
   ENMAX  =  262.472; ENMIN  =  196.854 eV                                      
   ICORE  =        2    local potential                                         
   LCOR   =        T    correct aug charges                                     
   LPAW   =        T    paw PP                                                  
   EAUG   =  356.192                                                            
   DEXC   =    0.000                                                            
   RMAX   =    1.945    core radius for proj-oper                               
   RAUG   =    1.300    factor for augmentation sphere                          
   RDEP   =    2.020    radius for radial grids                                 
   RDEPT  =    1.678    core radius for aug-charge                              
                                                                                
   Atomic configuration                                                         
    6 entries                                                                   
     n  l   j            E        occ.                                          
     1  0  0.50     -2751.1850   2.0000                                         
     2  0  0.50      -252.6861   2.0000                                         
     2  1  1.50      -191.6157   6.0000                                         
     3  0  0.50       -20.6916   2.0000                                         
     3  1  0.50        -8.5949   5.0000                                         
     3  2  1.50        -8.1635   0.0000                                         
   Description                                                                  
     l       E           TYP  RCUT    TYP  RCUT                                 
     0    -20.6915656     23  1.900                                             
     0    -22.0521482     23  1.900                                             
     1     -8.5948577     23  1.900                                             
     1     -5.3847331     23  1.900                                             
     2     -8.1634956     23  1.900                                             
  local pseudopotential read in
  partial core-charges read in
  partial kinetic energy density read in
  atomic valenz-charges read in
  non local Contribution for L=           0  read in
    real space projection operators read in
  non local Contribution for L=           0  read in
    real space projection operators read in
  non local Contribution for L=           1  read in
    real space projection operators read in
  non local Contribution for L=           1  read in
    real space projection operators read in
    PAW grid and wavefunctions read in
 
   number of l-projection  operators is LMAX  =           4
   number of lm-projection operators is LMMAX =           8
 
 POTCAR:    PAW_PBE O 08Apr2002                   
   SHA256 =  818f92134a0a090dccd8ba1447fa70422a3b330e708bb4f08108d8ae51209ddf O/
   COPYR  = (c) Copyright 08Apr2002 Georg Kresse                                
   COPYR  = This file is part of the software VASP. Any use, copying, and all ot
   COPYR  = If you do not have a valid VASP license, you may not use, copy or di
   VRHFIN =O: s2p4                                                              
   LEXCH  = PE                                                                  
   EATOM  =   432.3788 eV,   31.7789 Ry                                         
                                                                                
   TITEL  = PAW_PBE O 08Apr2002                                                 
   LULTRA =        F    use ultrasoft PP ?                                      
   IUNSCR =        1    unscreen: 0-lin 1-nonlin 2-no                           
   RPACOR =    1.200    partial core radius                                     
   POMASS =   16.000; ZVAL   =    6.000    mass and valenz                      
   RCORE  =    1.520    outmost cutoff radius                                   
   RWIGS  =    1.550; RWIGS  =    0.820    wigner-seitz radius (au A)           
   ENMAX  =  400.000; ENMIN  =  300.000 eV                                      
   ICORE  =        2    local potential                                         
   LCOR   =        T    correct aug charges                                     
   LPAW   =        T    paw PP                                                  
   EAUG   =  605.392                                                            
   DEXC   =    0.000                                                            
   RMAX   =    1.553    core radius for proj-oper                               
   RAUG   =    1.300    factor for augmentation sphere                          
   RDEP   =    1.550    radius for radial grids                                 
   RDEPT  =    1.329    core radius for aug-charge                              
                                                                                
   Atomic configuration                                                         
    4 entries                                                                   
     n  l   j            E        occ.                                          
     1  0  0.50      -514.6923   2.0000                                         
     2  0  0.50       -23.9615   2.0000                                         
     2  1  0.50        -9.0305   4.0000                                         
     3  2  1.50        -9.5241   0.0000                                         
   Description                                                                  
     l       E           TYP  RCUT    TYP  RCUT                                 
     0    -23.9615318     23  1.200                                             
     0     -9.5240782     23  1.200                                             
     1     -9.0304911     23  1.520                                             
     1      8.1634956     23  1.520                                             
     2     -9.5240782      7  1.500                                             
  local pseudopotential read in
  partial core-charges read in
  partial kinetic energy density read in
  kinetic energy density of atom read in
  atomic valenz-charges read in
  non local Contribution for L=           0  read in
    real space projection operators read in
  non local Contribution for L=           0  read in
    real space projection operators read in
  non local Contribution for L=           1  read in
    real space projection operators read in
  non local Contribution for L=           1  read in
    real space projection operators read in
    PAW grid and wavefunctions read in
 
   number of l-projection  operators is LMAX  =           4
   number of lm-projection operators is LMMAX =           8
 
 POTCAR:    PAW_PBE H 15Jun2001                   
   SHA256 =  030f79b5d3ab3cf0e668861823c8fb652ff669f3e15e46930bd03bfd63a607b6 H/
   COPYR  = (c) Copyright 15Jun2001 Georg Kresse                                
   COPYR  = This file is part of the software VASP. Any use, copying, and all ot
   COPYR  = If you do not have a valid VASP license, you may not use, copy or di
   VRHFIN =H: ultrasoft test                                                    
   LEXCH  = PE                                                                  
   EATOM  =    12.4884 eV,    0.9179 Ry                                         
                                                                                
   TITEL  = PAW_PBE H 15Jun2001                                                 
   LULTRA =        F    use ultrasoft PP ?                                      
   IUNSCR =        0    unscreen: 0-lin 1-nonlin 2-no                           
   RPACOR =    0.000    partial core radius                                     
   POMASS =    1.000; ZVAL   =    1.000    mass and valenz                      
   RCORE  =    1.100    outmost cutoff radius                                   
   RWIGS  =    0.700; RWIGS  =    0.370    wigner-seitz radius (au A)           
   ENMAX  =  250.000; ENMIN  =  200.000 eV                                      
   RCLOC  =    0.701    cutoff for local pot                                    
   LCOR   =        T    correct aug charges                                     
   LPAW   =        T    paw PP                                                  
   EAUG   =  400.000                                                            
   RMAX   =    1.123    core radius for proj-oper                               
   RAUG   =    1.200    factor for augmentation sphere                          
   RDEP   =    1.112    radius for radial grids                                 
   RDEPT  =    0.926    core radius for aug-charge                              
                                                                                
   Atomic configuration                                                         
    2 entries                                                                   
     n  l   j            E        occ.                                          
     1  0  0.50        -6.4927   1.0000                                         
     2  1  0.50        -3.4015   0.0000                                         
   Description                                                                  
     l       E           TYP  RCUT    TYP  RCUT                                 
     0     -6.4927494     23  1.100                                             
     0      6.8029130     23  1.100                                             
     1     -4.0817478     23  1.100                                             
  local pseudopotential read in
  atomic valenz-charges read in
  non local Contribution for L=           0  read in
    real space projection operators read in
  non local Contribution for L=           0  read in
    real space projection operators read in
  non local Contribution for L=           1  read in
    real space projection operators read in
    PAW grid and wavefunctions read in
 
   number of l-projection  operators is LMAX  =           3
   number of lm-projection operators is LMMAX =           5
 
 Optimization of the real space projectors (new method)

 maximal supplied QI-value         = 25.13
 optimisation between [QCUT,QGAM] = [ 11.31, 22.87] = [ 35.82,146.48] Ry 
 Optimized for a Real-space Cutoff    1.03 Angstroem

   l    n(q)    QCUT    max X(q) W(low)/X(q) W(high)/X(q)  e(spline) 
   0      7    11.310   115.676    0.20E-03    0.90E-03    0.20E-06
   0      7    11.310    87.132    0.20E-03    0.89E-03    0.19E-06
   1      6    11.310     4.429    0.16E-03    0.28E-03    0.12E-06
   1      6    11.310     2.733    0.12E-03    0.21E-03    0.99E-07
 Optimization of the real space projectors (new method)

 maximal supplied QI-value         = 19.84
 optimisation between [QCUT,QGAM] = [ 11.31, 22.82] = [ 35.82,145.81] Ry 
 Optimized for a Real-space Cutoff    1.20 Angstroem

   l    n(q)    QCUT    max X(q) W(low)/X(q) W(high)/X(q)  e(spline) 
   0      8    11.310   168.010    0.15E-03    0.18E-03    0.47E-07
   0      8    11.310   164.674    0.14E-03    0.17E-03    0.46E-07
   1      8    11.310    69.222    0.18E-03    0.20E-03    0.94E-07
   1      8    11.310    56.786    0.17E-03    0.19E-03    0.92E-07
 Optimization of the real space projectors (new method)

 maximal supplied QI-value         = 24.76
 optimisation between [QCUT,QGAM] = [ 11.39, 22.77] = [ 36.31,145.25] Ry 
 Optimized for a Real-space Cutoff    1.10 Angstroem

   l    n(q)    QCUT    max X(q) W(low)/X(q) W(high)/X(q)  e(spline) 
   0      7    11.387    20.381    0.22E-03    0.48E-03    0.18E-06
   0      7    11.387    15.268    0.22E-03    0.52E-03    0.19E-06
   1      7    11.387     5.964    0.22E-03    0.73E-03    0.24E-06
   1      7    11.387     5.382    0.19E-03    0.60E-03    0.21E-06
 Optimization of the real space projectors (new method)

 maximal supplied QI-value         = 34.20
 optimisation between [QCUT,QGAM] = [ 11.29, 22.57] = [ 35.68,142.71] Ry 
 Optimized for a Real-space Cutoff    1.20 Angstroem

   l    n(q)    QCUT    max X(q) W(low)/X(q) W(high)/X(q)  e(spline) 
   0      8    11.287    19.460    0.22E-03    0.50E-03    0.19E-06
   0      8    11.287    12.209    0.21E-03    0.48E-03    0.18E-06
   1      8    11.287     4.655    0.21E-03    0.11E-04    0.26E-06
  PAW_PBE C 08Apr2002                   :
 energy of atom  1       EATOM= -147.1560
 kinetic energy error for atom=    0.0076 (will be added to EATOM!!)
  PAW_PBE Cl 06Sep2000                  :
 energy of atom  2       EATOM= -409.7259
 kinetic energy error for atom=    0.0030 (will be added to EATOM!!)
  PAW_PBE O 08Apr2002                   :
 energy of atom  3       EATOM= -432.3788
 kinetic energy error for atom=    0.0224 (will be added to EATOM!!)
  PAW_PBE H 15Jun2001                   :
 energy of atom  4       EATOM=  -12.4884
 kinetic energy error for atom=    0.0020 (will be added to EATOM!!)
 
 
 POSCAR: C Cl O H                                
  positions in direct lattice
  velocities in cartesian coordinates
 exchange correlation table for  LEXCH =        8
   RHO(1)=    0.500       N(1)  =     2000
   RHO(2)=  100.500       N(2)  =     4000
 


--------------------------------------------------------------------------------------------------------


 ion  position               nearest neighbor table
   1  0.497  0.469  0.500-  14 1.09   2 1.39   6 1.41
   2  0.463  0.476  0.500-  13 1.09   1 1.39   3 1.40
   3  0.452  0.510  0.500-  12 1.09   4 1.40   2 1.40
   4  0.476  0.536  0.500-  11 1.09   5 1.39   3 1.40
   5  0.510  0.528  0.500-  10 1.09   4 1.39   6 1.41
   6  0.521  0.495  0.500-   5 1.41   1 1.41   7 1.47
   7  0.556  0.485  0.500-   9 1.21   6 1.47   8 1.82
   8  0.586  0.519  0.500-   7 1.82
   9  0.567  0.457  0.500-   7 1.21
  10  0.528  0.549  0.500-   5 1.09
  11  0.467  0.562  0.500-   4 1.09
  12  0.426  0.515  0.500-   3 1.09
  13  0.445  0.456  0.500-   2 1.09
  14  0.506  0.443  0.500-   1 1.09
 
  LATTYP: Found a simple cubic cell.
 ALAT       =    40.0000000000
  
  Lattice vectors:
  
 A1 = (  40.0000000000,   0.0000000000,   0.0000000000)
 A2 = (   0.0000000000,  40.0000000000,   0.0000000000)
 A3 = (   0.0000000000,   0.0000000000,  40.0000000000)


Analysis of symmetry for initial positions (statically):
=====================================================================
 Subroutine PRICEL returns:
 Original cell was already a primitive cell.
 

 Routine SETGRP: Setting up the symmetry group for a 
 simple cubic supercell.


 Subroutine GETGRP returns: Found  1 space group operations
 (whereof  1 operations were pure point group operations)
 out of a pool of 48 trial point group operations.


The static configuration has the point symmetry C_1 .


Analysis of symmetry for dynamics (positions and initial velocities):
=====================================================================
 Subroutine PRICEL returns:
 Original cell was already a primitive cell.
 

 Routine SETGRP: Setting up the symmetry group for a 
 simple cubic supercell.


 Subroutine GETGRP returns: Found  1 space group operations
 (whereof  1 operations were pure point group operations)
 out of a pool of 48 trial point group operations.


The dynamic configuration has the point symmetry C_1 .


Analysis of constrained symmetry for selective dynamics:
=====================================================================
 Subroutine PRICEL returns:
 Original cell was already a primitive cell.
 

 Routine SETGRP: Setting up the symmetry group for a 
 simple cubic supercell.


 Subroutine GETGRP returns: Found  1 space group operations
 (whereof  1 operations were pure point group operations)
 out of a pool of 48 trial point group operations.


The constrained configuration has the point symmetry C_1 .


Analysis of structural, dynamic, and magnetic symmetry:
=====================================================================
 Subroutine PRICEL returns:
 Original cell was already a primitive cell.
 

 Routine SETGRP: Setting up the symmetry group for a 
 simple cubic supercell.


 Subroutine GETGRP returns: Found  1 space group operations
 (whereof  1 operations were pure point group operations)
 out of a pool of 48 trial point group operations.


The magnetic configuration has the point symmetry C_1 .


 Subroutine INISYM returns: Found  1 space group operations
 (whereof  1 operations are pure point group operations),
 and found     1 'primitive' translations

 
 
 KPOINTS: K-Point Grid                            

Automatic generation of k-mesh.
Space group operators:
 irot       det(A)        alpha          n_x          n_y          n_z        tau_x        tau_y        tau_z
    1     1.000000     0.000000     1.000000     0.000000     0.000000     0.000000     0.000000     0.000000
 
 Subroutine IBZKPT returns following result:
 ===========================================
 
 Found      1 irreducible k-points:
 
 Following reciprocal coordinates:
            Coordinates               Weight
  0.000000  0.000000  0.000000      1.000000
 
 Following cartesian coordinates:
            Coordinates               Weight
  0.000000  0.000000  0.000000      1.000000
 


--------------------------------------------------------------------------------------------------------




 Dimension of arrays:
   k-points           NKPTS =      1   k-points in BZ     NKDIM =      1   number of bands    NBANDS=     42
   number of dos      NEDOS =    301   number of ions     NIONS =     14
   non local maximal  LDIM  =      4   non local SUM 2l+1 LMDIM =      8
   total plane-waves  NPLWV = ******
   max r-space proj   IRMAX =   2915   max aug-charges    IRDMAX=  11613
   dimension x,y,z NGX =   294 NGY =  294 NGZ =  294
   dimension x,y,z NGXF=   588 NGYF=  588 NGZF=  588
   support grid    NGXF=   588 NGYF=  588 NGZF=  588
   ions per type =               7   1   1   5
   NGX,Y,Z   is equivalent  to a cutoff of  12.22, 12.22, 12.22 a.u.
   NGXF,Y,Z  is equivalent  to a cutoff of  24.44, 24.44, 24.44 a.u.

 SYSTEM =  113_red                                 
 POSCAR =  C Cl O H                                

 Startparameter for this run:
   NWRITE =      2    write-flag & timer
   PREC   = accura    normal or accurate (medium, high low for compatibility)
   ISTART =      0    job   : 0-new  1-cont  2-samecut
   ICHARG =      2    charge: 1-file 2-atom 10-const
   ISPIN  =      2    spin polarized calculation?
   LNONCOLLINEAR =      F non collinear calculations
   LSORBIT =      F    spin-orbit coupling
   INIWAV =      1    electr: 0-lowe 1-rand  2-diag
   LASPH  =      F    aspherical Exc in radial PAW
   METAGGA=      F    non-selfconsistent MetaGGA calc.

 Electronic Relaxation 1
   ENCUT  =  500.0 eV  36.75 Ry    6.06 a.u.  72.93 72.93 72.93*2*pi/ulx,y,z
   ENINI  =  500.0     initial cutoff
   ENAUG  =  644.9 eV  augmentation charge cutoff
   NELM   =    100;   NELMIN=  2; NELMDL= -5     # of ELM steps 
   EDIFF  = 0.1E-04   stopping-criterion for ELM
   LREAL  =      T    real-space projection
   NLSPLINE    = F    spline interpolate recip. space projectors
   LCOMPAT=      F    compatible to vasp.4.4
   GGA_COMPAT  = T    GGA compatible to vasp.4.4-vasp.4.6
   LMAXPAW     = -100 max onsite density
   LMAXMIX     =    2 max onsite mixed and CHGCAR
   VOSKOWN=      0    Vosko Wilk Nusair interpolation
   ROPT   =   -0.00025  -0.00025  -0.00025  -0.00025
 Ionic relaxation
   EDIFFG = -.2E-01   stopping-criterion for IOM
   NSW    =    100    number of steps for IOM
   NBLOCK =      1;   KBLOCK =    100    inner block; outer block 
   IBRION =      2    ionic relax: 0-MD 1-quasi-New 2-CG
   NFREE  =      1    steps in history (QN), initial steepest desc. (CG)
   ISIF   =      2    stress and relaxation
   IWAVPR =     11    prediction:  0-non 1-charg 2-wave 3-comb
   ISYM   =      2    0-nonsym 1-usesym 2-fastsym
   LCORR  =      T    Harris-Foulkes like correction to forces

   POTIM  = 0.5000    time-step for ionic-motion
   TEIN   =    0.0    initial temperature
   TEBEG  =    0.0;   TEEND  =   0.0 temperature during run
   SMASS  =  -3.00    Nose mass-parameter (am)
   estimated Nose-frequenzy (Omega)   =  0.10E-29 period in steps =****** mass=  -0.366E-25a.u.
   SCALEE = 1.0000    scale energy and forces
   NPACO  =    256;   APACO  = 16.0  distance and # of slots for P.C.
   PSTRESS=    0.0 pullay stress

  Mass of Ions in am
   POMASS =  12.01 35.45 16.00  1.00
  Ionic Valenz
   ZVAL   =   4.00  7.00  6.00  1.00
  Atomic Wigner-Seitz radii
   RWIGS  =  -1.00 -1.00 -1.00 -1.00
  virtual crystal weights 
   VCA    =   1.00  1.00  1.00  1.00
   NELECT =      47.0000    total number of electrons
   NUPDOWN=      -1.0000    fix difference up-down

 DOS related values:
   EMIN   =  10.00;   EMAX   =-10.00  energy-range for DOS
   EFERMI =   0.00
   ISMEAR =     0;   SIGMA  =   0.05  broadening in eV -4-tet -1-fermi 0-gaus

 Electronic relaxation 2 (details)
   IALGO  =     68    algorithm
   LDIAG  =      T    sub-space diagonalisation (order eigenvalues)
   LSUBROT=      F    optimize rotation matrix (better conditioning)
   TURBO    =      0    0=normal 1=particle mesh
   IRESTART =      0    0=no restart 2=restart with 2 vectors
   NREBOOT  =      0    no. of reboots
   NMIN     =      0    reboot dimension
   EREF     =   0.00    reference energy to select bands
   IMIX   =      4    mixing-type and parameters
     AMIX     =   0.40;   BMIX     =  1.00
     AMIX_MAG =   1.60;   BMIX_MAG =  1.00
     AMIN     =   0.10
     WC   =   100.;   INIMIX=   1;  MIXPRE=   1;  MAXMIX= -45

 Intra band minimization:
   WEIMIN = 0.0010     energy-eigenvalue tresh-hold
   EBREAK =  0.60E-07  absolut break condition
   DEPER  =   0.30     relativ break condition  

   TIME   =   0.40     timestep for ELM

  volume/ion in A,a.u.               =    4571.43     30849.52
  Fermi-wavevector in a.u.,A,eV,Ry     =   0.147700  0.279113  0.296815  0.021815
  Thomas-Fermi vector in A             =   0.819491
 
 Write flags
   LWAVE        =      T    write WAVECAR
   LDOWNSAMPLE  =      F    k-point downsampling of WAVECAR
   LCHARG       =      F    write CHGCAR
   LVTOT        =      F    write LOCPOT, total local potential
   LVHAR        =      F    write LOCPOT, Hartree potential only
   LELF         =      F    write electronic localiz. function (ELF)
   LORBIT       =      0    0 simple, 1 ext, 2 COOP (PROOUT), +10 PAW based schemes


 Dipole corrections
   LMONO  =      F    monopole corrections only (constant potential shift)
   LDIPOL =      F    correct potential (dipole corrections)
   IDIPOL =      0    1-x, 2-y, 3-z, 4-all directions 
   EPSILON=  1.0000000 bulk dielectric constant

 Exchange correlation treatment:
   GGA     =    --    GGA type
   LEXCH   =     8    internal setting for exchange type
   VOSKOWN=      0    Vosko Wilk Nusair interpolation
   LHFCALC =     F    Hartree Fock is set to
   LHFONE  =     F    Hartree Fock one center treatment
   AEXX    =    0.0000 exact exchange contribution

 Linear response parameters
   LEPSILON=     F    determine dielectric tensor
   LRPA    =     F    only Hartree local field effects (RPA)
   LNABLA  =     F    use nabla operator in PAW spheres
   LVEL    =     F    velocity operator in full k-point grid
   LINTERFAST=   F  fast interpolation
   KINTER  =     0    interpolate to denser k-point grid
   CSHIFT  =0.1000    complex shift for real part using Kramers Kronig
   OMEGAMAX=  -1.0    maximum frequency
   DEG_THRESHOLD= 0.2000000E-02 threshold for treating states as degnerate
   RTIME   =   -0.100 relaxation time in fs
  (WPLASMAI=    0.000 imaginary part of plasma frequency in eV, 0.658/RTIME)
   DFIELD  = 0.0000000 0.0000000 0.0000000 field for delta impulse in time
 
 Orbital magnetization related:
   ORBITALMAG=     F  switch on orbital magnetization
   LCHIMAG   =     F  perturbation theory with respect to B field
   DQ        =  0.001000  dq finite difference perturbation B field
   LLRAUG    =     F  two centre corrections for induced B field

 Solvation model:
   LSOL    =     T         switch on solvation model
   EB_K    = 35.688000     relative permittivity of the bulk solvent
   SIGMA_K =  0.600000     width of the dielectric cavity
   NC_K    =  0.002500     cutoff charge density
   TAU     =  0.000000     cavity surface tension
   LAMBDA_D_K    =  3.040000     Debye length in Angstroms
   LRHOB     =     F     write boundcharge  density
   LRHOION     =     F     write ioniccharge density



--------------------------------------------------------------------------------------------------------


 conjugate gradient relaxation of ions
   using selective dynamics as specified on POSCAR
 charge density and potential will be updated during run
 spin polarized calculation
 RMM-DIIS sequential band-by-band and
  variant of blocked Davidson during initial phase
 perform sub-space diagonalisation
    before iterative eigenvector-optimisation
 modified Broyden-mixing scheme, WC =      100.0
 initial mixing is a Kerker type mixing with AMIX =  0.4000 and BMIX =      1.0000
 Hartree-type preconditioning will be used
 using additional bands           18
 real space projection scheme for non local part
 use partial core corrections
 calculate Harris-corrections to forces 
   (improved forces if not selfconsistent)
 use gradient corrections 
 use of overlap-Matrix (Vanderbilt PP)
 Gauss-broadening in eV      SIGMA  =   0.05


--------------------------------------------------------------------------------------------------------


  energy-cutoff  :      500.00
  volume of cell :    64000.00
      direct lattice vectors                 reciprocal lattice vectors
    40.000000000  0.000000000  0.000000000     0.025000000  0.000000000  0.000000000
     0.000000000 40.000000000  0.000000000     0.000000000  0.025000000  0.000000000
     0.000000000  0.000000000 40.000000000     0.000000000  0.000000000  0.025000000

  length of vectors
    40.000000000 40.000000000 40.000000000     0.025000000  0.025000000  0.025000000


 
 k-points in units of 2pi/SCALE and weight: K-Point Grid                            
   0.00000000  0.00000000  0.00000000       1.000
 
 k-points in reciprocal lattice and weights: K-Point Grid                            
   0.00000000  0.00000000  0.00000000       1.000
 
 position of ions in fractional coordinates (direct lattice) 
   0.49710486  0.46889692  0.49998896
   0.46309940  0.47622928  0.49998480
   0.45234841  0.50955521  0.49999606
   0.47571400  0.53558646  0.50001152
   0.50984381  0.52848434  0.50001257
   0.52075290  0.49507022  0.50000186
   0.55625865  0.48517846  0.50000269
   0.58612737  0.51942935  0.50001228
   0.56712172  0.45698250  0.49999693
   0.52798746  0.54878303  0.50002459
   0.46732872  0.56152039  0.50002100
   0.42568136  0.51524695  0.49999550
   0.44486409  0.45596401  0.49997355
   0.50576622  0.44307390  0.49997769
 
 position of ions in cartesian coordinates  (Angst):
  19.88419426 18.75587690 19.99955855
  18.52397610 19.04917101 19.99939190
  18.09393623 20.38220847 19.99984239
  19.02856011 21.42345837 20.00046073
  20.39375251 21.13937352 20.00050288
  20.83011611 19.80280878 20.00007450
  22.25034617 19.40713827 20.00010769
  23.44509493 20.77717382 20.00049102
  22.68486897 18.27930001 19.99987710
  21.11949844 21.95132103 20.00098340
  18.69314894 22.46081547 20.00084005
  17.02725453 20.60987787 19.99982005
  17.79456377 18.23856032 19.99894203
  20.23064893 17.72295615 19.99910772
 


--------------------------------------------------------------------------------------------------------


 k-point  1 :   0.0000 0.0000 0.0000  plane waves: 1624525

 maximum and minimum number of plane-waves per node :    162473   162437

 maximum number of plane-waves:   1624525
 maximum index in each direction: 
   IXMAX=   72   IYMAX=   72   IZMAX=   72
   IXMIN=  -72   IYMIN=  -72   IZMIN=  -72


 real space projection operators:
  total allocation   :       1631.91 KBytes
  max/ min on nodes  :        165.83        160.31


 parallel 3D FFT for wavefunctions:
    minimum data exchange during FFTs selected (reduces bandwidth)
 parallel 3D FFT for charge:
    minimum data exchange during FFTs selected (reduces bandwidth)


 total amount of memory used by VASP MPI-rank0   800179. kBytes
=======================================================================

   base      :      30000. kBytes
   nonlr-proj:        891. kBytes
   fftplans  :     192295. kBytes
   grid      :     540583. kBytes
   one-center:         12. kBytes
   wavefun   :      36398. kBytes
 
     INWAV:  cpu time    0.0000: real time    0.0000
 Broyden mixing: mesh for mixing (old mesh)
   NGX =145   NGY =145   NGZ =145
  (NGX  =588   NGY  =588   NGZ  =588)
  gives a total of ****** points

 initial charge density was supplied:
 charge density of overlapping atoms calculated
 number of electron      46.0000000 magnetization      14.0000000
 keeping initial charge density in first step


--------------------------------------------------------------------------------------------------------


 Maximum index for non-local projection operator          324
 Maximum index for augmentation-charges          335 (set IRDMAX)


--------------------------------------------------------------------------------------------------------


 First call to EWALD:  gamma=   0.044
 Maximum number of real-space cells 3x 3x 3
 Maximum number of reciprocal cells 3x 3x 3

    FEWALD:  cpu time    0.0013: real time    0.0013


--------------------------------------- Iteration      1(   1)  ---------------------------------------


    POTLOK:  cpu time  121.6779: real time  122.3259
    SETDIJ:  cpu time    0.0383: real time    0.0385
     EDDAV:  cpu time   15.2539: real time   15.3420
       DOS:  cpu time    0.0002: real time    0.0002
    --------------------------------------------
      LOOP:  cpu time  136.9703: real time  137.7066

 eigenvalue-minimisations  :   216
 total energy-change (2. order) : 0.4082475E+03  (-0.6087521E+03)
 number of electron      46.0000000 magnetization      14.0000000
 augmentation part       46.0000000 magnetization      14.0000000

 Free energy of the ion-electron system (eV)
  ---------------------------------------------------
  alpha Z        PSCENC =         0.15041143
  Ewald energy   TEWEN  =      4293.42819583
  -Hartree energ DENC   =     -5697.41587305
  -exchange      EXHF   =         0.00000000
  -V(xc)+E(xc)   XCENC  =       152.66333032
  PAW double counting   =      1439.32441251    -1445.19452789
  entropy T*S    EENTRO =        -0.06787969
  eigenvalues    EBANDS =      -262.04582098
  atomic energy  EATOM  =      1934.55042093
  Solvation  Ediel_sol  =        -7.14517361
  ---------------------------------------------------
  free energy    TOTEN  =       408.24749580 eV

  energy without entropy =      408.31537549  energy(sigma->0) =      408.28143564


--------------------------------------------------------------------------------------------------------




--------------------------------------- Iteration      1(   2)  ---------------------------------------


     EDDAV:  cpu time   21.2241: real time   21.3486
       DOS:  cpu time    0.0002: real time    0.0002
    --------------------------------------------
      LOOP:  cpu time   21.2243: real time   21.3488

 eigenvalue-minimisations  :   324
 total energy-change (2. order) :-0.2632184E+03  (-0.2466428E+03)
 number of electron      46.0000000 magnetization      14.0000000
 augmentation part       46.0000000 magnetization      14.0000000

 Free energy of the ion-electron system (eV)
  ---------------------------------------------------
  alpha Z        PSCENC =         0.15041143
  Ewald energy   TEWEN  =      4293.42819583
  -Hartree energ DENC   =     -5697.41587305
  -exchange      EXHF   =         0.00000000
  -V(xc)+E(xc)   XCENC  =       152.66333032
  PAW double counting   =      1439.32441251    -1445.19452789
  entropy T*S    EENTRO =        -0.00000006
  eigenvalues    EBANDS =      -525.33212872
  atomic energy  EATOM  =      1934.55042093
  Solvation  Ediel_sol  =        -7.14517361
  ---------------------------------------------------
  free energy    TOTEN  =       145.02906769 eV

  energy without entropy =      145.02906775  energy(sigma->0) =      145.02906772


--------------------------------------------------------------------------------------------------------




--------------------------------------- Iteration      1(   3)  ---------------------------------------


     EDDAV:  cpu time   17.5897: real time   17.6825
       DOS:  cpu time    0.0001: real time    0.0001
    --------------------------------------------
      LOOP:  cpu time   17.5898: real time   17.6827

 eigenvalue-minimisations  :   258
 total energy-change (2. order) :-0.1894294E+03  (-0.1830802E+03)
 number of electron      46.0000000 magnetization      14.0000000
 augmentation part       46.0000000 magnetization      14.0000000

 Free energy of the ion-electron system (eV)
  ---------------------------------------------------
  alpha Z        PSCENC =         0.15041143
  Ewald energy   TEWEN  =      4293.42819583
  -Hartree energ DENC   =     -5697.41587305
  -exchange      EXHF   =         0.00000000
  -V(xc)+E(xc)   XCENC  =       152.66333032
  PAW double counting   =      1439.32441251    -1445.19452789
  entropy T*S    EENTRO =        -0.00000002
  eigenvalues    EBANDS =      -714.76153782
  atomic energy  EATOM  =      1934.55042093
  Solvation  Ediel_sol  =        -7.14517361
  ---------------------------------------------------
  free energy    TOTEN  =       -44.40034137 eV

  energy without entropy =      -44.40034135  energy(sigma->0) =      -44.40034136


--------------------------------------------------------------------------------------------------------




--------------------------------------- Iteration      1(   4)  ---------------------------------------


     EDDAV:  cpu time   16.6254: real time   16.7129
       DOS:  cpu time    0.0001: real time    0.0001
    --------------------------------------------
      LOOP:  cpu time   16.6255: real time   16.7130

 eigenvalue-minimisations  :   240
 total energy-change (2. order) :-0.4722375E+02  (-0.4678637E+02)
 number of electron      46.0000000 magnetization      14.0000000
 augmentation part       46.0000000 magnetization      14.0000000

 Free energy of the ion-electron system (eV)
  ---------------------------------------------------
  alpha Z        PSCENC =         0.15041143
  Ewald energy   TEWEN  =      4293.42819583
  -Hartree energ DENC   =     -5697.41587305
  -exchange      EXHF   =         0.00000000
  -V(xc)+E(xc)   XCENC  =       152.66333032
  PAW double counting   =      1439.32441251    -1445.19452789
  entropy T*S    EENTRO =        -0.00000000
  eigenvalues    EBANDS =      -761.98528803
  atomic energy  EATOM  =      1934.55042093
  Solvation  Ediel_sol  =        -7.14517361
  ---------------------------------------------------
  free energy    TOTEN  =       -91.62409156 eV

  energy without entropy =      -91.62409156  energy(sigma->0) =      -91.62409156


--------------------------------------------------------------------------------------------------------




--------------------------------------- Iteration      1(   5)  ---------------------------------------


     EDDAV:  cpu time   14.2822: real time   14.3595
       DOS:  cpu time    0.0001: real time    0.0001
    CHARGE:  cpu time    1.4462: real time    1.4540
    MIXING:  cpu time    0.1032: real time    0.1037
    --------------------------------------------
      LOOP:  cpu time   15.8318: real time   15.9174

 eigenvalue-minimisations  :   198
 total energy-change (2. order) :-0.1811685E+01  (-0.1769863E+01)
 number of electron      47.0000007 magnetization      13.4991388
 augmentation part        0.6963775 magnetization      12.6009148

 Broyden mixing:
  rms(total) = 0.25078E+01    rms(broyden)= 0.25074E+01
  rms(prec ) = 0.25429E+01
  weight for this iteration     100.00

 Free energy of the ion-electron system (eV)
  ---------------------------------------------------
  alpha Z        PSCENC =         0.15041143
  Ewald energy   TEWEN  =      4293.42819583
  -Hartree energ DENC   =     -5697.41587305
  -exchange      EXHF   =         0.00000000
  -V(xc)+E(xc)   XCENC  =       152.66333032
  PAW double counting   =      1439.32441251    -1445.19452789
  entropy T*S    EENTRO =        -0.00000000
  eigenvalues    EBANDS =      -763.79697299
  atomic energy  EATOM  =      1934.55042093
  Solvation  Ediel_sol  =        -7.14517361
  ---------------------------------------------------
  free energy    TOTEN  =       -93.43577652 eV

  energy without entropy =      -93.43577652  energy(sigma->0) =      -93.43577652


--------------------------------------------------------------------------------------------------------




--------------------------------------- Iteration      1(   6)  ---------------------------------------


    POTLOK:  cpu time  118.1663: real time  118.8211
    SETDIJ:  cpu time    0.0388: real time    0.0391
    EDDIAG:  cpu time    2.9724: real time    2.9880
  RMM-DIIS:  cpu time   10.2088: real time   10.2576
    ORTHCH:  cpu time    0.0937: real time    0.0942
       DOS:  cpu time    0.0001: real time    0.0001
    CHARGE:  cpu time    1.4226: real time    1.4300
    MIXING:  cpu time    0.0985: real time    0.1010
    --------------------------------------------
      LOOP:  cpu time  133.0012: real time  133.7312

 eigenvalue-minimisations  :   168
 total energy-change (2. order) : 0.4088738E+02  (-0.8167800E+01)
 number of electron      47.0000006 magnetization      12.9442776
 augmentation part        0.5724459 magnetization      11.9604161

 Broyden mixing:
  rms(total) = 0.12303E+01    rms(broyden)= 0.12302E+01
  rms(prec ) = 0.12557E+01
  weight for this iteration     100.00

 eigenvalues of (default mixing * dielectric matrix)
  average eigenvalue GAMMA=   0.9718
  0.9718

 Free energy of the ion-electron system (eV)
  ---------------------------------------------------
  alpha Z        PSCENC =         0.15041143
  Ewald energy   TEWEN  =      4293.42819583
  -Hartree energ DENC   =     -5810.77372697
  -exchange      EXHF   =         0.00000000
  -V(xc)+E(xc)   XCENC  =       187.26187524
  PAW double counting   =      2275.84599452    -2282.82705937
  entropy T*S    EENTRO =        -0.00000000
  eigenvalues    EBANDS =      -649.63705472
  atomic energy  EATOM  =      1934.55042093
  Solvation  Ediel_sol  =        -0.54745362
  ---------------------------------------------------
  free energy    TOTEN  =       -52.54839673 eV

  energy without entropy =      -52.54839673  energy(sigma->0) =      -52.54839673


--------------------------------------------------------------------------------------------------------




--------------------------------------- Iteration      1(   7)  ---------------------------------------


    POTLOK:  cpu time  116.2056: real time  116.7775
    SETDIJ:  cpu time    0.0392: real time    0.0395
    EDDIAG:  cpu time    2.9512: real time    2.9669
  RMM-DIIS:  cpu time   10.2229: real time   10.2718
    ORTHCH:  cpu time    0.0930: real time    0.0936
       DOS:  cpu time    0.0003: real time    0.0003
    CHARGE:  cpu time    1.4215: real time    1.4285
    MIXING:  cpu time    0.1038: real time    0.1043
    --------------------------------------------
      LOOP:  cpu time  131.0375: real time  131.6824

 eigenvalue-minimisations  :   169
 total energy-change (2. order) :-0.2027529E+02  (-0.2552262E+01)
 number of electron      47.0000005 magnetization      12.3743324
 augmentation part        0.4971153 magnetization      11.3974593

 Broyden mixing:
  rms(total) = 0.74074E+00    rms(broyden)= 0.74060E+00
  rms(prec ) = 0.75391E+00
  weight for this iteration     100.00

 eigenvalues of (default mixing * dielectric matrix)
  average eigenvalue GAMMA=   1.0708
  0.8272  1.3143

 Free energy of the ion-electron system (eV)
  ---------------------------------------------------
  alpha Z        PSCENC =         0.15041143
  Ewald energy   TEWEN  =      4293.42819583
  -Hartree energ DENC   =     -5897.69019325
  -exchange      EXHF   =         0.00000000
  -V(xc)+E(xc)   XCENC  =       173.43609499
  PAW double counting   =      3066.57952562    -3074.03708607
  entropy T*S    EENTRO =        -0.00000000
  eigenvalues    EBANDS =      -578.19283279
  atomic energy  EATOM  =      1934.55042093
  Solvation  Ediel_sol  =         8.95177687
  ---------------------------------------------------
  free energy    TOTEN  =       -72.82368645 eV

  energy without entropy =      -72.82368645  energy(sigma->0) =      -72.82368645


--------------------------------------------------------------------------------------------------------




--------------------------------------- Iteration      1(   8)  ---------------------------------------


    POTLOK:  cpu time  117.7799: real time  118.3647
    SETDIJ:  cpu time    0.0390: real time    0.0393
    EDDIAG:  cpu time    2.9736: real time    2.9891
  RMM-DIIS:  cpu time   10.2762: real time   10.3256
    ORTHCH:  cpu time    0.0932: real time    0.0939
       DOS:  cpu time    0.0001: real time    0.0001
    CHARGE:  cpu time    1.4276: real time    1.4347
    MIXING:  cpu time    0.1142: real time    0.1148
    --------------------------------------------
      LOOP:  cpu time  132.7039: real time  133.3622

 eigenvalue-minimisations  :   169
 total energy-change (2. order) :-0.4077032E+01  (-0.5021287E+00)
 number of electron      47.0000004 magnetization      11.6496588
 augmentation part        0.4904460 magnetization      10.6886479

 Broyden mixing:
  rms(total) = 0.44687E+00    rms(broyden)= 0.44683E+00
  rms(prec ) = 0.45803E+00
  weight for this iteration     100.00

 eigenvalues of (default mixing * dielectric matrix)
  average eigenvalue GAMMA=   1.2374
  1.8664  1.1384  0.7075

 Free energy of the ion-electron system (eV)
  ---------------------------------------------------
  alpha Z        PSCENC =         0.15041143
  Ewald energy   TEWEN  =      4293.42819583
  -Hartree energ DENC   =     -5944.95997440
  -exchange      EXHF   =         0.00000000
  -V(xc)+E(xc)   XCENC  =       171.71158634
  PAW double counting   =      3629.27880737    -3636.78687395
  entropy T*S    EENTRO =        -0.00000000
  eigenvalues    EBANDS =      -547.65265961
  atomic energy  EATOM  =      1934.55042093
  Solvation  Ediel_sol  =        23.37936714
  ---------------------------------------------------
  free energy    TOTEN  =       -76.90071892 eV

  energy without entropy =      -76.90071892  energy(sigma->0) =      -76.90071892


--------------------------------------------------------------------------------------------------------




--------------------------------------- Iteration      1(   9)  ---------------------------------------


    POTLOK:  cpu time  117.6738: real time  118.2886
    SETDIJ:  cpu time    0.0398: real time    0.0400
    EDDIAG:  cpu time    2.9510: real time    2.9668
  RMM-DIIS:  cpu time   10.2457: real time   10.2967
    ORTHCH:  cpu time    0.0944: real time    0.0951
       DOS:  cpu time    0.0002: real time    0.0002
    CHARGE:  cpu time    1.4246: real time    1.4324
    MIXING:  cpu time    0.1159: real time    0.1165
    --------------------------------------------
      LOOP:  cpu time  132.5454: real time  133.2364

 eigenvalue-minimisations  :   169
 total energy-change (2. order) :-0.7111430E+01  (-0.4394549E+00)
 number of electron      47.0000004 magnetization      11.1060630
 augmentation part        0.4862722 magnetization      10.1560298

 Broyden mixing:
  rms(total) = 0.24903E+00    rms(broyden)= 0.24901E+00
  rms(prec ) = 0.25913E+00
  weight for this iteration     100.00

 eigenvalues of (default mixing * dielectric matrix)
  average eigenvalue GAMMA=   1.2612
  1.9367  1.5808  0.8699  0.6575

 Free energy of the ion-electron system (eV)
  ---------------------------------------------------
  alpha Z        PSCENC =         0.15041143
  Ewald energy   TEWEN  =      4293.42819583
  -Hartree energ DENC   =     -5980.67366655
  -exchange      EXHF   =         0.00000000
  -V(xc)+E(xc)   XCENC  =       167.24911886
  PAW double counting   =      4040.02247167    -4047.45036169
  entropy T*S    EENTRO =        -0.00000000
  eigenvalues    EBANDS =      -536.43518292
  atomic energy  EATOM  =      1934.55042093
  Solvation  Ediel_sol  =        45.14644395
  ---------------------------------------------------
  free energy    TOTEN  =       -84.01214849 eV

  energy without entropy =      -84.01214849  energy(sigma->0) =      -84.01214849


--------------------------------------------------------------------------------------------------------




--------------------------------------- Iteration      1(  10)  ---------------------------------------


    POTLOK:  cpu time  111.9786: real time  112.5334
    SETDIJ:  cpu time    0.0392: real time    0.0395
    EDDIAG:  cpu time    2.9697: real time    2.9852
  RMM-DIIS:  cpu time   10.1961: real time   10.2441
    ORTHCH:  cpu time    0.0951: real time    0.0957
       DOS:  cpu time    0.0001: real time    0.0001
    CHARGE:  cpu time    1.4291: real time    1.4366
    MIXING:  cpu time    0.1259: real time    0.1278
    --------------------------------------------
      LOOP:  cpu time  126.8338: real time  127.4624

 eigenvalue-minimisations  :   168
 total energy-change (2. order) :-0.2216000E+01  (-0.1292961E+00)
 number of electron      47.0000004 magnetization      10.4562541
 augmentation part        0.4793240 magnetization       9.5159726

 Broyden mixing:
  rms(total) = 0.17790E+00    rms(broyden)= 0.17789E+00
  rms(prec ) = 0.18733E+00
  weight for this iteration     100.00

 eigenvalues of (default mixing * dielectric matrix)
  average eigenvalue GAMMA=   1.2732
  1.9881  1.9881  0.8785  0.8785  0.6329

 Free energy of the ion-electron system (eV)
  ---------------------------------------------------
  alpha Z        PSCENC =         0.15041143
  Ewald energy   TEWEN  =      4293.42819583
  -Hartree energ DENC   =     -5997.18750246
  -exchange      EXHF   =         0.00000000
  -V(xc)+E(xc)   XCENC  =       165.92390830
  PAW double counting   =      4134.99694629    -4142.35356309
  entropy T*S    EENTRO =        -0.00000000
  eigenvalues    EBANDS =      -536.87965981
  atomic energy  EATOM  =      1934.55042093
  Solvation  Ediel_sol  =        61.14269428
  ---------------------------------------------------
  free energy    TOTEN  =       -86.22814830 eV

  energy without entropy =      -86.22814830  energy(sigma->0) =      -86.22814830


--------------------------------------------------------------------------------------------------------




--------------------------------------- Iteration      1(  11)  ---------------------------------------


    POTLOK:  cpu time  113.3367: real time  113.9127
    SETDIJ:  cpu time    0.0397: real time    0.0400
    EDDIAG:  cpu time    2.9605: real time    2.9767
  RMM-DIIS:  cpu time   10.1493: real time   10.1994
    ORTHCH:  cpu time    0.0926: real time    0.0933
       DOS:  cpu time    0.0001: real time    0.0001
    CHARGE:  cpu time    1.4241: real time    1.4311
    MIXING:  cpu time    0.1299: real time    0.1305
    --------------------------------------------
      LOOP:  cpu time  128.1330: real time  128.7837

 eigenvalue-minimisations  :   168
 total energy-change (2. order) :-0.1112020E+01  (-0.6563941E-01)
 number of electron      47.0000004 magnetization       9.6443664
 augmentation part        0.4753441 magnetization       8.7114394

 Broyden mixing:
  rms(total) = 0.13367E+00    rms(broyden)= 0.13366E+00
  rms(prec ) = 0.14151E+00
  weight for this iteration     100.00

 eigenvalues of (default mixing * dielectric matrix)
  average eigenvalue GAMMA=   1.3464
  2.2167  2.2167  1.1213  1.1213  0.7736  0.6288

 Free energy of the ion-electron system (eV)
  ---------------------------------------------------
  alpha Z        PSCENC =         0.15041143
  Ewald energy   TEWEN  =      4293.42819583
  -Hartree energ DENC   =     -6011.92719855
  -exchange      EXHF   =         0.00000000
  -V(xc)+E(xc)   XCENC  =       165.27988192
  PAW double counting   =      4141.77367338    -4149.06160078
  entropy T*S    EENTRO =        -0.00000000
  eigenvalues    EBANDS =      -539.64719437
  atomic energy  EATOM  =      1934.55042093
  Solvation  Ediel_sol  =        78.11324170
  ---------------------------------------------------
  free energy    TOTEN  =       -87.34016852 eV

  energy without entropy =      -87.34016852  energy(sigma->0) =      -87.34016852


--------------------------------------------------------------------------------------------------------




--------------------------------------- Iteration      1(  12)  ---------------------------------------


    POTLOK:  cpu time  113.3437: real time  113.9070
    SETDIJ:  cpu time    0.0400: real time    0.0402
    EDDIAG:  cpu time    2.9711: real time    2.9870
  RMM-DIIS:  cpu time   10.2423: real time   10.2877
    ORTHCH:  cpu time    0.0950: real time    0.0956
       DOS:  cpu time    0.0001: real time    0.0001
    CHARGE:  cpu time    1.4285: real time    1.4355
    MIXING:  cpu time    0.1369: real time    0.1376
    --------------------------------------------
      LOOP:  cpu time  128.2575: real time  128.8908

 eigenvalue-minimisations  :   168
 total energy-change (2. order) :-0.8220460E+00  (-0.4762553E-01)
 number of electron      47.0000004 magnetization       8.5638187
 augmentation part        0.4725454 magnetization       7.6361667

 Broyden mixing:
  rms(total) = 0.98981E-01    rms(broyden)= 0.98977E-01
  rms(prec ) = 0.10462E+00
  weight for this iteration     100.00

 eigenvalues of (default mixing * dielectric matrix)
  average eigenvalue GAMMA=   1.4510
  2.6838  2.6838  1.4543  1.0311  0.9353  0.7419  0.6268

 Free energy of the ion-electron system (eV)
  ---------------------------------------------------
  alpha Z        PSCENC =         0.15041143
  Ewald energy   TEWEN  =      4293.42819583
  -Hartree energ DENC   =     -6028.63347389
  -exchange      EXHF   =         0.00000000
  -V(xc)+E(xc)   XCENC  =       164.80670666
  PAW double counting   =      4113.68195500    -4120.93005763
  entropy T*S    EENTRO =        -0.00000000
  eigenvalues    EBANDS =      -541.29437527
  atomic energy  EATOM  =      1934.55042093
  Solvation  Ediel_sol  =        96.07800243
  ---------------------------------------------------
  free energy    TOTEN  =       -88.16221452 eV

  energy without entropy =      -88.16221452  energy(sigma->0) =      -88.16221452


--------------------------------------------------------------------------------------------------------




--------------------------------------- Iteration      1(  13)  ---------------------------------------


    POTLOK:  cpu time  115.1830: real time  115.7564
    SETDIJ:  cpu time    0.0397: real time    0.0399
    EDDIAG:  cpu time    2.9680: real time    2.9839
  RMM-DIIS:  cpu time   10.3408: real time   10.3879
    ORTHCH:  cpu time    0.0944: real time    0.0949
       DOS:  cpu time    0.0001: real time    0.0001
    CHARGE:  cpu time    1.4270: real time    1.4342
    MIXING:  cpu time    0.1425: real time    0.1433
    --------------------------------------------
      LOOP:  cpu time  130.1955: real time  130.8408

 eigenvalue-minimisations  :   169
 total energy-change (2. order) :-0.1165362E+01  (-0.4180576E-01)
 number of electron      47.0000004 magnetization       7.5965421
 augmentation part        0.4686570 magnetization       6.6731331

 Broyden mixing:
  rms(total) = 0.63807E-01    rms(broyden)= 0.63803E-01
  rms(prec ) = 0.66983E-01
  weight for this iteration     100.00

 eigenvalues of (default mixing * dielectric matrix)
  average eigenvalue GAMMA=   1.6639
  4.8449  2.3395  1.7176  1.1878  1.0198  0.8803  0.6973  0.6236

 Free energy of the ion-electron system (eV)
  ---------------------------------------------------
  alpha Z        PSCENC =         0.15041143
  Ewald energy   TEWEN  =      4293.42819583
  -Hartree energ DENC   =     -6047.86107141
  -exchange      EXHF   =         0.00000000
  -V(xc)+E(xc)   XCENC  =       163.89164290
  PAW double counting   =      4061.23788042    -4068.47417106
  entropy T*S    EENTRO =        -0.00000000
  eigenvalues    EBANDS =      -541.89361651
  atomic energy  EATOM  =      1934.55042093
  Solvation  Ediel_sol  =       115.64273140
  ---------------------------------------------------
  free energy    TOTEN  =       -89.32757608 eV

  energy without entropy =      -89.32757608  energy(sigma->0) =      -89.32757608


--------------------------------------------------------------------------------------------------------




--------------------------------------- Iteration      1(  14)  ---------------------------------------


    POTLOK:  cpu time  111.7439: real time  112.3022
    SETDIJ:  cpu time    0.0391: real time    0.0393
    EDDIAG:  cpu time    2.9595: real time    2.9745
  RMM-DIIS:  cpu time   10.3601: real time   10.4071
    ORTHCH:  cpu time    0.0946: real time    0.0952
       DOS:  cpu time    0.0003: real time    0.0003
    CHARGE:  cpu time    1.4239: real time    1.4309
    MIXING:  cpu time    0.1521: real time    0.1529
    --------------------------------------------
      LOOP:  cpu time  126.7734: real time  127.4025

 eigenvalue-minimisations  :   171
 total energy-change (2. order) :-0.1893757E+01  (-0.2465957E-01)
 number of electron      47.0000004 magnetization       6.9394966
 augmentation part        0.4666218 magnetization       6.0195338

 Broyden mixing:
  rms(total) = 0.43398E-01    rms(broyden)= 0.43394E-01
  rms(prec ) = 0.44936E-01
  weight for this iteration     100.00

 eigenvalues of (default mixing * dielectric matrix)
  average eigenvalue GAMMA=   1.7456
  6.0948  2.1235  1.9571  1.4284  1.0124  1.0124  0.7945  0.6673  0.6199

 Free energy of the ion-electron system (eV)
  ---------------------------------------------------
  alpha Z        PSCENC =         0.15041143
  Ewald energy   TEWEN  =      4293.42819583
  -Hartree energ DENC   =     -6061.66394120
  -exchange      EXHF   =         0.00000000
  -V(xc)+E(xc)   XCENC  =       162.13032344
  PAW double counting   =      4031.71675210    -4038.94813568
  entropy T*S    EENTRO =        -0.00000000
  eigenvalues    EBANDS =      -542.25380382
  atomic energy  EATOM  =      1934.55042093
  Solvation  Ediel_sol  =       129.66844423
  ---------------------------------------------------
  free energy    TOTEN  =       -91.22133275 eV

  energy without entropy =      -91.22133275  energy(sigma->0) =      -91.22133275


--------------------------------------------------------------------------------------------------------




--------------------------------------- Iteration      1(  15)  ---------------------------------------


    POTLOK:  cpu time  107.2365: real time  107.7744
    SETDIJ:  cpu time    0.0411: real time    0.0414
    EDDIAG:  cpu time    2.9582: real time    2.9753
  RMM-DIIS:  cpu time   10.4314: real time   10.4820
    ORTHCH:  cpu time    0.0939: real time    0.0945
       DOS:  cpu time    0.0003: real time    0.0003
    CHARGE:  cpu time    1.4263: real time    1.4335
    MIXING:  cpu time    0.1693: real time    0.1702
    --------------------------------------------
      LOOP:  cpu time  122.3569: real time  122.9715

 eigenvalue-minimisations  :   172
 total energy-change (2. order) :-0.7745524E+00  (-0.6929107E-02)
 number of electron      47.0000004 magnetization       6.2884577
 augmentation part        0.4659472 magnetization       5.3702083

 Broyden mixing:
  rms(total) = 0.33646E-01    rms(broyden)= 0.33644E-01
  rms(prec ) = 0.34526E-01
  weight for this iteration     100.00

 eigenvalues of (default mixing * dielectric matrix)
  average eigenvalue GAMMA=   1.8061
  6.8918  2.2101  2.2101  1.6757  1.0646  1.0646  0.9231  0.7532  0.6474  0.6203

 Free energy of the ion-electron system (eV)
  ---------------------------------------------------
  alpha Z        PSCENC =         0.15041143
  Ewald energy   TEWEN  =      4293.42819583
  -Hartree energ DENC   =     -6067.15207062
  -exchange      EXHF   =         0.00000000
  -V(xc)+E(xc)   XCENC  =       161.39092039
  PAW double counting   =      4030.28007787    -4037.50565102
  entropy T*S    EENTRO =        -0.00000000
  eigenvalues    EBANDS =      -542.92122446
  atomic energy  EATOM  =      1934.55042093
  Solvation  Ediel_sol  =       135.78303447
  ---------------------------------------------------
  free energy    TOTEN  =       -91.99588520 eV

  energy without entropy =      -91.99588520  energy(sigma->0) =      -91.99588520


--------------------------------------------------------------------------------------------------------




--------------------------------------- Iteration      1(  16)  ---------------------------------------


    POTLOK:  cpu time  105.6825: real time  106.2260
    SETDIJ:  cpu time    0.0393: real time    0.0396
    EDDIAG:  cpu time    2.9530: real time    2.9686
  RMM-DIIS:  cpu time   10.4286: real time   10.4765
    ORTHCH:  cpu time    0.0948: real time    0.0955
       DOS:  cpu time    0.0004: real time    0.0004
    CHARGE:  cpu time    1.4265: real time    1.4343
    MIXING:  cpu time    0.1702: real time    0.1713
    --------------------------------------------
      LOOP:  cpu time  120.7954: real time  121.4121

 eigenvalue-minimisations  :   173
 total energy-change (2. order) :-0.4813791E+00  (-0.2264425E-02)
 number of electron      47.0000004 magnetization       5.4601353
 augmentation part        0.4652336 magnetization       4.5424466

 Broyden mixing:
  rms(total) = 0.25966E-01    rms(broyden)= 0.25965E-01
  rms(prec ) = 0.26413E-01
  weight for this iteration     100.00

 eigenvalues of (default mixing * dielectric matrix)
  average eigenvalue GAMMA=   1.9351
  7.9735  2.9899  2.1617  1.8961  1.3487  1.0399  1.0399  0.8599  0.7218  0.6348
  0.6200

 Free energy of the ion-electron system (eV)
  ---------------------------------------------------
  alpha Z        PSCENC =         0.15041143
  Ewald energy   TEWEN  =      4293.42819583
  -Hartree energ DENC   =     -6069.94550200
  -exchange      EXHF   =         0.00000000
  -V(xc)+E(xc)   XCENC  =       160.90774793
  PAW double counting   =      4033.69642719    -4040.92044886
  entropy T*S    EENTRO =        -0.00000000
  eigenvalues    EBANDS =      -543.68357437
  atomic energy  EATOM  =      1934.55042093
  Solvation  Ediel_sol  =       139.33905762
  ---------------------------------------------------
  free energy    TOTEN  =       -92.47726430 eV

  energy without entropy =      -92.47726430  energy(sigma->0) =      -92.47726430


--------------------------------------------------------------------------------------------------------




--------------------------------------- Iteration      1(  17)  ---------------------------------------


    POTLOK:  cpu time  106.5552: real time  107.1011
    SETDIJ:  cpu time    0.0397: real time    0.0399
    EDDIAG:  cpu time    2.9689: real time    2.9837
  RMM-DIIS:  cpu time   10.4108: real time   10.4593
    ORTHCH:  cpu time    0.0933: real time    0.0939
       DOS:  cpu time    0.0002: real time    0.0002
    CHARGE:  cpu time    1.4279: real time    1.4355
    MIXING:  cpu time    0.1849: real time    0.1858
    --------------------------------------------
      LOOP:  cpu time  121.6809: real time  122.2994

 eigenvalue-minimisations  :   171
 total energy-change (2. order) :-0.4318859E+00  (-0.1186019E-02)
 number of electron      47.0000004 magnetization       4.9806971
 augmentation part        0.4646997 magnetization       4.0630271

 Broyden mixing:
  rms(total) = 0.19338E-01    rms(broyden)= 0.19338E-01
  rms(prec ) = 0.19503E-01
  weight for this iteration     100.00

 eigenvalues of (default mixing * dielectric matrix)
  average eigenvalue GAMMA=   2.0077
  8.7901  3.8457  2.0674  1.7796  1.7796  1.0584  1.0584  0.9375  0.8196  0.7057
  0.6194  0.6312

 Free energy of the ion-electron system (eV)
  ---------------------------------------------------
  alpha Z        PSCENC =         0.15041143
  Ewald energy   TEWEN  =      4293.42819583
  -Hartree energ DENC   =     -6071.65233792
  -exchange      EXHF   =         0.00000000
  -V(xc)+E(xc)   XCENC  =       160.43813831
  PAW double counting   =      4035.09774868    -4042.31776941
  entropy T*S    EENTRO =        -0.00000000
  eigenvalues    EBANDS =      -544.92287601
  atomic energy  EATOM  =      1934.55042093
  Solvation  Ediel_sol  =       142.31891793
  ---------------------------------------------------
  free energy    TOTEN  =       -92.90915024 eV

  energy without entropy =      -92.90915024  energy(sigma->0) =      -92.90915024


--------------------------------------------------------------------------------------------------------




--------------------------------------- Iteration      1(  18)  ---------------------------------------


    POTLOK:  cpu time  103.2590: real time  103.7753
    SETDIJ:  cpu time    0.0396: real time    0.0399
    EDDIAG:  cpu time    2.9641: real time    2.9786
  RMM-DIIS:  cpu time   10.5814: real time   10.6287
    ORTHCH:  cpu time    0.0949: real time    0.0956
       DOS:  cpu time    0.0003: real time    0.0003
    CHARGE:  cpu time    1.4300: real time    1.4371
    MIXING:  cpu time    0.1950: real time    0.1960
    --------------------------------------------
      LOOP:  cpu time  118.5643: real time  119.1514

 eigenvalue-minimisations  :   174
 total energy-change (2. order) :-0.1481798E+00  (-0.3935713E-03)
 number of electron      47.0000004 magnetization       4.2730577
 augmentation part        0.4646010 magnetization       3.3553580

 Broyden mixing:
  rms(total) = 0.16712E-01    rms(broyden)= 0.16712E-01
  rms(prec ) = 0.16836E-01
  weight for this iteration     100.00

 eigenvalues of (default mixing * dielectric matrix)
  average eigenvalue GAMMA=   2.0538
  9.3537  4.4019  2.1478  1.9227  1.9227  1.1284  1.0765  1.0765  0.9502  0.7840
  0.6894  0.6198  0.6257

 Free energy of the ion-electron system (eV)
  ---------------------------------------------------
  alpha Z        PSCENC =         0.15041143
  Ewald energy   TEWEN  =      4293.42819583
  -Hartree energ DENC   =     -6071.83642064
  -exchange      EXHF   =         0.00000000
  -V(xc)+E(xc)   XCENC  =       160.27269818
  PAW double counting   =      4037.41970132    -4044.63906500
  entropy T*S    EENTRO =        -0.00000000
  eigenvalues    EBANDS =      -545.45185719
  atomic energy  EATOM  =      1934.55042093
  Solvation  Ediel_sol  =       143.04858510
  ---------------------------------------------------
  free energy    TOTEN  =       -93.05733005 eV

  energy without entropy =      -93.05733005  energy(sigma->0) =      -93.05733005


--------------------------------------------------------------------------------------------------------




--------------------------------------- Iteration      1(  19)  ---------------------------------------


    POTLOK:  cpu time  102.6299: real time  103.1644
    SETDIJ:  cpu time    0.0441: real time    0.0443
    EDDIAG:  cpu time    2.9529: real time    2.9689
  RMM-DIIS:  cpu time   10.3327: real time   10.3819
    ORTHCH:  cpu time    0.0962: real time    0.0969
       DOS:  cpu time    0.0001: real time    0.0001
    CHARGE:  cpu time    1.4255: real time    1.4332
    MIXING:  cpu time    0.2066: real time    0.2076
    --------------------------------------------
      LOOP:  cpu time  117.6879: real time  118.2974

 eigenvalue-minimisations  :   171
 total energy-change (2. order) :-0.1058031E+00  (-0.2667017E-03)
 number of electron      47.0000004 magnetization       3.6363563
 augmentation part        0.4646563 magnetization       2.7186072

 Broyden mixing:
  rms(total) = 0.13592E-01    rms(broyden)= 0.13592E-01
  rms(prec ) = 0.13689E-01
  weight for this iteration     100.00

 eigenvalues of (default mixing * dielectric matrix)
  average eigenvalue GAMMA=   2.1479
 10.0086  5.2527  2.6385  2.0495  2.0495  1.4806  1.0673  1.0673  0.8882  0.8882
  0.7614  0.6769  0.6186  0.6228

 Free energy of the ion-electron system (eV)
  ---------------------------------------------------
  alpha Z        PSCENC =         0.15041143
  Ewald energy   TEWEN  =      4293.42819583
  -Hartree energ DENC   =     -6071.48628544
  -exchange      EXHF   =         0.00000000
  -V(xc)+E(xc)   XCENC  =       160.14909201
  PAW double counting   =      4038.86203854    -4046.08214503
  entropy T*S    EENTRO =        -0.00000000
  eigenvalues    EBANDS =      -545.96077201
  atomic energy  EATOM  =      1934.55042093
  Solvation  Ediel_sol  =       143.22591062
  ---------------------------------------------------
  free energy    TOTEN  =       -93.16313314 eV

  energy without entropy =      -93.16313314  energy(sigma->0) =      -93.16313314


--------------------------------------------------------------------------------------------------------




--------------------------------------- Iteration      1(  20)  ---------------------------------------


    POTLOK:  cpu time  101.9294: real time  102.4400
    SETDIJ:  cpu time    0.0396: real time    0.0398
    EDDIAG:  cpu time    2.9652: real time    2.9803
  RMM-DIIS:  cpu time   10.1609: real time   10.2072
    ORTHCH:  cpu time    0.0954: real time    0.0960
       DOS:  cpu time    0.0001: real time    0.0001
    CHARGE:  cpu time    1.4283: real time    1.4352
    MIXING:  cpu time    0.2228: real time    0.2240
    --------------------------------------------
      LOOP:  cpu time  116.8418: real time  117.4227

 eigenvalue-minimisations  :   167
 total energy-change (2. order) :-0.3314642E-01  (-0.1347250E-03)
 number of electron      47.0000004 magnetization       2.9986853
 augmentation part        0.4646284 magnetization       2.0809067

 Broyden mixing:
  rms(total) = 0.11360E-01    rms(broyden)= 0.11360E-01
  rms(prec ) = 0.11462E-01
  weight for this iteration     100.00

 eigenvalues of (default mixing * dielectric matrix)
  average eigenvalue GAMMA=   2.1816
 10.5435  5.8809  3.0955  2.0135  2.0135  1.6275  1.0774  1.0774  0.9779  0.9779
  0.8178  0.7239  0.6612  0.6248  0.6112

 Free energy of the ion-electron system (eV)
  ---------------------------------------------------
  alpha Z        PSCENC =         0.15041143
  Ewald energy   TEWEN  =      4293.42819583
  -Hartree energ DENC   =     -6071.03261624
  -exchange      EXHF   =         0.00000000
  -V(xc)+E(xc)   XCENC  =       160.10538427
  PAW double counting   =      4038.21823085    -4045.43887926
  entropy T*S    EENTRO =        -0.00000000
  eigenvalues    EBANDS =      -546.21007651
  atomic energy  EATOM  =      1934.55042093
  Solvation  Ediel_sol  =       143.03264915
  ---------------------------------------------------
  free energy    TOTEN  =       -93.19627956 eV

  energy without entropy =      -93.19627956  energy(sigma->0) =      -93.19627956


--------------------------------------------------------------------------------------------------------




--------------------------------------- Iteration      1(  21)  ---------------------------------------


    POTLOK:  cpu time   97.3546: real time   97.8567
    SETDIJ:  cpu time    0.0390: real time    0.0392
    EDDIAG:  cpu time    2.9606: real time    2.9750
  RMM-DIIS:  cpu time   10.1496: real time   10.1948
    ORTHCH:  cpu time    0.0959: real time    0.0965
       DOS:  cpu time    0.0001: real time    0.0001
    CHARGE:  cpu time    1.4244: real time    1.4319
    MIXING:  cpu time    0.2362: real time    0.2375
    --------------------------------------------
      LOOP:  cpu time  112.2606: real time  112.8318

 eigenvalue-minimisations  :   166
 total energy-change (2. order) :-0.1336022E-01  (-0.4966482E-04)
 number of electron      47.0000004 magnetization       2.0146276
 augmentation part        0.4645807 magnetization       1.0968394

 Broyden mixing:
  rms(total) = 0.90597E-02    rms(broyden)= 0.90596E-02
  rms(prec ) = 0.91631E-02
  weight for this iteration     100.00

 eigenvalues of (default mixing * dielectric matrix)
  average eigenvalue GAMMA=   2.3777
 11.7971  7.1641  3.9160  2.1947  2.0737  2.0737  1.4850  1.0699  1.0699  0.9159
  0.9159  0.7914  0.7018  0.6454  0.6250  0.6045

 Free energy of the ion-electron system (eV)
  ---------------------------------------------------
  alpha Z        PSCENC =         0.15041143
  Ewald energy   TEWEN  =      4293.42819583
  -Hartree energ DENC   =     -6070.55530305
  -exchange      EXHF   =         0.00000000
  -V(xc)+E(xc)   XCENC  =       160.08813626
  PAW double counting   =      4036.96013722    -4044.18060685
  entropy T*S    EENTRO =        -0.00000000
  eigenvalues    EBANDS =      -546.24533573
  atomic energy  EATOM  =      1934.55042093
  Solvation  Ediel_sol  =       142.59430420
  ---------------------------------------------------
  free energy    TOTEN  =       -93.20963978 eV

  energy without entropy =      -93.20963978  energy(sigma->0) =      -93.20963978


--------------------------------------------------------------------------------------------------------




--------------------------------------- Iteration      1(  22)  ---------------------------------------


    POTLOK:  cpu time   98.9420: real time   99.4448
    SETDIJ:  cpu time    0.0394: real time    0.0396
    EDDIAG:  cpu time    2.9692: real time    2.9851
  RMM-DIIS:  cpu time   10.0241: real time   10.0722
    ORTHCH:  cpu time    0.0940: real time    0.0947
       DOS:  cpu time    0.0001: real time    0.0001
    CHARGE:  cpu time    1.4313: real time    1.4387
    MIXING:  cpu time    0.2460: real time    0.2474
    --------------------------------------------
      LOOP:  cpu time  113.7461: real time  114.3226

 eigenvalue-minimisations  :   163
 total energy-change (2. order) :-0.2389185E-02  (-0.7836728E-04)
 number of electron      47.0000004 magnetization       1.6093928
 augmentation part        0.4645402 magnetization       0.6916654

 Broyden mixing:
  rms(total) = 0.56456E-02    rms(broyden)= 0.56456E-02
  rms(prec ) = 0.57843E-02
  weight for this iteration     100.00

 eigenvalues of (default mixing * dielectric matrix)
  average eigenvalue GAMMA=   2.5137
 13.7702  8.1164  4.4505  2.5403  2.0429  2.0429  1.5147  1.0644  1.0644  0.9744
  0.9744  0.8689  0.7520  0.6910  0.6381  0.6221  0.6048

 Free energy of the ion-electron system (eV)
  ---------------------------------------------------
  alpha Z        PSCENC =         0.15041143
  Ewald energy   TEWEN  =      4293.42819583
  -Hartree energ DENC   =     -6069.83258884
  -exchange      EXHF   =         0.00000000
  -V(xc)+E(xc)   XCENC  =       160.08340114
  PAW double counting   =      4035.39641300    -4042.61652180
  entropy T*S    EENTRO =        -0.00000000
  eigenvalues    EBANDS =      -546.15323794
  atomic energy  EATOM  =      1934.55042093
  Solvation  Ediel_sol  =       141.78147730
  ---------------------------------------------------
  free energy    TOTEN  =       -93.21202896 eV

  energy without entropy =      -93.21202896  energy(sigma->0) =      -93.21202896


--------------------------------------------------------------------------------------------------------




--------------------------------------- Iteration      1(  23)  ---------------------------------------


    POTLOK:  cpu time   95.8219: real time   96.3229
    SETDIJ:  cpu time    0.0391: real time    0.0394
    EDDIAG:  cpu time    2.9685: real time    2.9839
  RMM-DIIS:  cpu time    9.7582: real time    9.8061
    ORTHCH:  cpu time    0.0947: real time    0.0954
       DOS:  cpu time    0.0003: real time    0.0003
    CHARGE:  cpu time    1.4273: real time    1.4351
    MIXING:  cpu time    0.2634: real time    0.2649
    --------------------------------------------
      LOOP:  cpu time  110.3734: real time  110.9479

 eigenvalue-minimisations  :   158
 total energy-change (2. order) : 0.1554903E-03  (-0.7432435E-04)
 number of electron      47.0000004 magnetization       1.2406246
 augmentation part        0.4645588 magnetization       0.3229595

 Broyden mixing:
  rms(total) = 0.39394E-02    rms(broyden)= 0.39394E-02
  rms(prec ) = 0.40891E-02
  weight for this iteration     100.00

 eigenvalues of (default mixing * dielectric matrix)
  average eigenvalue GAMMA=   2.7561
 17.5951  8.8749  4.9498  2.8101  2.0900  2.0900  1.5555  1.5555  1.0667  1.0667
  0.9323  0.9323  0.8307  0.7278  0.6776  0.6305  0.6174  0.6067

 Free energy of the ion-electron system (eV)
  ---------------------------------------------------
  alpha Z        PSCENC =         0.15041143
  Ewald energy   TEWEN  =      4293.42819583
  -Hartree energ DENC   =     -6069.59750436
  -exchange      EXHF   =         0.00000000
  -V(xc)+E(xc)   XCENC  =       160.08416508
  PAW double counting   =      4035.59944100    -4042.81975838
  entropy T*S    EENTRO =        -0.00000000
  eigenvalues    EBANDS =      -546.08982807
  atomic energy  EATOM  =      1934.55042093
  Solvation  Ediel_sol  =       141.48258307
  ---------------------------------------------------
  free energy    TOTEN  =       -93.21187347 eV

  energy without entropy =      -93.21187347  energy(sigma->0) =      -93.21187347


--------------------------------------------------------------------------------------------------------




--------------------------------------- Iteration      1(  24)  ---------------------------------------


    POTLOK:  cpu time   95.9910: real time   96.4742
    SETDIJ:  cpu time    0.0395: real time    0.0397
    EDDIAG:  cpu time    2.9631: real time    2.9784
[...]
  rms(prec ) = 0.20677E-02
  weight for this iteration     100.00

 Free energy of the ion-electron system (eV)
  ---------------------------------------------------
  alpha Z        PSCENC =         0.15041143
  Ewald energy   TEWEN  =      4235.75152180
  -Hartree energ DENC   =     -6010.61766938
  -exchange      EXHF   =         0.00000000
  -V(xc)+E(xc)   XCENC  =       159.38786861
  PAW double counting   =      3892.12128967    -3899.26371098
  entropy T*S    EENTRO =        -0.00000000
  eigenvalues    EBANDS =      -545.57635238
  atomic energy  EATOM  =      1934.55042093
  Solvation  Ediel_sol  =       140.00672442
  ---------------------------------------------------
  free energy    TOTEN  =       -93.48949588 eV

  energy without entropy =      -93.48949588  energy(sigma->0) =      -93.48949588


--------------------------------------------------------------------------------------------------------




--------------------------------------- Iteration     41(   2)  ---------------------------------------


    POTLOK:  cpu time   86.8224: real time   87.3068
    SETDIJ:  cpu time    0.0398: real time    0.0400
    EDDIAG:  cpu time    3.0134: real time    3.0306
  RMM-DIIS:  cpu time    9.9801: real time   10.0312
    ORTHCH:  cpu time    0.0941: real time    0.0947
       DOS:  cpu time    0.0003: real time    0.0003
    CHARGE:  cpu time    1.4482: real time    1.4565
    MIXING:  cpu time    0.1095: real time    0.1101
    --------------------------------------------
      LOOP:  cpu time  101.5078: real time  102.0702

 eigenvalue-minimisations  :   160
 total energy-change (2. order) :-0.4652674E-05  (-0.1185631E-04)
 number of electron      47.0000002 magnetization       1.0000001
 augmentation part        0.4421719 magnetization       0.0839988

 Broyden mixing:
  rms(total) = 0.10230E-02    rms(broyden)= 0.10227E-02
  rms(prec ) = 0.10343E-02
  weight for this iteration     100.00

 eigenvalues of (default mixing * dielectric matrix)
  average eigenvalue GAMMA=   0.8508
  0.8508

 Free energy of the ion-electron system (eV)
  ---------------------------------------------------
  alpha Z        PSCENC =         0.15041143
  Ewald energy   TEWEN  =      4235.75152180
  -Hartree energ DENC   =     -6010.60948248
  -exchange      EXHF   =         0.00000000
  -V(xc)+E(xc)   XCENC  =       159.38749963
  PAW double counting   =      3892.04317017    -3899.18570999
  entropy T*S    EENTRO =        -0.00000000
  eigenvalues    EBANDS =      -545.58288244
  atomic energy  EATOM  =      1934.55042093
  Solvation  Ediel_sol  =       140.00555042
  ---------------------------------------------------
  free energy    TOTEN  =       -93.48950053 eV

  energy without entropy =      -93.48950053  energy(sigma->0) =      -93.48950053


--------------------------------------------------------------------------------------------------------




--------------------------------------- Iteration     41(   3)  ---------------------------------------


    POTLOK:  cpu time   85.7062: real time   86.1868
    SETDIJ:  cpu time    0.0382: real time    0.0384
    EDDIAG:  cpu time    2.9931: real time    3.0092
  RMM-DIIS:  cpu time    7.5934: real time    7.6306
    ORTHCH:  cpu time    0.0947: real time    0.0954
       DOS:  cpu time    0.0001: real time    0.0001
    --------------------------------------------
      LOOP:  cpu time   96.4257: real time   96.9605

 eigenvalue-minimisations  :   118
 total energy-change (2. order) :-0.2074937E-05  (-0.4841179E-06)
 number of electron      47.0000002 magnetization       1.0000001
 augmentation part        0.4421719 magnetization       0.0839988

 Free energy of the ion-electron system (eV)
  ---------------------------------------------------
  alpha Z        PSCENC =         0.15041143
  Ewald energy   TEWEN  =      4235.75152180
  -Hartree energ DENC   =     -6010.60998509
  -exchange      EXHF   =         0.00000000
  -V(xc)+E(xc)   XCENC  =       159.38758433
  PAW double counting   =      3892.08319235    -3899.22571286
  entropy T*S    EENTRO =        -0.00000000
  eigenvalues    EBANDS =      -545.58202896
  atomic energy  EATOM  =      1934.55042093
  Solvation  Ediel_sol  =       140.00509346
  ---------------------------------------------------
  free energy    TOTEN  =       -93.48950261 eV

  energy without entropy =      -93.48950261  energy(sigma->0) =      -93.48950261


--------------------------------------------------------------------------------------------------------




 average (electrostatic) potential at core
  the test charge radii are     0.6991  0.9406  0.7215  0.5201
  (the norm of the test charge is              1.0000)
       1 -58.2251       2 -58.3168       3 -58.0635       4 -58.2982       5 -58.2248
       6 -58.5365       7 -60.2626       8 -99.7848       9 -79.4893      10 -41.5905
      11 -41.6718      12 -41.5954      13 -41.6916      14 -41.5827
 
 
 
 E-fermi :  -2.2841     XC(G=0):  -0.0510     alpha+bet : -0.0173


 spin component 1

 k-point     1 :       0.0000    0.0000    0.0000
  band No.  band energies     occupation 
      1     -25.2915      1.00000
      2     -20.7193      1.00000
      3     -19.7129      1.00000
      4     -18.2269      1.00000
      5     -17.9558      1.00000
      6     -15.3681      1.00000
      7     -14.2843      1.00000
      8     -13.1023      1.00000
      9     -11.8549      1.00000
     10     -10.8876      1.00000
     11     -10.5671      1.00000
     12      -9.9858      1.00000
     13      -9.7248      1.00000
     14      -9.7100      1.00000
     15      -9.4961      1.00000
     16      -8.4186      1.00000
     17      -8.1699      1.00000
     18      -7.5575      1.00000
     19      -6.9399      1.00000
     20      -6.9224      1.00000
     21      -6.0756      1.00000
     22      -6.0189      1.00000
     23      -5.9612      1.00000
     24      -2.5837      1.00000
     25      -0.8857      0.00000
     26      -0.6709      0.00000
     27      -0.2814      0.00000
     28      -0.0688      0.00000
     29      -0.0587      0.00000
     30      -0.0051      0.00000
     31       0.0242      0.00000
     32       0.0759      0.00000
     33       0.0780      0.00000
     34       0.0930      0.00000
     35       0.0935      0.00000
     36       0.1060      0.00000
     37       0.1085      0.00000
     38       0.1647      0.00000
     39       0.1655      0.00000
     40       0.1667      0.00000
     41       0.1671      0.00000
     42       0.1711      0.00000

 spin component 2

 k-point     1 :       0.0000    0.0000    0.0000
  band No.  band energies     occupation 
      1     -25.0804      1.00000
      2     -20.6243      1.00000
      3     -19.6660      1.00000
      4     -18.1013      1.00000
      5     -17.8772      1.00000
      6     -15.1360      1.00000
      7     -14.2453      1.00000
      8     -13.0121      1.00000
      9     -11.7487      1.00000
     10     -10.8215      1.00000
     11     -10.4688      1.00000
     12      -9.9457      1.00000
     13      -9.6888      1.00000
     14      -9.4200      1.00000
     15      -9.2449      1.00000
     16      -8.1322      1.00000
     17      -8.1170      1.00000
     18      -7.5358      1.00000
     19      -6.9070      1.00000
     20      -6.8196      1.00000
     21      -5.8847      1.00000
     22      -5.8829      1.00000
     23      -5.6868      1.00000
     24      -1.9101      0.00000
     25      -0.7418      0.00000
     26      -0.5701      0.00000
     27      -0.2033      0.00000
     28      -0.0180      0.00000
     29      -0.0113      0.00000
     30       0.0146      0.00000
     31       0.0524      0.00000
     32       0.0769      0.00000
     33       0.0788      0.00000
     34       0.0954      0.00000
     35       0.0982      0.00000
     36       0.1106      0.00000
     37       0.1210      0.00000
     38       0.1681      0.00000
     39       0.1682      0.00000
     40       0.1690      0.00000
     41       0.1693      0.00000
     42       0.1715      0.00000


--------------------------------------------------------------------------------------------------------


 soft charge-density along one line, spin component           1
         0         1         2         3         4         5         6         7         8         9
 total charge-density along one line
 
 soft charge-density along one line, spin component           2
         0         1         2         3         4         5         6         7         8         9
 total charge-density along one line
 
 pseudopotential strength for first ion, spin component:           1
 10.235  13.612   0.001   0.000   0.000  -0.004  -0.000   0.000
 13.612  18.101   0.001   0.000   0.000  -0.005  -0.000   0.000
  0.001   0.001  -4.349   0.000   0.000   8.506  -0.000   0.000
  0.000   0.000   0.000  -4.355   0.000  -0.000   8.518  -0.000
  0.000   0.000   0.000   0.000  -4.351   0.000  -0.000   8.508
 -0.004  -0.005   8.506  -0.000   0.000 -18.771   0.000  -0.001
 -0.000  -0.000  -0.000   8.518  -0.000   0.000 -18.799   0.000
  0.000   0.000   0.000  -0.000   8.508  -0.001   0.000 -18.774
 pseudopotential strength for first ion, spin component:           2
 10.207  13.573   0.001   0.000   0.000  -0.004  -0.000  -0.000
 13.573  18.049   0.001   0.000   0.000  -0.005  -0.000  -0.000
  0.001   0.001  -4.349  -0.000  -0.000   8.512   0.000   0.000
  0.000   0.000  -0.000  -4.328  -0.000   0.000   8.477   0.000
  0.000   0.000  -0.000  -0.000  -4.351   0.000   0.000   8.514
 -0.004  -0.005   8.512   0.000   0.000 -18.794  -0.000  -0.001
 -0.000  -0.000   0.000   8.477   0.000  -0.000 -18.739  -0.000
 -0.000  -0.000   0.000   0.000   8.514  -0.001  -0.000 -18.798
 total augmentation occupancy for first ion, spin component:           1
  7.715  -3.338   0.151   0.000  -0.162   0.034   0.000  -0.027
 -3.338   1.488  -0.105  -0.000   0.092  -0.021  -0.000   0.015
  0.151  -0.105   1.704   0.000  -0.022   0.148   0.000   0.001
  0.000  -0.000   0.000   1.183   0.000   0.000   0.064   0.000
 -0.162   0.092  -0.022   0.000   1.819   0.001   0.000   0.168
  0.034  -0.021   0.148   0.000   0.001   0.014   0.000   0.000
  0.000  -0.000   0.000   0.064   0.000   0.000   0.004   0.000
 -0.027   0.015   0.001   0.000   0.168   0.000   0.000   0.017
 total augmentation occupancy for first ion, spin component:           2
  0.008   0.002  -0.004   0.000  -0.004  -0.001   0.000  -0.001
  0.002  -0.002   0.002  -0.000   0.003   0.000  -0.000   0.000
 -0.004   0.002   0.004  -0.000  -0.001   0.000   0.000  -0.000
  0.000  -0.000  -0.000   0.162  -0.000   0.000   0.000  -0.000
 -0.004   0.003  -0.001  -0.000   0.003  -0.000  -0.000   0.000
 -0.001   0.000   0.000   0.000  -0.000   0.000   0.000  -0.000
  0.000  -0.000   0.000   0.000  -0.000   0.000  -0.000   0.000
 -0.001   0.000  -0.000  -0.000   0.000  -0.000   0.000  -0.000


------------------------ aborting loop because EDIFF is reached ----------------------------------------


    CHARGE:  cpu time    1.4594: real time    1.4673
    FORLOC:  cpu time    0.2404: real time    0.2416
    FORNL :  cpu time    4.5596: real time    4.5842
    STRESS:  cpu time   13.8942: real time   13.9746
    FORCOR:  cpu time    5.1061: real time    5.1333
    FORHAR:  cpu time    0.8381: real time    0.8430
    MIXING:  cpu time    0.1079: real time    0.1085
    OFIELD:  cpu time    0.0000: real time    0.0000

 ---------------------------------------------------------------------------------------------

         DFTD3 V3.0 Rev 1        
 Edisp (eV)   -0.15415

 E6    (eV) :    -0.0594
 E8    (eV) :    -0.0947
 % E8        : 61.44
    FORVDW:  cpu time    0.0076: real time    0.0318

  FORCE on cell =-STRESS in cart. coord.  units (eV):
  Direction    XX          YY          ZZ          XY          YZ          ZX
  --------------------------------------------------------------------------------------
  Alpha Z     0.15041     0.15041     0.15041
  Ewald    2674.84603  1923.74663  -362.84131  -155.89225     0.98395     0.40703
  Hartree  2979.57826  2239.54974   791.47934  -112.67395     0.61087     0.28080
  E(xc)    -176.06620  -175.90363  -180.31581    -0.17207     0.00195     0.00064
  Local   -6195.86694 -4686.89370 -1047.91156   265.18075    -1.55407    -0.67610
  n-local    20.30847    18.70783    22.38824     0.08149     0.00165    -0.00310
  augment   -14.51667   -15.56695   -14.93101     1.02067    -0.00031     0.00019
  Kinetic   712.55142   697.50321   790.23828     2.95366    -0.03942    -0.01186
  Fock        0.00000     0.00000     0.00000     0.00000     0.00000     0.00000
  vdW         0.03157     0.04941    -0.00000     0.00534     0.00002    -0.00000
  -------------------------------------------------------------------------------------
  Total       1.01633     1.34293    -1.74342     0.50364     0.00465    -0.00239
  in kB       0.02544     0.03362    -0.04364     0.01261     0.00012    -0.00006
  external pressure =        0.01 kB  Pullay stress =        0.00 kB


 VOLUME and BASIS-vectors are now :
 -----------------------------------------------------------------------------
  energy-cutoff  :      500.00
  volume of cell :    64000.00
      direct lattice vectors                 reciprocal lattice vectors
    40.000000000  0.000000000  0.000000000     0.025000000  0.000000000  0.000000000
     0.000000000 40.000000000  0.000000000     0.000000000  0.025000000  0.000000000
     0.000000000  0.000000000 40.000000000     0.000000000  0.000000000  0.025000000

  length of vectors
    40.000000000 40.000000000 40.000000000     0.025000000  0.025000000  0.025000000


 FORCES acting on ions
    electron-ion (+dipol)            ewald-force                    non-local-force                 convergence-correction
 -----------------------------------------------------------------------------------------------
   0.280E+02 0.174E+03 0.126E+00   -.265E+02 -.174E+03 -.127E+00   0.483E-02 0.120E+01 0.295E-02   0.113E-02 -.110E-02 -.168E-03
   0.166E+03 0.130E+03 0.739E-01   -.164E+03 -.130E+03 -.723E-01   0.503E+00 0.235E+00 -.913E-03   0.234E-02 -.293E-03 -.175E-03
   0.209E+03 -.446E+02 0.347E-01   -.208E+03 0.445E+02 -.356E-01   0.972E+00 -.245E+00 0.150E-02   -.188E-02 -.107E-02 -.121E-03
   0.981E+02 -.185E+03 -.925E-01   -.971E+02 0.184E+03 0.922E-01   0.354E+00 -.423E+00 -.166E-02   -.103E-02 0.188E-02 0.175E-03
   -.454E+02 -.164E+03 -.114E+00   0.469E+02 0.164E+03 0.114E+00   -.607E+00 -.128E+01 -.396E-02   0.215E-03 0.367E-02 0.253E-03
   -.174E+02 -.198E+01 -.208E-03   0.169E+02 0.228E+01 -.830E-03   0.153E+01 -.682E+00 0.109E-02   0.396E-02 -.584E-02 0.806E-05
   -.709E+02 -.590E+02 -.624E-01   0.663E+02 0.606E+02 0.640E-01   0.544E+01 -.229E+01 -.280E-02   -.677E-04 -.479E-02 0.258E-04
   -.271E+03 -.189E+03 -.598E-01   0.274E+03 0.190E+03 0.597E-01   -.302E+01 -.278E+01 -.533E-03   0.339E-02 -.162E-01 -.134E-03
   -.212E+03 0.324E+03 0.679E-01   0.235E+03 -.370E+03 -.811E-01   -.207E+02 0.449E+02 0.131E-01   -.128E-01 -.887E-03 -.323E-05
   -.354E+02 -.759E+02 -.471E-01   0.394E+02 0.797E+02 0.497E-01   -.384E+01 -.432E+01 -.263E-02   -.126E-02 0.290E-03 0.253E-04
   0.313E+02 -.811E+02 -.331E-01   -.327E+02 0.860E+02 0.351E-01   0.169E+01 -.544E+01 -.214E-02   -.434E-03 0.192E-03 0.156E-04
   0.843E+02 -.182E+02 0.847E-02   -.893E+02 0.193E+02 -.890E-02   0.558E+01 -.121E+01 0.484E-03   -.362E-04 -.284E-03 -.201E-04
   0.617E+02 0.613E+02 0.442E-01   -.650E+02 -.652E+02 -.470E-01   0.379E+01 0.426E+01 0.316E-02   0.157E-03 -.778E-03 -.175E-04
   -.280E+01 0.862E+02 0.398E-01   0.502E+01 -.913E+02 -.416E-01   -.176E+01 0.548E+01 0.187E-02   0.937E-03 -.413E-03 -.168E-04
 -----------------------------------------------------------------------------------------------
   0.101E+02 -.374E+02 -.129E-01   0.844E-13 -.142E-13 -.625E-16   -.101E+02 0.374E+02 0.954E-02   -.542E-02 -.256E-01 -.153E-03
 
 
 POSITION                                       TOTAL-FORCE (eV/Angst)
 -----------------------------------------------------------------------------------
     19.86775     18.74593     19.99926         0.000778      0.011364      0.001507
     18.51559     19.05269     19.99930         0.006913      0.003680      0.000154
     18.06685     20.39013     19.99980        -0.005483      0.001128      0.000714
     19.03195     21.42073     20.00062        -0.000061     -0.010277     -0.001205
     20.39069     21.14027     20.00074        -0.001622     -0.001524     -0.002885
     20.86773     19.78672     20.00006         0.001493      0.001735      0.000385
     22.22673     19.38182     20.00020        -0.009838      0.000858     -0.000763
     23.48161     20.84217     20.00056        -0.003175      0.009000      0.000256
     22.74600     18.25312     19.99986         0.010027     -0.013997      0.000343
     21.11136     21.95773     20.00126         0.004476     -0.011543      0.000479
     18.70756     22.46482     20.00103         0.003852     -0.010569      0.000365
     17.00130     20.62217     19.99971        -0.001887      0.001554      0.000248
     17.78870     18.23617     19.99870        -0.008110      0.006375      0.000384
     20.19614     17.70556     19.99890         0.002639      0.012214      0.000017
 -----------------------------------------------------------------------------------
    total drift:                                0.012593     -0.008195     -0.003528


--------------------------------------------------------------------------------------------------------



  FREE ENERGIE OF THE ION-ELECTRON SYSTEM (eV)
  ---------------------------------------------------
  free  energy   TOTEN  =       -93.64365739 eV

  energy  without entropy=      -93.64365739  energy(sigma->0) =      -93.64365739
 
 d Force = 0.4150226E-04[ 0.258E-04, 0.572E-04]  d Energy = 0.4458567E-04-0.308E-05
 d Force = 0.1697071E-01[ 0.170E-01, 0.170E-01]  d Ewald  = 0.1697073E-01-0.154E-07


--------------------------------------------------------------------------------------------------------


    POTLOK:  cpu time   88.8968: real time   89.3801


--------------------------------------------------------------------------------------------------------


 Conjugate gradient step on ions:
 trial-energy change:   -0.000045  1 .order   -0.000042   -0.000057   -0.000026
  (g-gl).g = 0.160E-03      g.g   = 0.229E-03  gl.gl    = 0.409E-03
 g(Force)  = 0.229E-03   g(Stress)= 0.000E+00 ortho     =-0.714E-06
 gamma     =   0.39049
 trial     =   0.25074
 opt step  =   0.45604  (harmonic =   0.45604) maximal distance =0.00133526
 next E    =   -93.643665   (d E  =  -0.00005)


--------------------------------------------------------------------------------------------------------


  
 reached required accuracy - stopping structural energy minimisation
 writing wavefunctions
     LOOP+:  cpu time  432.8178: real time  446.0857
    4ORBIT:  cpu time    0.0000: real time    0.0000

 total amount of memory used by VASP MPI-rank0   800179. kBytes
=======================================================================

   base      :      30000. kBytes
   nonlr-proj:        891. kBytes
   fftplans  :     192295. kBytes
   grid      :     540583. kBytes
   one-center:         12. kBytes
   wavefun   :      36398. kBytes
 
  
  
 General timing and accounting informations for this job:
 ========================================================
  
                  Total CPU time used (sec):    37658.254
                            User time (sec):    34350.362
                          System time (sec):     3307.893
                         Elapsed time (sec):    37876.217
  
                   Maximum memory used (kb):     2503452.
                   Average memory used (kb):           0.
  
                          Minor page faults:     14908281
                          Major page faults:          354
                 Voluntary context switches:        23943
