
                                 *****************
                                 * O   R   C   A *
                                 *****************

                                            #,                                       
                                            ###                                      
                                            ####                                     
                                            #####                                    
                                            ######                                   
                                           ########,                                 
                                     ,,################,,,,,                         
                               ,,#################################,,                 
                          ,,##########################################,,             
                       ,#########################################, ''#####,          
                    ,#############################################,,   '####,        
                  ,##################################################,,,,####,       
                ,###########''''           ''''###############################       
              ,#####''   ,,,,##########,,,,          '''####'''          '####       
            ,##' ,,,,###########################,,,                        '##       
           ' ,,###''''                  '''############,,,                           
         ,,##''                                '''############,,,,        ,,,,,,###''
      ,#''                                            '''#######################'''  
     '                                                          ''''####''''         
             ,#######,   #######,   ,#######,      ##                                
            ,#'     '#,  ##    ##  ,#'     '#,    #''#        ,####,   ,####,        
            ##       ##  ##   ,#'  ##            #'  '#       #'       #'  '#        
            ##       ##  #######   ##           ,######,      #####,   #    #        
            '#,     ,#'  ##    ##  '#,     ,#' ,#      #,     #,   #   #,  ,#        
             '#######'   ##     ##  '#######'  #'      '#     '####' # '####'        



                #########################################################
                #                        -***-                          #
                #          Department of theory and spectroscopy        #
                #                                                       #
                #                      Frank Neese                      #
                #                                                       #
                #     Directorship, Architecture, Infrastructure        #
                #                    SHARK, DRIVERS                     #
                #        Core code/Algorithms in most modules           #
                #                                                       #
                #        Max Planck Institute fuer Kohlenforschung      #
                #                Kaiser Wilhelm Platz 1                 #
                #                 D-45470 Muelheim/Ruhr                 #
                #                      Germany                          #
                #                                                       #
                #                  All rights reserved                  #
                #                        -***-                          #
                #########################################################


                         Program Version 6.0.0  -   RELEASE  -


 With contributions from (in alphabetic order):
   Daniel Aravena         : Magnetic Suceptibility
   Michael Atanasov       : Ab Initio Ligand Field Theory (pilot matlab implementation)
   Alexander A. Auer      : GIAO ZORA, VPT2 properties, NMR spectrum
   Ute Becker             : All parallelization in ORCA, NUMFREQ, NUMCALC
   Giovanni Bistoni       : ED, misc. LED, open-shell LED, HFLD
   Martin Brehm           : Molecular dynamics
   Dmytro Bykov           : pre 5.0 version of the SCF Hessian
   Marcos Casanova-Páez   : Triplet and SCS-CIS(D). UHF-(DLPNO)-IP/EA/STEOM-CCSD. UHF-CVS-IP/STEOM-CCSD
   Vijay G. Chilkuri      : MRCI spin determinant printing, contributions to CSF-ICE
   Pauline Colinet        : FMM embedding
   Dipayan Datta          : RHF DLPNO-CCSD density
   Achintya Kumar Dutta   : EOM-CC, STEOM-CC
   Nicolas Foglia         : Exact transition moments, OPA infrastructure, MCD improvements
   Dmitry Ganyushin       : Spin-Orbit,Spin-Spin,Magnetic field MRCI
   Miquel Garcia          : C-PCM and meta-GGA Hessian, CCSD/C-PCM, Gaussian charge scheme
   Tiago L. C. Gouveia    : GS-ROHF, GS-ROCIS
   Yang Guo               : DLPNO-NEVPT2, F12-NEVPT2, CIM, IAO-localization
   Andreas Hansen         : Spin unrestricted coupled pair/coupled cluster methods
   Ingolf Harden          : AUTO-CI MPn and infrastructure 
   Benjamin Helmich-Paris : MC-RPA, TRAH-(SCF,CASSCF), AVAS, COSX integrals, SCF dyn. polar.
   Lee Huntington         : MR-EOM, pCC
   Robert Izsak           : Overlap fitted RIJCOSX, COSX-SCS-MP3, EOM
   Riya Kayal             : Wick's Theorem for AUTO-CI, AUTO-CI UHF-CCSDT
   Emily Kempfer          : AUTO-CI, RHF CISDT and CCSDT
   Christian Kollmar      : KDIIS, OOCD, Brueckner-CCSD(T), CCSD density, CASPT2, CASPT2-K, improved NEVPT2
   Axel Koslowski         : Symmetry handling
   Simone Kossmann        : Meta GGA functionals, TD-DFT gradient, OOMP2, (MP2 Hessian; deprecated post 5.0)
   Lucas Lang             : DCDCAS
   Marvin Lechner         : AUTO-CI (C++ implementation), FIC-MRCC
   Spencer Leger          : CASSCF response
   Dagmar Lenk            : GEPOL surface, SMD, ORCA-2-JSON
   Dimitrios Liakos       : Extrapolation schemes; Compound Job, initial MDCI parallelization
   Dimitrios Manganas     : Further ROCIS development; embedding schemes. LFT, Crystal Embedding
   Dimitrios Pantazis     : SARC Basis sets
   Anastasios Papadopoulos: AUTO-CI, single reference methods and gradients
   Taras Petrenko         : pre 6.0 DFT Hessian and TD-DFT gradient, (ASA, deprecated), ECA, 1-Electron XAS/XES, NRVS
   Peter Pinski           : DLPNO-MP2, DLPNO-MP2 Gradient
   Christoph Reimann      : Effective Core Potentials
   Marius Retegan         : Local ZFS, SOC
   Christoph Riplinger    : Optimizer, TS searches, QM/MM, DLPNO-CCSD(T), (RO)-DLPNO pert. Triples
   Michael Roemelt        : Original ROCIS implementation
   Masaaki Saitow         : Open-shell DLPNO-CCSD energy and density
   Barbara Sandhoefer     : DKH picture change effects
   Kantharuban Sivalingam : CASSCF convergence/infrastructure, NEVPT2 and variants, FIC-MRCI
   Bernardo de Souza      : ESD, SOC TD-DFT
   Georgi Stoychev        : AutoAux, RI-MP2 NMR, DLPNO-MP2 response, X2C
   Van Anh Tran           : RI-MP2 g-tensors
   Willem Van den Heuvel  : Paramagnetic NMR
   Zikuan Wang            : NOTCH, Electric field optimization 
   Frank Wennmohs         : Technical directorship and infrastructure
   Hang Xu                : AUTO-CI-Response properties 


 We gratefully acknowledge several colleagues who have allowed us to
 interface, adapt or use parts of their codes:
   Stefan Grimme, W. Hujo, H. Kruse, P. Pracht,  : VdW corrections, initial TS optimization,
                  C. Bannwarth, S. Ehlert,         DFT functionals, gCP, sTDA/sTD-DF
                  L. Wittmann, M. Mueller
   Ed Valeev, F. Pavosevic, A. Kumar             : LibInt (2-el integral package), F12 methods
   Garnet Chan, S. Sharma, J. Yang, R. Olivares  : DMRG
   Ulf Ekstrom                                   : XCFun DFT Library
   Mihaly Kallay                                 : mrcc  (arbitrary order and MRCC methods)
   Frank Weinhold                                : gennbo (NPA and NBO analysis)
   Simon Mueller                                 : openCOSMO-RS
   Christopher J. Cramer and Donald G. Truhlar   : smd solvation model
   Lars Goerigk                                  : TD-DFT with DH, B97 family of functionals
   V. Asgeirsson, H. Jonsson                     : NEB implementation
   FAccTs GmbH                                   : IRC, NEB, NEB-TS, DLPNO-Multilevel, CI-OPT
                                                   MM, QMMM, 2- and 3-layer-ONIOM, Crystal-QMMM,
                                                   LR-CPCM, SF, NACMEs, symmetry and pop. for TD-DFT,
                                                   nearIR, NL-DFT gradient (VV10), updates on ESD,
                                                   ML-optimized integration grids, MBIS, APM,
                                                   GOAT, DOCKER, SOLVATOR, interface openCOSMO-RS
   S Lehtola, MJT Oliveira, MAL Marques          : LibXC Library
   Liviu Ungur et al                             : ANISO software


 Your calculation uses the libint2 library for the computation of 2-el integrals
 For citations please refer to: http://libint.valeyev.net

 Your ORCA version has been built with support for libXC version: 6.2.2
 For citations please refer to: https://libxc.gitlab.io

 This ORCA versions uses:
   CBLAS   interface :  Fast vector & matrix operations
   LAPACKE interface :  Fast linear algebra routines
   SCALAPACK package :  Parallel linear algebra routines
   Shared memory     :  Shared parallel matrices
   BLAS/LAPACK       :  OpenBLAS 0.3.27  USE64BITINT DYNAMIC_ARCH NO_AFFINITY Sandybridge SINGLE_THREADED
        Core in use  :  Sandybridge
   Copyright (c) 2011-2014, The OpenBLAS Project


NOTE: MaxCore=3500 MB was set to SCF,MP2,MDCI,CIPSI,MRCI and CIS
      => If you want to overwrite this, your respective input block should be placed after the MaxCore statement
Your calculation utilizes the atom-pairwise dispersion correction
with the Becke-Johnson damping scheme (D3BJ)


Your calculation utilizes the SMD solvation module
Please cite in your paper:
A.V. Marenich, C.J. Cramer, D.G. Truhlar J. Phys. Chem. B, 113, (2009), 6378 

Warning: RI is on but no J-basis has been assigned. Assigning Def2/J (nothing to worry about!)
================================================================================

----- Orbital basis set information -----
Your calculation utilizes the basis: aug-cc-pVTZ 
    H, B-Ne : Obtained from the ccRepo (grant-hill.group.shef.ac.uk/ccrepo) Feb. 2017
              R. A. Kendall, T. H. Dunning, Jr., R. J. Harrison, J. Chem. Phys. 96, 6796 (1992)
         He : Obtained from the ccRepo (grant-hill.group.shef.ac.uk/ccrepo) Feb. 2017
              D. E. Woon, T. H. Dunning, Jr., J. Chem. Phys. 100, 2975 (1994)
  Li-Be, Na : Obtained from the ccRepo (grant-hill.group.shef.ac.uk/ccrepo) Feb. 2017
              B. P. Prascher, D. E. Woon, K. A. Peterson, T. H. Dunning, Jr., A. K. Wilson, Theor. Chem. Acc. 128, 69 (2011)
         Mg : Obtained from the Peterson Research Group Website (tyr0.chem.wsu.edu/~kipeters) Feb. 2017
              B. P. Prascher, D. E. Woon, K. A. Peterson, T. H. Dunning, Jr., A. K. Wilson, Theor. Chem. Acc. 128, 69 (2011)
      Al-Ar : Obtained from the ccRepo (grant-hill.group.shef.ac.uk/ccrepo) Feb. 2017
              D. E. Woon, T. H. Dunning, Jr., J. Chem. Phys. 98, 1358 (1993)
      Sc-Zn : Obtained from the ccRepo (grant-hill.group.shef.ac.uk/ccrepo) Feb. 2017
              N. B. Balabanov, K. A. Peterson, J. Chem. Phys. 123, 064107 (2005)
              N. B. Balabanov, K. A. Peterson, J. Chem. Phys. 125, 074110 (2006)
      Ga-Kr : Obtained from the ccRepo (grant-hill.group.shef.ac.uk/ccrepo) Feb. 2017
              A. K. Wilson, D. E. Woon, K. A. Peterson, T. H. Dunning, Jr., J. Chem. Phys. 110, 7667 (1999)
     Ag, Au : Obtained from the Peterson Research Group Website (tyr0.chem.wsu.edu/~kipeters) Feb. 2017
              K. A. Peterson, C. Puzzarini, Theor. Chem. Acc. 114, 283 (2005)

----- AuxJ basis set information -----
Your calculation utilizes the auxiliary basis: def2/J
   F. Weigend, Phys. Chem. Chem. Phys. 8, 1057 (2006).

================================================================================
                                        WARNINGS
                       Please study these warnings very carefully!
================================================================================

Using LibXC functional ID 497 : Re-regularized SCAN exchange by Furness et al
[ 1]  J. W. Furness, A. D. Kaplan, J. Ning, J. P. Perdew, and J. Sun.,  J. Phys. Chem. Lett. 11, 8208-8215 (2020)
[ 2]  J. W. Furness, A. D. Kaplan, J. Ning, J. P. Perdew, and J. Sun.,  J. Phys. Chem. Lett. 11, 9248-9248 (2020)
Using LibXC functional ID 498 : Re-regularized SCAN correlation by Furness et al
[ 1]  J. W. Furness, A. D. Kaplan, J. Ning, J. P. Perdew, and J. Sun.,  J. Phys. Chem. Lett. 11, 8208-8215 (2020)
[ 2]  J. W. Furness, A. D. Kaplan, J. Ning, J. P. Perdew, and J. Sun.,  J. Phys. Chem. Lett. 11, 9248-9248 (2020)
Using LibXC functional ID 497 : Re-regularized SCAN exchange by Furness et al
[ 1]  J. W. Furness, A. D. Kaplan, J. Ning, J. P. Perdew, and J. Sun.,  J. Phys. Chem. Lett. 11, 8208-8215 (2020)
[ 2]  J. W. Furness, A. D. Kaplan, J. Ning, J. P. Perdew, and J. Sun.,  J. Phys. Chem. Lett. 11, 9248-9248 (2020)
Using LibXC functional ID 498 : Re-regularized SCAN correlation by Furness et al
[ 1]  J. W. Furness, A. D. Kaplan, J. Ning, J. P. Perdew, and J. Sun.,  J. Phys. Chem. Lett. 11, 8208-8215 (2020)
[ 2]  J. W. Furness, A. D. Kaplan, J. Ning, J. P. Perdew, and J. Sun.,  J. Phys. Chem. Lett. 11, 9248-9248 (2020)

WARNING: Geometry Optimization
  ===> : Switching off AutoStart
         For restart on a previous wavefunction, please use MOREAD

================================================================================
                                       INPUT FILE
================================================================================
NAME = cs_rporg_078_red_opt_07.inp
|  1> !r2SCANh opt aug-cc-pVTZ d3 TightSCF SlowConv RIJCOSX defgrid2
|  2> 
|  3> %pal
|  4> nprocs 8
|  5> end
|  6> 
|  7> %scf
|  8> MaxIter 1500
|  9> end
| 10> 
| 11> %maxcore 3500
| 12> 
| 13> !CPCM
| 14> %cpcm smd true
| 15> SMDsolvent "MeCN"
| 16> surfacetype gepol_ses
| 17> rsolv 2.19
| 18> end 
| 19> 
| 20> * xyz 0 1
| 21>   C           1.35661311001034      0.08242353673381     -0.04830147992154
| 22>   C           0.72528734400678      1.33237499260851      0.02931980589731
| 23>   C          -0.65716684626784      1.42571283843268      0.04302512633637
| 24>   C          -1.44754625606451      0.26653460954742      0.00874339988909
| 25>   C          -0.82552870874395     -0.98502153376474     -0.04770168852446
| 26>   C           0.56772235704198     -1.06633130194090     -0.08313298846277
| 27>   H           1.05006188676245     -2.04577688056741     -0.14354433447971
| 28>   H          -1.41135553820799     -1.90566385705075     -0.07389044457674
| 29>   O          -2.78063858244739      0.45554290336633      0.03645550634804
| 30>   C          -3.62283453444167     -0.66142074230683      0.01078196288993
| 31>   H          -4.65283077190408     -0.27592428677814      0.04102787975267
| 32>   H          -3.48787720923621     -1.25466269618222     -0.91406269819965
| 33>   H          -3.45860421924221     -1.31813897835911      0.88673287617431
| 34>   H          -1.16047233306293      2.39441311771435      0.09515969980486
| 35>   H           1.33361129819119      2.23967992641979      0.08145593960365
| 36>   S           3.13145786803727     -0.06127748319567     -0.01892864657318
| 37>   H           3.36519883556877      0.49010163532289     -1.23773021595817
| 38> *
| 39> 
| 40>                          ****END OF INPUT****
================================================================================

                       *****************************
                       * Geometry Optimization Run *
                       *****************************

Geometry optimization settings:
Update method            Update   .... BFGS
Choice of coordinates    CoordSys .... (2022) Redundant Internals
Initial Hessian          InHess   .... Almloef's Model
Max. no of cycles        MaxIter  .... 51

Convergence Tolerances:
Energy Change            TolE     ....  5.0000e-06 Eh
Max. Gradient            TolMAXG  ....  3.0000e-04 Eh/bohr
RMS Gradient             TolRMSG  ....  1.0000e-04 Eh/bohr
Max. Displacement        TolMAXD  ....  4.0000e-03 bohr
RMS Displacement         TolRMSD  ....  2.0000e-03 bohr
Strict Convergence                .... False

------------------------------------------------------------------------------
                        ORCA OPTIMIZATION COORDINATE SETUP
------------------------------------------------------------------------------

The optimization will be done in redundant internal coordinates (2022)
Making redundant internal coordinates   ...  (2022 redundants) done
Evaluating the initial hessian          ...  (Almloef) done
Evaluating the coordinates              ...  done
Calculating the B-matrix                .... done
Calculating the G-matrix                .... done
Diagonalizing the G-matrix              .... done
Small eigenvalue found = 1.959e-02
The first mode is                       ....   29
The number of degrees of freedom        ....   45

    -----------------------------------------------------------------
                    Redundant Internal Coordinates


    -----------------------------------------------------------------
         Definition                    Initial Value    Approx d2E/dq
    -----------------------------------------------------------------
      1. B(C   1,C   0)                  1.4025         0.596778   
      2. B(C   2,C   1)                  1.3857         0.634816   
      3. B(C   3,C   2)                  1.4034         0.594755   
      4. B(C   4,C   3)                  1.3987         0.605046   
      5. B(C   5,C   4)                  1.3961         0.611015   
      6. B(C   5,C   0)                  1.3940         0.615712   
      7. B(H   6,C   5)                  1.0934         0.355576   
      8. B(H   7,C   4)                  1.0915         0.358068   
      9. B(O   8,C   3)                  1.3467         0.656058   
     10. B(C   9,O   8)                  1.3991         0.541142   
     11. B(H  10,C   9)                  1.1002         0.346871   
     12. B(H  11,C   9)                  1.1070         0.338278   
     13. B(H  12,C   9)                  1.1070         0.338248   
     14. B(H  13,C   2)                  1.0929         0.356293   
     15. B(H  14,C   1)                  1.0936         0.355359   
     16. B(S  15,C   0)                  1.7809         0.400736   
     17. B(H  16,S  15)                  1.3580         0.362772   
     18. A(C   5,C   0,S  15)          119.8624         0.423032   
     19. A(C   1,C   0,S  15)          121.3067         0.420679   
     20. A(C   1,C   0,C   5)          118.7562         0.430560   
     21. A(C   0,C   1,C   2)          120.6427         0.432931   
     22. A(C   2,C   1,H  14)          119.9079         0.353529   
     23. A(C   0,C   1,H  14)          119.4492         0.349855   
     24. A(C   1,C   2,H  13)          121.3077         0.353686   
     25. A(C   3,C   2,H  13)          118.2887         0.349809   
     26. A(C   1,C   2,C   3)          120.3977         0.432667   
     27. A(C   4,C   3,O   8)          124.5142         0.433723   
     28. A(C   2,C   3,O   8)          116.1717         0.432387   
     29. A(C   2,C   3,C   4)          119.3139         0.428951   
     30. A(C   5,C   4,H   7)          119.0702         0.351702   
     31. A(C   3,C   4,C   5)          119.7975         0.431032   
     32. A(C   3,C   4,H   7)          121.1300         0.351119   
     33. A(C   0,C   5,H   6)          119.3343         0.351742   
     34. A(C   0,C   5,C   4)          121.0744         0.432388   
     35. A(C   4,C   5,H   6)          119.5907         0.351287   
     36. A(C   3,O   8,C   9)          118.9100         0.422357   
     37. A(O   8,C   9,H  11)          111.7011         0.339235   
     38. A(O   8,C   9,H  10)          106.4577         0.340660   
     39. A(H  11,C   9,H  12)          108.9690         0.285204   
     40. A(H  10,C   9,H  12)          108.9651         0.286321   
     41. A(O   8,C   9,H  12)          111.7012         0.339230   
     42. A(H  10,C   9,H  11)          108.9578         0.286325   
     43. A(C   0,S  15,H  16)           97.1215         0.370265   
     44. D(H  14,C   1,C   0,S  15)      1.6921         0.024538   
     45. D(C   2,C   1,C   0,C   5)     -1.3291         0.024538   
     46. D(C   2,C   1,C   0,S  15)   -178.1812         0.024538   
     47. D(H  14,C   1,C   0,C   5)    178.5441         0.024538   
     48. D(C   3,C   2,C   1,H  14)   -178.4762         0.027969   
     49. D(C   3,C   2,C   1,C   0)      1.3965         0.027969   
     50. D(H  13,C   2,C   1,C   0)   -179.5036         0.027969   
     51. D(H  13,C   2,C   1,H  14)      0.6237         0.027969   
     52. D(O   8,C   3,C   2,H  13)      0.3495         0.024363   
     53. D(O   8,C   3,C   2,C   1)    179.4762         0.024363   
     54. D(C   4,C   3,C   2,H  13)   -179.5147         0.024363   
     55. D(C   4,C   3,C   2,C   1)     -0.3880         0.024363   
     56. D(H   7,C   4,C   3,C   2)    179.9026         0.025260   
     57. D(C   5,C   4,C   3,O   8)    179.4889         0.025260   
     58. D(C   5,C   4,C   3,C   2)     -0.6591         0.025260   
     59. D(H   7,C   4,C   3,O   8)      0.0505         0.025260   
     60. D(H   6,C   5,C   4,H   7)      0.4340         0.025789   
     61. D(C   0,C   5,C   4,H   7)   -179.8331         0.025789   
     62. D(C   0,C   5,C   4,C   3)      0.7169         0.025789   
     63. D(H   6,C   5,C   0,S  15)     -3.0964         0.026211   
     64. D(H   6,C   5,C   0,C   1)   -179.9951         0.026211   
     65. D(H   6,C   5,C   4,C   3)   -179.0160         0.025789   
     66. D(C   4,C   5,C   0,S  15)    177.1701         0.026211   
     67. D(C   4,C   5,C   0,C   1)      0.2714         0.026211   
     68. D(C   9,O   8,C   3,C   4)      0.1432         0.031858   
     69. D(C   9,O   8,C   3,C   2)   -179.7130         0.031858   
     70. D(H  12,C   9,O   8,C   3)     61.1393         0.023301   
     71. D(H  11,C   9,O   8,C   3)    -61.1992         0.023301   
     72. D(H  10,C   9,O   8,C   3)    179.9744         0.023301   
     73. D(H  16,S  15,C   0,C   5)    113.8428         0.003834   
     74. D(H  16,S  15,C   0,C   1)    -69.3395         0.003834   
    -----------------------------------------------------------------

Number of atoms                         .... 17
Number of degrees of freedom            .... 74


         *************************************************************
         *                GEOMETRY OPTIMIZATION CYCLE   1            *
         *************************************************************
---------------------------------
CARTESIAN COORDINATES (ANGSTROEM)
---------------------------------
  C      1.356613    0.082424   -0.048301
  C      0.725287    1.332375    0.029320
  C     -0.657167    1.425713    0.043025
  C     -1.447546    0.266535    0.008743
  C     -0.825529   -0.985022   -0.047702
  C      0.567722   -1.066331   -0.083133
  H      1.050062   -2.045777   -0.143544
  H     -1.411356   -1.905664   -0.073890
  O     -2.780639    0.455543    0.036456
  C     -3.622835   -0.661421    0.010782
  H     -4.652831   -0.275924    0.041028
  H     -3.487877   -1.254663   -0.914063
  H     -3.458604   -1.318139    0.886733
  H     -1.160472    2.394413    0.095160
  H      1.333611    2.239680    0.081456
  S      3.131458   -0.061277   -0.018929
  H      3.365199    0.490102   -1.237730

----------------------------
CARTESIAN COORDINATES (A.U.)
----------------------------
  NO LB      ZA    FRAG     MASS         X           Y           Z
   0 C     6.0000    0    12.011    2.563627    0.155758   -0.091277
   1 C     6.0000    0    12.011    1.370594    2.517824    0.055406
   2 C     6.0000    0    12.011   -1.241865    2.694207    0.081306
   3 C     6.0000    0    12.011   -2.735466    0.503677    0.016523
   4 C     6.0000    0    12.011   -1.560023   -1.861421   -0.090143
   5 C     6.0000    0    12.011    1.072840   -2.015074   -0.157099
   6 H     1.0000    0     1.008    1.984329   -3.865958   -0.271259
   7 H     1.0000    0     1.008   -2.667075   -3.601183   -0.139633
   8 O     8.0000    0    15.999   -5.254645    0.860851    0.068891
   9 C     6.0000    0    12.011   -6.846165   -1.249904    0.020375
  10 H     1.0000    0     1.008   -8.792576   -0.521421    0.077531
  11 H     1.0000    0     1.008   -6.591133   -2.370969   -1.727328
  12 H     1.0000    0     1.008   -6.535815   -2.490922    1.675682
  13 H     1.0000    0     1.008   -2.192975    4.524785    0.179826
  14 H     1.0000    0     1.008    2.520160    4.232382    0.153929
  15 S    16.0000    0    32.060    5.917598   -0.115798   -0.035770
  16 H     1.0000    0     1.008    6.359304    0.926158   -2.338971

--------------------------------
INTERNAL COORDINATES (ANGSTROEM)
--------------------------------
 C      0   0   0     0.000000000000     0.00000000     0.00000000
 C      1   0   0     1.402489190288     0.00000000     0.00000000
 C      2   1   0     1.385669288640   120.64270463     0.00000000
 C      3   2   1     1.403413344144   120.39765124     1.39651400
 C      4   3   2     1.398743956928   119.31393279   359.61198189
 C      1   2   3     1.393986920127   118.75623552   358.67088978
 H      6   1   2     1.093441628140   119.33431371   180.00492937
 H      5   4   3     1.091540751639   121.12995319   179.90255457
 O      4   3   2     1.346709785603   116.17170870   179.47615074
 C      9   4   3     1.399128635310   118.90999199   180.28697862
 H     10   9   4     1.100188430179   106.45770335   179.97443182
 H     10   9   4     1.107017227784   111.70109263   298.80075544
 H     10   9   4     1.107041300258   111.70116623    61.13929076
 H      3   2   1     1.092892793402   121.30771363   180.49641547
 H      2   1   3     1.093607997680   119.44924870   179.87324859
 S      1   2   3     1.780894904694   121.30668598   181.81882246
 H     16   1   2     1.357987863634    97.12145306   290.66049562

---------------------------
INTERNAL COORDINATES (A.U.)
---------------------------
 C      0   0   0     0.000000000000     0.00000000     0.00000000
 C      1   0   0     2.650320475430     0.00000000     0.00000000
 C      2   1   0     2.618535467715   120.64270463     0.00000000
 C      3   2   1     2.652066873122   120.39765124     1.39651400
 C      4   3   2     2.643243010072   119.31393279   359.61198189
 C      1   2   3     2.634253513308   118.75623552   358.67088978
 H      6   1   2     2.066305220614   119.33431371   180.00492937
 H      5   4   3     2.062713084613   121.12995319   179.90255457
 O      4   3   2     2.544912676661   116.17170870   179.47615074
 C      9   4   3     2.643969946863   118.90999199   180.28697862
 H     10   9   4     2.079054828746   106.45770335   179.97443182
 H     10   9   4     2.091959386044   111.70109263   298.80075544
 H     10   9   4     2.092004876429   111.70116623    61.13929076
 H      3   2   1     2.065268073265   121.30771363   180.49641547
 H      2   1   3     2.066619613482   119.44924870   179.87324859
 S      1   2   3     3.365403643167   121.30668598   181.81882246
 H     16   1   2     2.566225155456    97.12145306   290.66049562

---------------------
BASIS SET INFORMATION
---------------------
There are 4 groups of distinct atoms

 Group   1 Type C   : 19s6p3d2f contracted to 5s4p3d2f pattern {88111/3111/111/11}
 Group   2 Type H   : 6s3p2d contracted to 4s3p2d pattern {3111/111/11}
 Group   3 Type O   : 19s6p3d2f contracted to 5s4p3d2f pattern {88111/3111/111/11}
 Group   4 Type S   : 42s17p3d2f contracted to 6s5p3d2f pattern {131313111/77111/111/11}

Atom   0C    basis set group =>   1
Atom   1C    basis set group =>   1
Atom   2C    basis set group =>   1
Atom   3C    basis set group =>   1
Atom   4C    basis set group =>   1
Atom   5C    basis set group =>   1
Atom   6H    basis set group =>   2
Atom   7H    basis set group =>   2
Atom   8O    basis set group =>   3
Atom   9C    basis set group =>   1
Atom  10H    basis set group =>   2
Atom  11H    basis set group =>   2
Atom  12H    basis set group =>   2
Atom  13H    basis set group =>   2
Atom  14H    basis set group =>   2
Atom  15S    basis set group =>   4
Atom  16H    basis set group =>   2
---------------------------------
AUXILIARY/J BASIS SET INFORMATION
---------------------------------
There are 4 groups of distinct atoms

 Group   1 Type C   : 12s5p4d2f1g contracted to 6s4p3d1f1g pattern {711111/2111/211/2/1}
 Group   2 Type H   : 5s2p1d contracted to 3s1p1d pattern {311/2/1}
 Group   3 Type O   : 12s5p4d2f1g contracted to 6s4p3d1f1g pattern {711111/2111/211/2/1}
 Group   4 Type S   : 14s5p5d2f1g contracted to 8s4p3d1f1g pattern {71111111/2111/311/2/1}

Atom   0C    basis set group =>   1
Atom   1C    basis set group =>   1
Atom   2C    basis set group =>   1
Atom   3C    basis set group =>   1
Atom   4C    basis set group =>   1
Atom   5C    basis set group =>   1
Atom   6H    basis set group =>   2
Atom   7H    basis set group =>   2
Atom   8O    basis set group =>   3
Atom   9C    basis set group =>   1
Atom  10H    basis set group =>   2
Atom  11H    basis set group =>   2
Atom  12H    basis set group =>   2
Atom  13H    basis set group =>   2
Atom  14H    basis set group =>   2
Atom  15S    basis set group =>   4
Atom  16H    basis set group =>   2


           ************************************************************
           *        Program running with 8 parallel MPI-processes     *
           *              working on a common directory               *
           ************************************************************
------------------------------------------------------------------------------
                             ORCA STARTUP CALCULATIONS
                           -- RI-GTO INTEGRALS CHOSEN --
------------------------------------------------------------------------------
------------------------------------------------------------------------------
                   ___                                                        
                  /   \      - P O W E R E D   B Y -                         
                 /     \                                                     
                 |  |  |   _    _      __       _____    __    __             
                 |  |  |  | |  | |    /  \     |  _  \  |  |  /  |          
                  \  \/   | |  | |   /    \    | | | |  |  | /  /          
                 / \  \   | |__| |  /  /\  \   | |_| |  |  |/  /          
                |  |  |   |  __  | /  /__\  \  |    /   |      \           
                |  |  |   | |  | | |   __   |  |    \   |  |\   \          
                \     /   | |  | | |  |  |  |  | |\  \  |  | \   \       
                 \___/    |_|  |_| |__|  |__|  |_| \__\ |__|  \__/        
                                                                              
                      - O R C A' S   B I G   F R I E N D -                    
                                      &                                       
                       - I N T E G R A L  F E E D E R -                       
                                                                              
 v1 FN, 2020, v2 2021, v3 2022-2024                                           
------------------------------------------------------------------------------


----------------------
SHARK INTEGRAL PACKAGE
----------------------

Number of atoms                             ...     17
Number of basis functions                   ...    675
Number of shells                            ...    263
Maximum angular momentum                    ...      3
Integral batch strategy                     ... SHARK/LIBINT Hybrid
RI-J (if used) integral strategy            ... SPLIT-RIJ (Revised 2003 algorithm where possible)
Printlevel                                  ...      1
Contraction scheme used                     ... PARTIAL GENERAL contraction
Prescreening option                         ... SCHWARTZ
   Thresh                                   ... 2.500e-11
   Tcut                                     ... 2.500e-12
   Tpresel                                  ... 2.500e-12 
Coulomb Range Separation                    ... NOT USED
Exchange Range Separation                   ... NOT USED
Multipole approximations                    ... NOT USED
Finite Nucleus Model                        ... NOT USED
CABS basis                                  ... NOT available
Auxiliary Coulomb fitting basis             ... AVAILABLE
   # of basis functions in Aux-J            ...    531
   # of shells in Aux-J                     ...    177
   Maximum angular momentum in Aux-J        ...      4
Auxiliary J/K fitting basis                 ... NOT available
Auxiliary Correlation fitting basis         ... NOT available
Auxiliary 'external' fitting basis          ... NOT available

Checking pre-screening integrals            ... done (  0.1 sec) Dimension = 263
Save PGC pre-screening integrals            ... done (  0.1 sec) Dimension = 263
Calculate PGC overlap integrals             ... done (  0.2 sec) Dimension = 200
Calculating pre-screening integrals (ORCA)  ... done (  0.3 sec) Dimension = 200
Check shell pair data                       ... done (  0.1 sec)
Shell pair information
Shell pair cut-off parameter TPreSel        ...   2.5e-12
Total number of shell pairs                 ...     34716
Shell pairs after pre-screening             ...     28279
Total number of primitive shell pairs       ...     43708
Primitive shell pairs kept                  ...     33346
          la=0 lb=0:   6353 shell pairs
          la=1 lb=0:   7371 shell pairs
          la=1 lb=1:   1983 shell pairs
          la=2 lb=0:   4940 shell pairs
          la=2 lb=1:   2564 shell pairs
          la=2 lb=2:    881 shell pairs
          la=3 lb=0:   2177 shell pairs
          la=3 lb=1:   1101 shell pairs
          la=3 lb=2:    740 shell pairs
          la=3 lb=3:    169 shell pairs

Calculating one electron integrals          ... done (  0.1 sec)
Calculating RI/J V-Matrix + Cholesky decomp.... done (  0.1 sec)
Calculating Nuclear repulsion               ... done (  0.0 sec) ENN=    481.837849745230 Eh

Diagonalization of the overlap matrix:
Smallest eigenvalue                        ... 6.817e-07
Time for diagonalization                   ...    0.101 sec
Threshold for overlap eigenvalues          ... 1.000e-07
Number of eigenvalues below threshold      ... 0

IMPORTANT:
Smallest eigenvalue of S below the DiffSThresh (1.000e-06) while
Thresh>1e-12 and/or TCut>1e-13! In order to avoid SCF convergence issues,
Thresh will be set to at least 1e-12 and TCut to at least 1e-13.
This can be turned off by adding %SCF DiffSThresh -1 END to the input.

Time for construction of square roots      ...    0.079 sec
Total time needed                          ...    0.237 sec

-------------------
DFT GRID GENERATION
-------------------

General Integration Accuracy     IntAcc      ... 4.388
Radial Grid Type                 RadialGrid  ... OptM3 with GC (2021)
Angular Grid (max. ang.)         AngularGrid ... 4 (Lebedev-302)
Angular grid pruning method      GridPruning ... 4 (adaptive)
Weight generation scheme         WeightScheme... mBecke (2022)
Basis function cutoff            BFCut       ... 1.0000e-11
Integration weight cutoff        WCut        ... 1.0000e-14
Partially contracted basis set               ... off
Rotationally invariant grid construction     ... off
Angular grids for H and He will be reduced by one unit
Diffuse basis detected: some atoms will have their outermost
                        angular grid increased by 1.

Total number of grid points                  ...    85142
Total number of batches                      ...     1338
Average number of points per batch           ...       63
Average number of grid points per atom       ...     5008

---------------------
SHARK GRID GENERATION
---------------------

General Integration Accuracy     IntAcc      ... 4.388
Radial Grid Type                 RadialGrid  ... OptM3 with GC (2021)
Angular Grid (max. ang.)         AngularGrid ... 4 (Lebedev-302)
Angular grid pruning method      GridPruning ... 4 (adaptive)
Weight generation scheme         WeightScheme... mBecke (2022)
Basis function cutoff            BFCut       ... 1.0000e-11
Integration weight cutoff        WCut        ... 1.0000e-14
Partially contracted basis set               ... off
Rotationally invariant grid construction     ... off
Angular grids for H and He will be reduced by one unit
Diffuse basis detected: some atoms will have their outermost
                        angular grid increased by 1.
Core-polarized basis detected: some atoms will have their core
                               angular grid increased.
Steep s-basis detected: some atoms will have their radial
                        grid points doubled.

Total number of grid points                  ...   147941
Total number of batches                      ...     2319
Average number of points per batch           ...       63
Average number of grid points per atom       ...     8702

--------------------
COSX GRID GENERATION
--------------------

GRIDX 1
-------
General Integration Accuracy     IntAcc      ... 3.816
Radial Grid Type                 RadialGrid  ... OptM3 with GC (2021)
Angular Grid (max. ang.)         AngularGrid ... 1 (Lebedev-50)
Angular grid pruning method      GridPruning ... 4 (adaptive)
Weight generation scheme         WeightScheme... mBecke (2022)
Basis function cutoff            BFCut       ... 1.0000e-11
Integration weight cutoff        WCut        ... 1.0000e-14
Partially contracted basis set               ... on
Rotationally invariant grid construction     ... off
Angular grids for H and He will be reduced by one unit
Diffuse basis detected: some atoms will have their outermost
                        angular grid increased by 1.

Total number of grid points                  ...    11903
Total number of batches                      ...      104
Average number of points per batch           ...      114
Average number of grid points per atom       ...      700
UseSFitting                                  ... on

GRIDX 2
-------
General Integration Accuracy     IntAcc      ... 4.020
Radial Grid Type                 RadialGrid  ... OptM3 with GC (2021)
Angular Grid (max. ang.)         AngularGrid ... 2 (Lebedev-110)
Angular grid pruning method      GridPruning ... 4 (adaptive)
Weight generation scheme         WeightScheme... mBecke (2022)
Basis function cutoff            BFCut       ... 1.0000e-11
Integration weight cutoff        WCut        ... 1.0000e-14
Partially contracted basis set               ... on
Rotationally invariant grid construction     ... off
Angular grids for H and He will be reduced by one unit
Diffuse basis detected: some atoms will have their outermost
                        angular grid increased by 1.

Total number of grid points                  ...    25699
Total number of batches                      ...      212
Average number of points per batch           ...      121
Average number of grid points per atom       ...     1512
UseSFitting                                  ... on

GRIDX 3
-------
General Integration Accuracy     IntAcc      ... 4.338
Radial Grid Type                 RadialGrid  ... OptM3 with GC (2021)
Angular Grid (max. ang.)         AngularGrid ... 3 (Lebedev-194)
Angular grid pruning method      GridPruning ... 4 (adaptive)
Weight generation scheme         WeightScheme... mBecke (2022)
Basis function cutoff            BFCut       ... 1.0000e-11
Integration weight cutoff        WCut        ... 1.0000e-14
Partially contracted basis set               ... on
Rotationally invariant grid construction     ... off
Angular grids for H and He will be reduced by one unit
Diffuse basis detected: some atoms will have their outermost
                        angular grid increased by 1.

Total number of grid points                  ...    57816
Total number of batches                      ...      461
Average number of points per batch           ...      125
Average number of grid points per atom       ...     3401
UseSFitting                                  ... on
Initializing property integral containers    ... done (  0.2 sec)

SHARK setup successfully completed in   8.6 seconds

Maximum memory used throughout the entire STARTUP-calculation: 82.0 MB


           ************************************************************
           *        Program running with 8 parallel MPI-processes     *
           *              working on a common directory               *
           ************************************************************
-------------------------------------------------------------------------------
                                 ORCA GUESS
                   Start orbitals & Density for SCF / CASSCF
-------------------------------------------------------------------------------

------------
SCF SETTINGS
------------
Hamiltonian:
 Density Functional     Method          .... DFT(GTOs)
  Functional kind                       .... Exchange
  Functional name                       .... Re-regularized SCAN exchange by Furness et al
  Functional family                     .... MGGA
  Functional refs                              
    [ 0] J. W. Furness, A. D. Kaplan, J. Ning, J. P. Perdew, and J. Sun.,  J. Phys. Chem. Lett. 11, 8208-8215 (2020), doi: 10.1021/acs.jpclett.0c02405
    [ 1] J. W. Furness, A. D. Kaplan, J. Ning, J. P. Perdew, and J. Sun.,  J. Phys. Chem. Lett. 11, 9248-9248 (2020), doi: 10.1021/acs.jpclett.0c03077
  Functional external parameters        .... 6
    Parameter  0 _c1        =  6.670000e-01 : c1 parameter        
    Parameter  1 _c2        =  8.000000e-01 : c2 parameter        
    Parameter  2 _d         =  1.240000e+00 : d parameter         
    Parameter  3 _k1        =  6.500000e-02 : k1 parameter        
    Parameter  4 _eta       =  1.000000e-03 : eta parameter       
    Parameter  5 _dp2       =  3.610000e-01 : dp2 parameter       
  Functional kind                       .... Correlation
  Functional name                       .... Re-regularized SCAN correlation by Furness et al
  Functional family                     .... MGGA
  Functional refs                              
    [ 0] J. W. Furness, A. D. Kaplan, J. Ning, J. P. Perdew, and J. Sun.,  J. Phys. Chem. Lett. 11, 8208-8215 (2020), doi: 10.1021/acs.jpclett.0c02405
    [ 1] J. W. Furness, A. D. Kaplan, J. Ning, J. P. Perdew, and J. Sun.,  J. Phys. Chem. Lett. 11, 9248-9248 (2020), doi: 10.1021/acs.jpclett.0c03077
  Functional external parameters        .... 1
    Parameter  0 _eta       =  1.000000e-03 : Regularization parameter
 Gradients option       PostSCFGGA      .... off
 Hybrid DFT is turned on
   Fraction HF Exchange ScalHFX         ....  0.100000
   Scaling of DF-GGA-X  ScalDFX         ....  0.900000
   Scaling of DF-GGA-C  ScalDFC         ....  1.000000
   Scaling of DF-LDA-C  ScalLDAC        ....  1.000000
   Perturbative correction              ....  0.000000
   NL short-range parameter             .... 11.900000
 RI-approximation to the Coulomb term is turned on
   Number of AuxJ basis functions       .... 531
   RIJ-COSX (HFX calculated with COS-X)).... on


General Settings:
 Integral files         IntName         .... cs_rporg_078_red_opt_07
 Hartree-Fock type      HFTyp           .... RHF
 Total Charge           Charge          ....    0
 Multiplicity           Mult            ....    1
 Number of Electrons    NEL             ....   74
 Basis Dimension        Dim             ....  602
 Nuclear Repulsion      ENuc            ....    481.8378497452 Eh

Convergence Acceleration:
 AO-DIIS                CNVDIIS         .... on
   Start iteration      DIISMaxIt       ....     0
   Startup error        DIISStart       ....  0.200000
   # of expansion vecs  DIISMaxEq       ....     5
   Bias factor          DIISBfac        ....   1.050
   Max. coefficient     DIISMaxC        ....  10.000
 MO-DIIS                CNVKDIIS        .... off
 Trust-Rad. Augm. Hess. CNVTRAH         .... auto
   Auto Start mean grad. ratio tolernc. ....  1.125000
   Auto Start start iteration           ....    50
   Auto Start num. interpolation iter.  ....    10
   Max. Number of Micro iterations      ....    24
   Max. Number of Macro iterations      .... Maxiter - #DIIS iter
   Number of Davidson start vectors     ....     2
   Converg. threshold    (grad. norm)   ....   1.000e-05
   Grad. Scal. Fac. for Micro threshold ....   0.100
   Minimum threshold for Micro iter.    ....   1.000e-02
   NR start threshold (gradient norm)   ....   1.000e-04
   Initial trust radius                 ....   0.400
   Minimum AH scaling param. (alpha)    ....   1.000
   Maximum AH scaling param. (alpha)    .... 1000.000
   Quad. conv. algorithm                .... NR
   White noise on init. David. guess    .... on
   Maximum white noise                  ....   0.010
   Pseudo random numbers                .... off
   Inactive MOs                         .... canonical
   Orbital update algorithm             .... Taylor
   Preconditioner                       .... Diag
   Full preconditioner red. dimension   ....   250
 SOSCF                  CNVSOSCF        .... on
   Start iteration      SOSCFMaxIt      ....   150
   Startup grad/error   SOSCFStart      ....  0.001000
   Hessian update       SOSCFHessUp     .... L-BFGS
 Level Shifting         CNVShift        .... on
   Level shift para.    LevelShift      ....    0.2500
   Turn off err/grad.   ShiftErr        ....    0.0000
 Zerner damping         CNVZerner       .... off
 Static damping         CNVDamp         .... on
   Fraction old density DampFac         ....    0.8500
   Max. Damping (<1)    DampMax         ....    0.9800
   Min. Damping (>=0)   DampMin         ....    0.0000
   Turn off err/grad.   DampErr         ....    0.0300

SCF Procedure:
 Maximum # iterations   MaxIter         ....  1500
 SCF integral mode      SCFMode         .... Direct
   Integral package                     .... SHARK and LIBINT hybrid scheme
 Reset frequency        DirectResetFreq ....    20
 Integral Threshold     Thresh          ....  1.000e-12 Eh
 Primitive CutOff       TCut            ....  1.000e-13 Eh

Convergence Tolerance:
 Convergence Check Mode ConvCheckMode   .... Total+1el-Energy
 Convergence forced     ConvForced      .... 0
 Energy Change          TolE            ....  1.000e-08 Eh
 1-El. energy change                    ....  1.000e-05 Eh
 Orbital Gradient       TolG            ....  1.000e-05
 Orbital Rotation angle TolX            ....  1.000e-05
 DIIS Error             TolErr          ....  5.000e-07

------------------------------
INITIAL GUESS: MODEL POTENTIAL
------------------------------
Loading Hartree-Fock densities                     ... done
Calculating cut-offs                               ... done
Initializing the effective Hamiltonian             ... done
Setting up the integral package (SHARK)            ... done
Starting the Coulomb interaction                   ... done (   0.5 sec)
Making the grid                                    ... done (   0.4 sec)
Mapping shells                                     ... done
Starting the XC term evaluation                    ... done (   0.4 sec)
  promolecular density results
     # of electrons  =     73.996881227
     EX              =    -71.210847504
     EC              =     -2.545770525
     EX+EC           =    -73.756618030
Transforming the Hamiltonian                       ... done (   0.1 sec)
Diagonalizing the Hamiltonian                      ... done (   0.1 sec)
Back transforming the eigenvectors                 ... done (   0.1 sec)
Now organizing SCF variables                       ... done
                      ------------------
                      INITIAL GUESS DONE (   2.1 sec)
                      ------------------
             **** ENERGY FILE WAS UPDATED (cs_rporg_078_red_opt_07.en.tmp) ****
Finished Guess after   3.6 sec
Maximum memory used throughout the entire GUESS-calculation: 45.4 MB


           ************************************************************
           *        Program running with 8 parallel MPI-processes     *
           *              working on a common directory               *
           ************************************************************

-------------------------------------------------------------------------------------------
                                      ORCA LEAN-SCF
                              memory conserving SCF solver
-------------------------------------------------------------------------------------------

--------------------
CPCM SOLVATION MODEL
--------------------
CPCM parameters:
  Epsilon                                         ...      35.6880
  Refrac                                          ...       1.3442
  Rsolv                                           ...       2.1900
  Surface type                                    ...    GEPOL SES
  Discretization scheme                           ... Constant num. charges
  Epsilon function type                           ...         CPCM
Solvent:                                          ... ACETONITRILE
SMD-CDS solvent descriptors:
  Soln                                            ...       1.3442
  Soln25                                          ...       1.3416
  Sola                                            ...       0.0700
  Solb                                            ...       0.3200
  Solg                                            ...      41.2500
  Solc                                            ...       0.0000
  Solh                                            ...       0.0000
Radii:
  Scheme                                          ... Element-dependent radii
  Radius for C  used is    3.4960 Bohr (=   1.8500 Ang.)
  Radius for H  used is    2.2677 Bohr (=   1.2000 Ang.)
  Radius for O  used is    4.0969 Bohr (=   2.1680 Ang.)
  Radius for S  used is    4.7054 Bohr (=   2.4900 Ang.)
Calculating surface                               ...        done! (  0.0s)
Cavity surface points                             ...          534
Cavity Volume                                     ...    1204.0997
Cavity Surface-area                               ...     656.5047
Calculating surface distance matrix               ...        done! (  0.0s)
Performing Cholesky decomposition & store         ...        done! (  0.0s)
Overall time for CPCM initialization              ...                 0.1s

----------------------------------------D-I-I-S--------------------------------------------
Iteration    Energy (Eh)           Delta-E    RMSDP     MaxDP     DIISErr   Damp  Time(sec)
-------------------------------------------------------------------------------------------
               ***  Starting incremental Fock matrix formation  ***
    1    -744.7017657542099869     0.00e+00  1.01e-03  6.86e-02  1.64e-01  0.850  15.5
    2    -744.7430453817752323    -4.13e-02  1.03e-03  5.36e-02  1.23e-01  0.850  14.5
                               ***Turning on AO-DIIS***
    3    -744.7718281057269678    -2.88e-02  8.71e-04  5.35e-02  8.63e-02  0.850  10.7
    4    -744.7910420013398607    -1.92e-02  7.53e-04  5.03e-02  7.06e-02  0.850  10.3
    5    -744.8051522701545082    -1.41e-02  6.53e-04  4.56e-02  5.94e-02  0.850  11.6
    6    -744.8162644218547257    -1.11e-02  5.68e-04  4.12e-02  5.02e-02  0.850  11.0
    7    -744.8253425423687304    -9.08e-03  4.93e-04  3.66e-02  4.20e-02  0.850  12.4
    8    -744.8328360412768916    -7.49e-03  4.22e-04  3.16e-02  3.51e-02  0.850  10.7
    9    -744.8390112169657868    -6.18e-03  3.59e-04  2.69e-02  2.95e-02  0.850  11.2
   10    -744.8441117246062504    -5.10e-03  2.04e-03  1.53e-01  2.49e-02  0.000  11.0
   11    -744.8707374616018342    -2.66e-02  4.16e-05  2.47e-03  1.59e-03  0.000  11.4
                              *** Initializing SOSCF ***
---------------------------------------S-O-S-C-F--------------------------------------
Iteration    Energy (Eh)           Delta-E    RMSDP     MaxDP     MaxGrad    Time(sec)
--------------------------------------------------------------------------------------
   12    -744.8707556968494146    -1.82e-05  1.92e-05  1.23e-03  5.81e-04    11.8
               *** Restarting incremental Fock matrix formation ***
   13    -744.8707584409445417    -2.74e-06  8.90e-05  5.15e-03  5.55e-05    15.1
   14    -744.8707582991029312     1.42e-07  1.24e-05  7.19e-04  1.20e-04    11.8
   15    -744.8707585868131673    -2.88e-07  1.16e-05  7.62e-04  6.65e-06    12.1
   16    -744.8707585919631811    -5.15e-09  6.54e-07  3.99e-05  4.61e-06    11.4
                 **** Energy Check signals convergence ****

               *****************************************************
               *                     SUCCESS                       *
               *           SCF CONVERGED AFTER  16 CYCLES          *
               *****************************************************

Recomputing exchange energy using gridx3       ... done (   15.443 sec)
Old exchange energy                            :     -7.236895049 Eh
New exchange energy                            :     -7.236877434 Eh
Exchange energy change after final integration :      0.000017615 Eh
Total energy after final integration           :   -744.870740977 Eh

SMD CDS free energy correction energy :                -1.73584     Kcal/mol
Total Energy after SMD CDS correction =              -744.873507220 Eh
             **** ENERGY FILE WAS UPDATED (cs_rporg_078_red_opt_07.en.tmp) ****

----------------
TOTAL SCF ENERGY
----------------

Total Energy       :       -744.87350722015992 Eh          -20269.03859 eV

Components:
Nuclear Repulsion  :        481.83784974523030 Eh           13111.47447 eV
Electronic Energy  :      -1226.69777216538318 Eh          -33380.14339 eV
One Electron Energy:      -1975.38881654702845 Eh          -53753.06245 eV
Two Electron Energy:        748.69104438164527 Eh           20372.91906 eV
CPCM Dielectric    :         -0.01083617181037 Eh              -0.29487 eV
SMD CDS (Gcds)     :         -0.00276624310589 Eh              -0.07527 eV

Virial components:
Potential Energy   :      -1486.69200366915538 Eh          -40454.94611 eV
Kinetic Energy     :        741.81849644899535 Eh           20185.90752 eV
Virial Ratio       :          2.00411827257717

DFT components:
N(Alpha)           :       37.000024852291 electrons
N(Beta)            :       37.000024852291 electrons
N(Total)           :       74.000049704581 electrons
E(X)               :      -65.303717040494 Eh       
E(C)               :       -2.488156431829 Eh       
E(XC)              :      -67.791873472323 Eh       

CPCM Solvation Model Properties:
Surface-charge          :         -0.03099347066798
Corrected charge        :         -0.00000000000000
Outlying charge corr.   :          0.00006538618566 Eh               0.00178 eV
Free-energy (cav+disp)  :         -0.00276624310589 Eh              -0.07527 eV

---------------
SCF CONVERGENCE
---------------

  Last Energy change         ...    5.1500e-09  Tolerance :   1.0000e-08
  Last MAX-Density change    ...    3.9874e-05  Tolerance :   1.0000e-07
  Last RMS-Density change    ...    6.5448e-07  Tolerance :   5.0000e-09
  Last DIIS Error            ...    5.8121e-04  Tolerance :   5.0000e-07
  Last Orbital Gradient      ...    4.6127e-06  Tolerance :   1.0000e-05
  Last Orbital Rotation      ...    1.0943e-05  Tolerance :   1.0000e-05


----------------
ORBITAL ENERGIES
----------------

  NO   OCC          E(Eh)            E(eV) 
   0   2.0000     -88.904321     -2419.2096 
   1   2.0000     -19.156462      -521.2738 
   2   2.0000     -10.227367      -278.3008 
   3   2.0000     -10.199637      -277.5462 
   4   2.0000     -10.191961      -277.3374 
   5   2.0000     -10.170134      -276.7434 
   6   2.0000     -10.169983      -276.7393 
   7   2.0000     -10.163224      -276.5554 
   8   2.0000     -10.162675      -276.5404 
   9   2.0000      -7.969450      -216.8597 
  10   2.0000      -5.890850      -160.2982 
  11   2.0000      -5.887569      -160.2089 
  12   2.0000      -5.882957      -160.0834 
  13   2.0000      -1.085525       -29.5386 
  14   2.0000      -0.867150       -23.5964 
  15   2.0000      -0.785275       -21.3684 
  16   2.0000      -0.755412       -20.5558 
  17   2.0000      -0.720921       -19.6173 
  18   2.0000      -0.670191       -18.2368 
  19   2.0000      -0.612222       -16.6594 
  20   2.0000      -0.578216       -15.7341 
  21   2.0000      -0.529367       -14.4048 
  22   2.0000      -0.483639       -13.1605 
  23   2.0000      -0.465106       -12.6562 
  24   2.0000      -0.461312       -12.5529 
  25   2.0000      -0.436836       -11.8869 
  26   2.0000      -0.415593       -11.3089 
  27   2.0000      -0.407541       -11.0898 
  28   2.0000      -0.399610       -10.8739 
  29   2.0000      -0.371653       -10.1132 
  30   2.0000      -0.350953        -9.5499 
  31   2.0000      -0.340069        -9.2537 
  32   2.0000      -0.317119        -8.6293 
  33   2.0000      -0.312905        -8.5146 
  34   2.0000      -0.260610        -7.0916 
  35   2.0000      -0.249890        -6.7999 
  36   2.0000      -0.218014        -5.9325 
  37   0.0000      -0.033472        -0.9108 
  38   0.0000      -0.027008        -0.7349 
  39   0.0000       0.002927         0.0797 
  40   0.0000       0.018084         0.4921 
  41   0.0000       0.021636         0.5888 
  42   0.0000       0.025222         0.6863 
  43   0.0000       0.036258         0.9866 
  44   0.0000       0.038598         1.0503 
  45   0.0000       0.040384         1.0989 
  46   0.0000       0.046127         1.2552 
  47   0.0000       0.052045         1.4162 
*Only the first 10 virtual orbitals were printed.

                    ********************************
                    * MULLIKEN POPULATION ANALYSIS *
                    ********************************

-----------------------
MULLIKEN ATOMIC CHARGES
-----------------------
   0 C :    0.782517
   1 C :   -0.647011
   2 C :   -0.965262
   3 C :    1.138628
   4 C :   -0.346364
   5 C :   -0.831204
   6 H :    0.404627
   7 H :    0.474294
   8 O :   -0.653497
   9 C :   -0.700840
  10 H :    0.255963
  11 H :    0.271497
  12 H :    0.271395
  13 H :    0.507077
  14 H :    0.432082
  15 S :   -0.488077
  16 H :    0.094174
Sum of atomic charges:   -0.0000000

--------------------------------
MULLIKEN REDUCED ORBITAL CHARGES
--------------------------------
  0 C s       :     2.978227  s :     2.978227
      pz      :     1.007000  p :     2.325034
      px      :     0.427361
      py      :     0.890672
      dz2     :    -0.013786  d :    -0.051260
      dxz     :    -0.025167
      dyz     :     0.014091
      dx2y2   :    -0.018094
      dxy     :    -0.008303
      f0      :     0.001168  f :    -0.034518
      f+1     :    -0.000557
      f-1     :     0.000977
      f+2     :    -0.000760
      f-2     :    -0.002553
      f+3     :    -0.004801
      f-3     :    -0.027992

  1 C s       :     3.873365  s :     3.873365
      pz      :     0.963446  p :     2.813314
      px      :     1.001366
      py      :     0.848502
      dz2     :    -0.009983  d :    -0.027522
      dxz     :     0.024940
      dyz     :     0.015344
      dx2y2   :    -0.033681
      dxy     :    -0.024142
      f0      :     0.000883  f :    -0.012147
      f+1     :     0.001232
      f-1     :     0.000623
      f+2     :    -0.000152
      f-2     :     0.000908
      f+3     :     0.000202
      f-3     :    -0.015842

  2 C s       :     3.916209  s :     3.916209
      pz      :     1.005871  p :     2.932608
      px      :     0.846894
      py      :     1.079843
      dz2     :     0.005857  d :     0.139287
      dxz     :     0.032674
      dyz     :     0.014084
      dx2y2   :    -0.001477
      dxy     :     0.088150
      f0      :    -0.000171  f :    -0.022843
      f+1     :    -0.000569
      f-1     :     0.000395
      f+2     :     0.000640
      f-2     :    -0.000397
      f+3     :    -0.000498
      f-3     :    -0.022244

  3 C s       :     2.996268  s :     2.996268
      pz      :     0.916740  p :     2.078931
      px      :     0.273673
      py      :     0.888519
      dz2     :    -0.023279  d :    -0.207320
      dxz     :     0.037091
      dyz     :    -0.003691
      dx2y2   :    -0.117284
      dxy     :    -0.100157
      f0      :     0.002821  f :    -0.006506
      f+1     :    -0.000289
      f-1     :     0.001254
      f+2     :     0.009775
      f-2     :     0.003715
      f+3     :     0.001590
      f-3     :    -0.025373

  4 C s       :     3.822819  s :     3.822819
      pz      :     0.994605  p :     2.396737
      px      :     0.542929
      py      :     0.859203
      dz2     :    -0.002264  d :     0.151289
      dxz     :    -0.001746
      dyz     :    -0.002167
      dx2y2   :     0.019320
      dxy     :     0.138145
      f0      :    -0.000056  f :    -0.024481
      f+1     :    -0.000348
      f-1     :    -0.000506
      f+2     :     0.001079
      f-2     :    -0.001408
      f+3     :     0.004866
      f-3     :    -0.028107

  5 C s       :     4.063193  s :     4.063193
      pz      :     0.987255  p :     2.758429
      px      :     0.851114
      py      :     0.920059
      dz2     :    -0.012677  d :     0.026149
      dxz     :     0.012284
      dyz     :     0.018482
      dx2y2   :    -0.006661
      dxy     :     0.014721
      f0      :     0.001081  f :    -0.016567
      f+1     :     0.000842
      f-1     :     0.000356
      f+2     :     0.000190
      f-2     :     0.000618
      f+3     :    -0.001872
      f-3     :    -0.017782

  6 H s       :     0.577915  s :     0.577915
      pz      :     0.021401  p :     0.011790
      px      :     0.006654
      py      :    -0.016266
      dz2     :     0.000007  d :     0.005668
      dxz     :     0.000741
      dyz     :     0.004563
      dx2y2   :    -0.000679
      dxy     :     0.001036

  7 H s       :     0.586679  s :     0.586679
      pz      :     0.014381  p :    -0.068505
      px      :    -0.019864
      py      :    -0.063022
      dz2     :     0.000355  d :     0.007531
      dxz     :     0.001382
      dyz     :     0.003245
      dx2y2   :     0.001718
      dxy     :     0.000831

  8 O s       :     4.148546  s :     4.148546
      pz      :     1.764992  p :     4.426362
      px      :     1.176953
      py      :     1.484417
      dz2     :     0.000920  d :     0.072114
      dxz     :     0.022666
      dyz     :     0.006571
      dx2y2   :     0.018104
      dxy     :     0.023854
      f0      :     0.000756  f :     0.006475
      f+1     :     0.000070
      f-1     :     0.000086
      f+2     :     0.001121
      f-2     :     0.000835
      f+3     :     0.001062
      f-3     :     0.002545

  9 C s       :     3.544249  s :     3.544249
      pz      :     1.127390  p :     2.958673
      px      :     0.967980
      py      :     0.863302
      dz2     :     0.015946  d :     0.171904
      dxz     :     0.004704
      dyz     :     0.081732
      dx2y2   :     0.053233
      dxy     :     0.016290
      f0      :     0.002862  f :     0.026014
      f+1     :     0.000980
      f-1     :     0.003044
      f+2     :     0.000886
      f-2     :     0.006051
      f+3     :     0.000150
      f-3     :     0.012042

 10 H s       :     0.703417  s :     0.703417
      pz      :     0.018393  p :     0.038981
      px      :     0.015290
      py      :     0.005298
      dz2     :    -0.000984  d :     0.001639
      dxz     :     0.001712
      dyz     :     0.001625
      dx2y2   :     0.000669
      dxy     :    -0.001384

 11 H s       :     0.694974  s :     0.694974
      pz      :     0.012695  p :     0.029247
      px      :     0.007667
      py      :     0.008885
      dz2     :     0.002391  d :     0.004282
      dxz     :     0.001197
      dyz     :     0.000610
      dx2y2   :    -0.000184
      dxy     :     0.000268

 12 H s       :     0.695091  s :     0.695091
      pz      :     0.012374  p :     0.029233
      px      :     0.007484
      py      :     0.009376
      dz2     :     0.002570  d :     0.004281
      dxz     :     0.000998
      dyz     :     0.000467
      dx2y2   :    -0.000218
      dxy     :     0.000465

 13 H s       :     0.525600  s :     0.525600
      pz      :     0.019351  p :    -0.038875
      px      :    -0.017349
      py      :    -0.040876
      dz2     :    -0.000045  d :     0.006197
      dxz     :     0.001161
      dyz     :     0.004142
      dx2y2   :     0.000858
      dxy     :     0.000081

 14 H s       :     0.561477  s :     0.561477
      pz      :     0.023251  p :    -0.000311
      px      :     0.004265
      py      :    -0.027827
      dz2     :     0.000050  d :     0.006752
      dxz     :     0.001213
      dyz     :     0.004135
      dx2y2   :     0.000503
      dxy     :     0.000851

 15 S s       :     6.074979  s :     6.074979
      pz      :     3.375646  p :    10.307271
      px      :     3.084330
      py      :     3.847294
      dz2     :     0.027102  d :     0.094942
      dxz     :     0.027390
      dyz     :     0.016391
      dx2y2   :     0.018455
      dxy     :     0.005603
      f0      :     0.002607  f :     0.010885
      f+1     :     0.001312
      f-1     :     0.001193
      f+2     :     0.002072
      f-2     :     0.000110
      f+3     :     0.001918
      f-3     :     0.001673

 16 H s       :     0.822280  s :     0.822280
      pz      :     0.030233  p :     0.072995
      px      :     0.016767
      py      :     0.025995
      dz2     :     0.003645  d :     0.010551
      dxz     :     0.002239
      dyz     :     0.003160
      dx2y2   :     0.001188
      dxy     :     0.000320



                     *******************************
                     * LOEWDIN POPULATION ANALYSIS *
                     *******************************

----------------------
LOEWDIN ATOMIC CHARGES
----------------------
   0 C :   -0.603359
   1 C :    0.102323
   2 C :    0.194553
   3 C :   -0.407254
   4 C :    0.197898
   5 C :    0.099877
   6 H :   -0.190976
   7 H :   -0.188642
   8 O :    0.590465
   9 C :    0.326048
  10 H :   -0.168473
  11 H :   -0.159911
  12 H :   -0.159707
  13 H :   -0.170179
  14 H :   -0.185562
  15 S :    1.265382
  16 H :   -0.542484

-------------------------------
LOEWDIN REDUCED ORBITAL CHARGES
-------------------------------
  0 C s       :     2.521327  s :     2.521327
      pz      :     0.694348  p :     2.428119
      px      :     0.819964
      py      :     0.913808
      dz2     :     0.096808  d :     1.109534
      dxz     :     0.184277
      dyz     :     0.124746
      dx2y2   :     0.380037
      dxy     :     0.323667
      f0      :     0.037174  f :     0.544379
      f+1     :     0.034113
      f-1     :     0.033739
      f+2     :     0.064822
      f-2     :     0.056641
      f+3     :     0.089403
      f-3     :     0.228485

  1 C s       :     2.498686  s :     2.498686
      pz      :     0.600481  p :     2.303511
      px      :     0.863364
      py      :     0.839666
      dz2     :     0.071815  d :     0.744419
      dxz     :     0.116235
      dyz     :     0.073679
      dx2y2   :     0.207954
      dxy     :     0.274736
      f0      :     0.021133  f :     0.351061
      f+1     :     0.028267
      f-1     :     0.023961
      f+2     :     0.057295
      f-2     :     0.024569
      f+3     :     0.063536
      f-3     :     0.132299

  2 C s       :     2.491366  s :     2.491366
      pz      :     0.623607  p :     2.296469
      px      :     0.848187
      py      :     0.824675
      dz2     :     0.068625  d :     0.672541
      dxz     :     0.107605
      dyz     :     0.054994
      dx2y2   :     0.204811
      dxy     :     0.236506
      f0      :     0.021296  f :     0.345071
      f+1     :     0.030735
      f-1     :     0.022464
      f+2     :     0.045020
      f-2     :     0.032850
      f+3     :     0.066758
      f-3     :     0.125948

  3 C s       :     2.462104  s :     2.462104
      pz      :     0.609963  p :     2.213821
      px      :     0.728035
      py      :     0.875824
      dz2     :     0.100613  d :     1.086834
      dxz     :     0.195946
      dyz     :     0.131951
      dx2y2   :     0.340166
      dxy     :     0.318158
      f0      :     0.038102  f :     0.644494
      f+1     :     0.048753
      f-1     :     0.035415
      f+2     :     0.091935
      f-2     :     0.069826
      f+3     :     0.106310
      f-3     :     0.254153

  4 C s       :     2.481222  s :     2.481222
      pz      :     0.631154  p :     2.298364
      px      :     0.838000
      py      :     0.829210
      dz2     :     0.069959  d :     0.682887
      dxz     :     0.101474
      dyz     :     0.063712
      dx2y2   :     0.202316
      dxy     :     0.245426
      f0      :     0.020916  f :     0.339629
      f+1     :     0.028274
      f-1     :     0.023910
      f+2     :     0.054559
      f-2     :     0.023451
      f+3     :     0.064397
      f-3     :     0.124122

  5 C s       :     2.497680  s :     2.497680
      pz      :     0.598840  p :     2.300489
      px      :     0.862736
      py      :     0.838913
      dz2     :     0.072128  d :     0.748127
      dxz     :     0.130797
      dyz     :     0.060719
      dx2y2   :     0.235228
      dxy     :     0.249255
      f0      :     0.021407  f :     0.353827
      f+1     :     0.030180
      f-1     :     0.022522
      f+2     :     0.045541
      f-2     :     0.036446
      f+3     :     0.067013
      f-3     :     0.130719

  6 H s       :     0.658897  s :     0.658897
      pz      :     0.079401  p :     0.311131
      px      :     0.099530
      py      :     0.132201
      dz2     :     0.024238  d :     0.220948
      dxz     :     0.015029
      dyz     :     0.048957
      dx2y2   :     0.071072
      dxy     :     0.061651

  7 H s       :     0.635064  s :     0.635064
      pz      :     0.087268  p :     0.323334
      px      :     0.116834
      py      :     0.119233
      dz2     :     0.024219  d :     0.230244
      dxz     :     0.023388
      dyz     :     0.045234
      dx2y2   :     0.082887
      dxy     :     0.054516

  8 O s       :     2.973630  s :     2.973630
      pz      :     1.363661  p :     3.834673
      px      :     1.178646
      py      :     1.292367
      dz2     :     0.041514  d :     0.471506
      dxz     :     0.085978
      dyz     :     0.056628
      dx2y2   :     0.147888
      dxy     :     0.139498
      f0      :     0.013154  f :     0.129725
      f+1     :     0.011012
      f-1     :     0.004887
      f+2     :     0.015494
      f-2     :     0.014547
      f+3     :     0.026190
      f-3     :     0.044440

  9 C s       :     2.462714  s :     2.462714
      pz      :     0.802771  p :     2.218682
      px      :     0.728300
      py      :     0.687610
      dz2     :     0.098230  d :     0.676406
      dxz     :     0.043103
      dyz     :     0.201440
      dx2y2   :     0.186168
      dxy     :     0.147466
      f0      :     0.035904  f :     0.316150
      f+1     :     0.023605
      f-1     :     0.036996
      f+2     :     0.012115
      f-2     :     0.060764
      f+3     :     0.060951
      f-3     :     0.085815

 10 H s       :     0.648941  s :     0.648941
      pz      :     0.089848  p :     0.297537
      px      :     0.128922
      py      :     0.078767
      dz2     :     0.016708  d :     0.221995
      dxz     :     0.064782
      dyz     :     0.027304
      dx2y2   :     0.042478
      dxy     :     0.070723

 11 H s       :     0.634786  s :     0.634786
      pz      :     0.134007  p :     0.304872
      px      :     0.084595
      py      :     0.086270
      dz2     :     0.076167  d :     0.220253
      dxz     :     0.041132
      dyz     :     0.048016
      dx2y2   :     0.021036
      dxy     :     0.033902

 12 H s       :     0.634808  s :     0.634808
      pz      :     0.128839  p :     0.304755
      px      :     0.085090
      py      :     0.090826
      dz2     :     0.077045  d :     0.220144
      dxz     :     0.035704
      dyz     :     0.044237
      dx2y2   :     0.024101
      dxy     :     0.039056

 13 H s       :     0.655802  s :     0.655802
      pz      :     0.081458  p :     0.298112
      px      :     0.090968
      py      :     0.125686
      dz2     :     0.023054  d :     0.216265
      dxz     :     0.017522
      dyz     :     0.047742
      dx2y2   :     0.069081
      dxy     :     0.058867

 14 H s       :     0.659091  s :     0.659091
      pz      :     0.078722  p :     0.307555
      px      :     0.103257
      py      :     0.125576
      dz2     :     0.023692  d :     0.218916
      dxz     :     0.022231
      dyz     :     0.041610
      dx2y2   :     0.077820
      dxy     :     0.053563

 15 S s       :     4.969223  s :     4.969223
      pz      :     3.084608  p :     9.251987
      px      :     2.907945
      py      :     3.259434
      dz2     :     0.067335  d :     0.366440
      dxz     :     0.109003
      dyz     :     0.026940
      dx2y2   :     0.075638
      dxy     :     0.087524
      f0      :     0.021049  f :     0.146969
      f+1     :     0.018382
      f-1     :     0.014771
      f+2     :     0.025719
      f-2     :     0.003830
      f+3     :     0.024157
      f-3     :     0.039062

 16 H s       :     0.752206  s :     0.752206
      pz      :     0.223772  p :     0.485948
      px      :     0.091598
      py      :     0.170578
      dz2     :     0.105436  d :     0.304330
      dxz     :     0.066394
      dyz     :     0.089446
      dx2y2   :     0.027884
      dxy     :     0.015170



                      *****************************
                      * MAYER POPULATION ANALYSIS *
                      *****************************

  NA   - Mulliken gross atomic population
  ZA   - Total nuclear charge
  QA   - Mulliken gross atomic charge
  VA   - Mayer's total valence
  BVA  - Mayer's bonded valence
  FA   - Mayer's free valence

  ATOM       NA         ZA         QA         VA         BVA        FA
  0 C      5.2175     6.0000     0.7825     2.5831     2.5831    -0.0000
  1 C      6.6470     6.0000    -0.6470     2.6897     2.6897     0.0000
  2 C      6.9653     6.0000    -0.9653     2.9300     2.9300     0.0000
  3 C      4.8614     6.0000     1.1386     1.7037     1.7037    -0.0000
  4 C      6.3464     6.0000    -0.3464     2.3452     2.3452    -0.0000
  5 C      6.8312     6.0000    -0.8312     2.4094     2.4094    -0.0000
  6 H      0.5954     1.0000     0.4046     0.7117     0.7117    -0.0000
  7 H      0.5257     1.0000     0.4743     0.4060     0.4060     0.0000
  8 O      8.6535     8.0000    -0.6535     1.6038     1.6038    -0.0000
  9 C      6.7008     6.0000    -0.7008     3.7515     3.7515     0.0000
 10 H      0.7440     1.0000     0.2560     0.9870     0.9870     0.0000
 11 H      0.7285     1.0000     0.2715     0.9395     0.9395     0.0000
 12 H      0.7286     1.0000     0.2714     0.9389     0.9389    -0.0000
 13 H      0.4929     1.0000     0.5071     0.4587     0.4587    -0.0000
 14 H      0.5679     1.0000     0.4321     0.6531     0.6531     0.0000
 15 S     16.4881    16.0000    -0.4881     1.5808     1.5808    -0.0000
 16 H      0.9058     1.0000     0.0942     1.0914     1.0914    -0.0000

  Mayer bond orders larger than 0.100000
B(  0-C ,  1-C ) :   0.9734 B(  0-C ,  4-C ) :   0.1053 B(  0-C ,  5-C ) :   0.9638 
B(  0-C , 15-S ) :   0.6093 B(  1-C ,  2-C ) :   1.2020 B(  1-C ,  3-C ) :  -0.3470 
B(  1-C ,  7-H ) :   0.1000 B(  1-C , 14-H ) :   0.7554 B(  2-C ,  3-C ) :   0.6581 
B(  2-C ,  4-C ) :   0.2571 B(  2-C ,  8-O ) :   0.2764 B(  2-C , 13-H ) :   0.4072 
B(  3-C ,  4-C ) :   0.9300 B(  3-C ,  5-C ) :  -0.3022 B(  3-C ,  7-H ) :   0.1261 
B(  3-C ,  8-O ) :   0.3614 B(  4-C ,  5-C ) :   0.9624 B(  4-C ,  7-H ) :   0.3593 
B(  4-C ,  8-O ) :  -0.1176 B(  5-C ,  6-H ) :   0.7814 B(  5-C ,  7-H ) :   0.1045 
B(  6-H , 15-S ) :  -0.1331 B(  8-O ,  9-C ) :   1.0372 B(  9-C , 10-H ) :   0.9695 
B(  9-C , 11-H ) :   0.9087 B(  9-C , 12-H ) :   0.9095 B( 14-H , 15-S ) :  -0.1300 
B( 15-S , 16-H ) :   1.1012 

-------
TIMINGS
-------

Total SCF time: 0 days 0 hours 3 min 31 sec 

Total time                  ....     211.563 sec
Sum of individual times     ....     210.474 sec  ( 99.5%)

SCF preparation             ....       1.509 sec  (  0.7%)
Fock matrix formation       ....     176.478 sec  ( 83.4%)
  Startup                   ....       3.383 sec  (  1.9% of F)
  Split-RI-J                ....      14.586 sec  (  8.3% of F)
  Chain of spheres X        ....      92.056 sec  ( 52.2% of F)
  XC integration            ....      52.559 sec  ( 29.8% of F)
    XC Preparation          ....       0.000 sec  (  0.0% of XC)
    Basis function eval.    ....       3.981 sec  (  7.6% of XC)
    Density eval.           ....      17.751 sec  ( 33.8% of XC)
    XC-Functional eval.     ....       0.731 sec  (  1.4% of XC)
    XC-Potential eval.      ....      23.926 sec  ( 45.5% of XC)
  CPCM terms                ....       5.706 sec  (  3.2% of F)
Diagonalization             ....       0.000 sec  (  0.0%)
Density matrix formation    ....       8.438 sec  (  4.0%)
Total Energy calculation    ....       4.263 sec  (  2.0%)
Population analysis         ....       0.873 sec  (  0.4%)
Orbital Transformation      ....       1.923 sec  (  0.9%)
Orbital Orthonormalization  ....       0.000 sec  (  0.0%)
DIIS solution               ....      14.905 sec  (  7.0%)
SOSCF solution              ....       2.083 sec  (  1.0%)
Finished LeanSCF after 212.1 sec

Maximum memory used throughout the entire LEANSCF-calculation: 83.4 MB


-------------------------------------------------------------------------------
                          DFT DISPERSION CORRECTION                            
                                                                               
                              DFTD3 V3.1  Rev 1                                
                          USING Becke-Johnson damping                          
-------------------------------------------------------------------------------
The R2SCANh functional is recognized
Active option DFTDOPT                   ...         4   

molecular C6(AA) [au] = 3928.003366 


            DFT-D V3
 parameters
 s6 scaling factor         :     1.0000 
 a1 scaling factor         :     0.4709 
 s8 scaling factor         :     1.1236 
 a2 scaling factor         :     5.9157 
 ad hoc parameters k1-k3   :    16.0000     1.3333    -4.0000 

 Edisp/kcal,au: -3.572367475844  -0.005692929338 
 E6   /kcal   :  -2.534054610 
 E8   /kcal   :  -1.038312866 
 % E8         :  29.065119211 

-------------------------   ----------------
Dispersion correction           -0.005692929
-------------------------   ----------------


-------------------------   --------------------
FINAL SINGLE POINT ENERGY      -744.879200149498
-------------------------   --------------------



           ************************************************************
           *        Program running with 8 parallel MPI-processes     *
[...]
      f+1     :     0.028461
      f-1     :     0.024374
      f+2     :     0.059316
      f-2     :     0.022653
      f+3     :     0.067681
      f-3     :     0.122692

  5 C s       :     2.490317  s :     2.490317
      pz      :     0.613963  p :     2.305859
      px      :     0.857151
      py      :     0.834744
      dz2     :     0.071752  d :     0.746104
      dxz     :     0.135438
      dyz     :     0.058688
      dx2y2   :     0.238708
      dxy     :     0.241518
      f0      :     0.022060  f :     0.359438
      f+1     :     0.030489
      f-1     :     0.022562
      f+2     :     0.044922
      f-2     :     0.039847
      f+3     :     0.070647
      f-3     :     0.128911

  6 H s       :     0.658932  s :     0.658932
      pz      :     0.082361  p :     0.312120
      px      :     0.095565
      py      :     0.134194
      dz2     :     0.024026  d :     0.221934
      dxz     :     0.014460
      dyz     :     0.052119
      dx2y2   :     0.066990
      dxy     :     0.064339

  7 H s       :     0.634181  s :     0.634181
      pz      :     0.088525  p :     0.328699
      px      :     0.121351
      py      :     0.118823
      dz2     :     0.024785  d :     0.236051
      dxz     :     0.026087
      dyz     :     0.044259
      dx2y2   :     0.086567
      dxy     :     0.054353

  8 O s       :     2.984626  s :     2.984626
      pz      :     1.376857  p :     3.839118
      px      :     1.174409
      py      :     1.287853
      dz2     :     0.040777  d :     0.458075
      dxz     :     0.085329
      dyz     :     0.054502
      dx2y2   :     0.141805
      dxy     :     0.135662
      f0      :     0.012886  f :     0.125532
      f+1     :     0.010702
      f-1     :     0.004605
      f+2     :     0.014847
      f-2     :     0.014542
      f+3     :     0.026228
      f-3     :     0.041721

  9 C s       :     2.460504  s :     2.460504
      pz      :     0.805829  p :     2.211577
      px      :     0.724976
      py      :     0.680772
      dz2     :     0.097488  d :     0.661886
      dxz     :     0.044174
      dyz     :     0.195252
      dx2y2   :     0.177570
      dxy     :     0.147402
      f0      :     0.035149  f :     0.310757
      f+1     :     0.023648
      f-1     :     0.036644
      f+2     :     0.011649
      f-2     :     0.059568
      f+3     :     0.060428
      f-3     :     0.083671

 10 H s       :     0.650201  s :     0.650201
      pz      :     0.091972  p :     0.302690
      px      :     0.129464
      py      :     0.081255
      dz2     :     0.017140  d :     0.225896
      dxz     :     0.065378
      dyz     :     0.028657
      dx2y2   :     0.042846
      dxy     :     0.071876

 11 H s       :     0.634768  s :     0.634768
      pz      :     0.134736  p :     0.311168
      px      :     0.087009
      py      :     0.089423
      dz2     :     0.077707  d :     0.225466
      dxz     :     0.041904
      dyz     :     0.047958
      dx2y2   :     0.022140
      dxy     :     0.035758

 12 H s       :     0.634947  s :     0.634947
      pz      :     0.130993  p :     0.310785
      px      :     0.089045
      py      :     0.090747
      dz2     :     0.078691  d :     0.225109
      dxz     :     0.037909
      dyz     :     0.045162
      dx2y2   :     0.024463
      dxy     :     0.038884

 13 H s       :     0.655958  s :     0.655958
      pz      :     0.082855  p :     0.302089
      px      :     0.090736
      py      :     0.128498
      dz2     :     0.023304  d :     0.219153
      dxz     :     0.015863
      dyz     :     0.050340
      dx2y2   :     0.067782
      dxy     :     0.061864

 14 H s       :     0.654488  s :     0.654488
      pz      :     0.082084  p :     0.314308
      px      :     0.107973
      py      :     0.124251
      dz2     :     0.024958  d :     0.225883
      dxz     :     0.024380
      dyz     :     0.042221
      dx2y2   :     0.081051
      dxy     :     0.053273

 15 S s       :     4.958805  s :     4.958805
      pz      :     3.300217  p :     9.227470
      px      :     2.883234
      py      :     3.044018
      dz2     :     0.045190  d :     0.361604
      dxz     :     0.089047
      dyz     :     0.006520
      dx2y2   :     0.108535
      dxy     :     0.112312
      f0      :     0.014251  f :     0.146608
      f+1     :     0.016987
      f-1     :     0.007310
      f+2     :     0.021692
      f-2     :     0.003678
      f+3     :     0.032564
      f-3     :     0.050125

 16 H s       :     0.739567  s :     0.739567
      pz      :     0.161964  p :     0.501105
      px      :     0.097553
      py      :     0.241587
      dz2     :     0.027830  d :     0.322399
      dxz     :     0.007292
      dyz     :     0.115786
      dx2y2   :     0.091425
      dxy     :     0.080066



                      *****************************
                      * MAYER POPULATION ANALYSIS *
                      *****************************

  NA   - Mulliken gross atomic population
  ZA   - Total nuclear charge
  QA   - Mulliken gross atomic charge
  VA   - Mayer's total valence
  BVA  - Mayer's bonded valence
  FA   - Mayer's free valence

  ATOM       NA         ZA         QA         VA         BVA        FA
  0 C      5.0518     6.0000     0.9482     2.1871     2.1871    -0.0000
  1 C      6.7325     6.0000    -0.7325     2.7517     2.7517    -0.0000
  2 C      6.9163     6.0000    -0.9163     2.7454     2.7454    -0.0000
  3 C      4.8093     6.0000     1.1907     1.6536     1.6536     0.0000
  4 C      6.2752     6.0000    -0.2752     2.1578     2.1578    -0.0000
  5 C      6.9855     6.0000    -0.9855     2.4698     2.4698    -0.0000
  6 H      0.5945     1.0000     0.4055     0.7519     0.7519    -0.0000
  7 H      0.5492     1.0000     0.4508     0.4811     0.4811    -0.0000
  8 O      8.6796     8.0000    -0.6796     1.5644     1.5644    -0.0000
  9 C      6.7032     6.0000    -0.7032     3.7188     3.7188    -0.0000
 10 H      0.7423     1.0000     0.2577     0.9927     0.9927    -0.0000
 11 H      0.7222     1.0000     0.2778     0.9347     0.9347     0.0000
 12 H      0.7233     1.0000     0.2767     0.9374     0.9374    -0.0000
 13 H      0.4682     1.0000     0.5318     0.4711     0.4711     0.0000
 14 H      0.7027     1.0000     0.2973     0.9074     0.9074    -0.0000
 15 S     16.4794    16.0000    -0.4794     1.6742     1.6742     0.0000
 16 H      0.8648     1.0000     0.1352     1.0661     1.0661     0.0000

  Mayer bond orders larger than 0.100000
B(  0-C ,  1-C ) :   0.8947 B(  0-C ,  5-C ) :   1.0349 B(  0-C , 15-S ) :   0.2791 
B(  1-C ,  2-C ) :   1.2261 B(  1-C ,  3-C ) :  -0.3389 B(  1-C , 14-H ) :   0.7907 
B(  2-C ,  3-C ) :   0.6071 B(  2-C ,  4-C ) :   0.2260 B(  2-C ,  8-O ) :   0.2879 
B(  2-C , 13-H ) :   0.3838 B(  3-C ,  4-C ) :   0.9203 B(  3-C ,  5-C ) :  -0.2780 
B(  3-C ,  7-H ) :   0.1107 B(  3-C ,  8-O ) :   0.3560 B(  4-C ,  5-C ) :   0.8378 
B(  4-C ,  7-H ) :   0.4221 B(  4-C ,  8-O ) :  -0.1461 B(  4-C ,  9-C ) :  -0.1224 
B(  5-C ,  6-H ) :   0.6965 B(  5-C , 15-S ) :   0.1467 B(  8-O ,  9-C ) :   1.0085 
B(  9-C , 10-H ) :   0.9790 B(  9-C , 11-H ) :   0.9077 B(  9-C , 12-H ) :   0.9091 
B( 15-S , 16-H ) :   1.0647 

-------
TIMINGS
-------

Total SCF time: 0 days 0 hours 1 min 13 sec 

Total time                  ....      73.587 sec
Sum of individual times     ....      71.525 sec  ( 97.2%)

SCF preparation             ....       1.582 sec  (  2.1%)
Fock matrix formation       ....      64.366 sec  ( 87.5%)
  Startup                   ....       0.817 sec  (  1.3% of F)
  Split-RI-J                ....       4.387 sec  (  6.8% of F)
  Chain of spheres X        ....      43.567 sec  ( 67.7% of F)
  XC integration            ....      13.137 sec  ( 20.4% of F)
    XC Preparation          ....       0.000 sec  (  0.0% of XC)
    Basis function eval.    ....       1.040 sec  (  7.9% of XC)
    Density eval.           ....       4.750 sec  ( 36.2% of XC)
    XC-Functional eval.     ....       0.183 sec  (  1.4% of XC)
    XC-Potential eval.      ....       6.092 sec  ( 46.4% of XC)
  CPCM terms                ....       1.422 sec  (  2.2% of F)
Diagonalization             ....       0.000 sec  (  0.0%)
Density matrix formation    ....       0.983 sec  (  1.3%)
Total Energy calculation    ....       0.865 sec  (  1.2%)
Population analysis         ....       0.688 sec  (  0.9%)
Orbital Transformation      ....       0.503 sec  (  0.7%)
Orbital Orthonormalization  ....       0.000 sec  (  0.0%)
DIIS solution               ....       0.758 sec  (  1.0%)
SOSCF solution              ....       1.779 sec  (  2.4%)
Finished LeanSCF after  74.1 sec

Maximum memory used throughout the entire LEANSCF-calculation: 84.8 MB


-------------------------------------------------------------------------------
                          DFT DISPERSION CORRECTION                            
                                                                               
                              DFTD3 V3.1  Rev 1                                
                          USING Becke-Johnson damping                          
-------------------------------------------------------------------------------
The R2SCANh functional is recognized
Active option DFTDOPT                   ...         4   

molecular C6(AA) [au] = 3923.207350 


            DFT-D V3
 parameters
 s6 scaling factor         :     1.0000 
 a1 scaling factor         :     0.4709 
 s8 scaling factor         :     1.1236 
 a2 scaling factor         :     5.9157 
 ad hoc parameters k1-k3   :    16.0000     1.3333    -4.0000 

 Edisp/kcal,au: -3.582464674266  -0.005709020246 
 E6   /kcal   :  -2.541496591 
 E8   /kcal   :  -1.040968083 
 % E8         :  29.057316068 

-------------------------   ----------------
Dispersion correction           -0.005709020
-------------------------   ----------------


-------------------------   --------------------
FINAL SINGLE POINT ENERGY      -744.881828295749
-------------------------   --------------------

                                *** OPTIMIZATION RUN DONE ***



           ************************************************************
           *        Program running with 8 parallel MPI-processes     *
           *              working on a common directory               *
           ************************************************************

------------------------------------------------------------------------------
                              ORCA PROPERTY CALCULATIONS
------------------------------------------------------------------------------

GBWName                                 ... cs_rporg_078_red_opt_07.gbw
Number of atoms                         ...     17
Number of basis functions               ...    675
Max core memory                         ...   3500 MB

Electric properties:
Dipole moment                           ... YES
Quadrupole moment                       ...  NO
Static polarizability (Dipole/Dipole)   ...  NO
Static polarizability (Dipole/Quad.)    ...  NO
Static polarizability (Quad./Quad.)     ...  NO
Static polarizability (Velocity)        ...  NO

Atomic electric properties:
Dipole moment                           ...  NO
Quadrupole moment                       ...  NO
Static polarizability                   ...  NO

Choice of electric origin               ... Center of mass
Position of electric origin             ...    -0.011668     0.001326    -0.239189

General magnetic properties:
Magnetizability                         ...  NO

EPR properties:
g-Tensor (aka g-matrix)                 ...  NO
Zero-Field splitting spin-orbit         ...  NO
Zero-field splitting spin-spin          ...  NO
Hyperfine couplings                     ...  NO (   0 nuclei)
Quadrupole couplings                    ...  NO (   0 nuclei)
Contact density                         ...  NO (   0 nuclei)

NMR properties:
Chemical shifts                         ...  NO (   0 nuclei)
Spin-rotation constants                 ...  NO (   0 nuclei)
Spin-spin couplings                     ...  NO (   0 nuclei,    0 pairs)

Choice of magnetic origin               ... GIAO
Position of magnetic origin             ...     0.000000     0.000000     0.000000

Properties with geometric perturbations:
SCF Hessian                             ...  NO
IR spectrum                             ...  NO
VCD spectrum                            ...  NO
X-ray spectroscopy properties:
SCF XES/XAS/RIXS spectra                ...  NO


-------------
DIPOLE MOMENT
-------------

Method             : SCF
Type of density    : Electron Density
Multiplicity       :   1
Irrep              :   0
Energy             :  -744.8761192755032425 Eh
Relativity type    : 
Basis              : AO
                                X                 Y                 Z
Electronic contribution:      7.093653481       0.999784363      -0.484037461
Nuclear contribution   :     -7.931306471      -1.149710239       0.556463174
                        -----------------------------------------
Total Dipole Moment    :     -0.837652990      -0.149925875       0.072425713
                        -----------------------------------------
Magnitude (a.u.)       :      0.854040856
Magnitude (Debye)      :      2.170799338



--------------------
Rotational spectrum 
--------------------
 
Rotational constants in cm-1:             0.159636             0.023234             0.020361 
Rotational constants in MHz :          4785.755018           696.532281           610.398404 

Dipole components along the rotational axes: 
x,y,z [a.u.] :    -0.840125    -0.152246    -0.019925 
x,y,z [Debye]:    -2.135428    -0.386978    -0.050645 

 

Dipole moment calculation done in   0.2 sec 

Maximum memory used throughout the entire PROP-calculation: 46.1 MB

--------------------------------
SUGGESTED CITATIONS FOR THIS RUN
--------------------------------

Below you find a list of papers that are relevant to this ORCA run
We neither can nor want to force you to cite these papers, but we appreciate if you do
You receive ORCA, which is the product of decades of hard work by many enthusiastic individuals, for free
The only thing we kindly ask in return is that you cite our papers,
We deeply appreciate it, if you show your appreciation for ORCA by not just citing the generic ORCA reference.

Please note that relegating all ORCA citations to the supporting information does *not* help us.
SI sections are not indexed - citations you put there will not count into any citation statistics
But we need these citations in order to attract the funding resources that allow us to do what we are doing

Therefore, if you are a happy ORCA user, please consider citing a few of the papers listed below in the main body of your paper

In addition to the list printed below, the program has created the file cs_rporg_078_red_opt_07.bibtex that contains the list in bibtex format
You can import this file easily into all common literature databanks and citation aid programs


List of essential papers. We consider these as the minimum necessary citations

  1. Neese,F.
     Software update: the ORCA program system, version 5.0
     WIRES Comput. Molec. Sci., 2022 12(1)e1606
     doi.org/10.1002/wcms.1606

List of papers to cite with high priority. The work reported in these papers was absolutely
necessary for this run to complete.
Our perspective: the developers of density functionals and basis sets usually get cited in chemistry papers
Good! But without the algorithms to do something with them, the functionals or basis sets would not do anything.
Hence, in our opinion, the algorithm design and method developments papers are equally worthy of getting cited

  1. Neese,F.
     An improvement of the resolution of the identity approximation for the formation of the Coulomb matrix
     J. Comp. Chem., 2003 24(14)1740-1747
     doi.org/10.1002/jcc.10318
  2. Neese,F.; Wennmohs,F.; Hansen,A.; Becker,U.
     Efficient, approximate and parallel Hartree-Fock and hybrid DFT calculations. A 'chain-of-spheres' algorithm for the Hartree-Fock exchange
     Chem. Phys., 2009 356(1-3)98-109
     doi.org/10.1016/j.chemphys.2008.10.036
  3. Garcia-Rates,M.; Neese,F.
     Effect of the Solute Cavity on the Solvation Energy and its Derivatives within the Framework of the Gaussian Charge Scheme
     J. Comput. Chem., 2020 41 922-939
     doi.org/10.1002/jcc.26139
  4. Helmich-Paris,B.; de Souza,B.; Neese,F.; Izsák,R.
     An improved chain of spheres for exchange algorithm
     J. Chem. Phys., 2021 155 104109
     doi.org/doi: 10.1063/5.0058766.
  5. Neese,F.
     The SHARK Integral Generation and Digestion System
     J. Comp. Chem., 2022  1-16
     doi.org/10.1002/jcc.26942
  6. Lehtola,S.; Steigemann,C.; Oliveira,M.; Marques,M.
     Recent developments in Libxc - A comprehensive library of functionals for density functional theory
     Software X, 2018 7 
     doi.org/10.1016/j.softx.2017.11.002
  7. Grimme,S.; Antony,J.; Ehrlich,S.; Krieg,H.
     A consistent and accurate ab initio parametrization of density functional dispersion correction (DFT-D) for the 94 elements H-Pu
     J. Chem. Phys., 2010 132 154104-XXXX
     doi.org/10.1063/1.3382344
  8. Grimme,S.; Ehrlich,S.; Goerigk,L.
     Effect of the damping function in dispersion corrected density functional theory
     J. Comput. Chem., 2011 32(7)1456-1465
     doi.org/10.1002/jcc.21759
  9. Bursch,M.; Neugebauer,H.; Ehlert,S.; Grimme,S.
     Dispersion corrected r2SCAN based global hybrid functionals: r2SCANh, r2SCAN0, and r2SCAN50
     J. Phys. Chem., 2022 156(13)134105
     doi.org/10.1063/5.0086040

List of suggested additional citations. These are papers that are important in the 'surrounding' of 
of this run, or papers that preceded the highly important papers. If you like your results we are grateful for a citation.

  1. Izsak,R.; Neese,F.
     An overlap fitted chain of spheres exchange method
     J. Chem. Phys., 2011 135 144105
     doi.org/10.1063/1.3646921
  2. Izsak,R.; Hansen,A.; Neese,F.
     The resolution of identity and chain of spheres approximations for the LPNO-CCSD singles Fock term
     Molec. Phys., 2012 110 2413-2417
     doi.org/10.1080/00268976.2012.687466
  3. Neese,F.
     The ORCA program system
     WIRES Comput. Molec. Sci., 2012 2(1)73-78
     doi.org/10.1002/wcms.81
  4. Izsak,R.; Neese,F.; Klopper,W.
     Robust fitting techniques in the chain of spheres approximation to the Fock exchange: The role of the complementary space
     J. Chem. Phys., 2013 139 
     doi.org/10.1063/1.4819264
  5. Neese,F.
     Software update: the ORCA program system, version 4.0
     WIRES Comput. Molec. Sci., 2018 8(1)1-6
     doi.org/10.1002/wcms.1327
  6. Neese,F.; Wennmohs,F.; Becker,U.; Riplinger,C.
     The ORCA quantum chemistry program package
     J. Chem. Phys., 2020 152 Art. No. L224108
     doi.org/10.1063/5.0004608
  7. Wittmann,L.; Neugebauer,H.; Grimme,S.; Bursch,M.
     Dispersion-corrected r2SCAN based double-hybrid functionals
     J. Chem. Phys., 2023 159(22)224103
     doi.org/10.1063/5.0174988

List of optional additional citations

  1. Neese,F.
     Approximate second-order SCF convergence for spin unrestricted wavefunctions
     Chem. Phys. Lett., 2000 325(1-3)93-98
     doi.org/10.1016/s0009-2614(00)00662-x

Timings for individual modules:

Sum of individual times          ...     2855.073 sec (=  47.585 min)
Startup calculation              ...      123.197 sec (=   2.053 min)   4.3 %
SCF iterations                   ...     1804.986 sec (=  30.083 min)  63.2 %
Property calculations            ...        2.142 sec (=   0.036 min)   0.1 %
SCF Gradient evaluation          ...      923.706 sec (=  15.395 min)  32.4 %
Geometry relaxation              ...        1.042 sec (=   0.017 min)   0.0 %
                             ****ORCA TERMINATED NORMALLY****
TOTAL RUN TIME: 0 days 0 hours 48 minutes 24 seconds 726 msec
