
                                 *****************
                                 * O   R   C   A *
                                 *****************

                                            #,                                       
                                            ###                                      
                                            ####                                     
                                            #####                                    
                                            ######                                   
                                           ########,                                 
                                     ,,################,,,,,                         
                               ,,#################################,,                 
                          ,,##########################################,,             
                       ,#########################################, ''#####,          
                    ,#############################################,,   '####,        
                  ,##################################################,,,,####,       
                ,###########''''           ''''###############################       
              ,#####''   ,,,,##########,,,,          '''####'''          '####       
            ,##' ,,,,###########################,,,                        '##       
           ' ,,###''''                  '''############,,,                           
         ,,##''                                '''############,,,,        ,,,,,,###''
      ,#''                                            '''#######################'''  
     '                                                          ''''####''''         
             ,#######,   #######,   ,#######,      ##                                
            ,#'     '#,  ##    ##  ,#'     '#,    #''#        ,####,   ,####,        
            ##       ##  ##   ,#'  ##            #'  '#       #'       #'  '#        
            ##       ##  #######   ##           ,######,      #####,   #    #        
            '#,     ,#'  ##    ##  '#,     ,#' ,#      #,     #,   #   #,  ,#        
             '#######'   ##     ##  '#######'  #'      '#     '####' # '####'        



                #########################################################
                #                        -***-                          #
                #          Department of theory and spectroscopy        #
                #                                                       #
                #                      Frank Neese                      #
                #                                                       #
                #     Directorship, Architecture, Infrastructure        #
                #                    SHARK, DRIVERS                     #
                #        Core code/Algorithms in most modules           #
                #                                                       #
                #        Max Planck Institute fuer Kohlenforschung      #
                #                Kaiser Wilhelm Platz 1                 #
                #                 D-45470 Muelheim/Ruhr                 #
                #                      Germany                          #
                #                                                       #
                #                  All rights reserved                  #
                #                        -***-                          #
                #########################################################


                         Program Version 6.0.0  -   RELEASE  -


 With contributions from (in alphabetic order):
   Daniel Aravena         : Magnetic Suceptibility
   Michael Atanasov       : Ab Initio Ligand Field Theory (pilot matlab implementation)
   Alexander A. Auer      : GIAO ZORA, VPT2 properties, NMR spectrum
   Ute Becker             : All parallelization in ORCA, NUMFREQ, NUMCALC
   Giovanni Bistoni       : ED, misc. LED, open-shell LED, HFLD
   Martin Brehm           : Molecular dynamics
   Dmytro Bykov           : pre 5.0 version of the SCF Hessian
   Marcos Casanova-Páez   : Triplet and SCS-CIS(D). UHF-(DLPNO)-IP/EA/STEOM-CCSD. UHF-CVS-IP/STEOM-CCSD
   Vijay G. Chilkuri      : MRCI spin determinant printing, contributions to CSF-ICE
   Pauline Colinet        : FMM embedding
   Dipayan Datta          : RHF DLPNO-CCSD density
   Achintya Kumar Dutta   : EOM-CC, STEOM-CC
   Nicolas Foglia         : Exact transition moments, OPA infrastructure, MCD improvements
   Dmitry Ganyushin       : Spin-Orbit,Spin-Spin,Magnetic field MRCI
   Miquel Garcia          : C-PCM and meta-GGA Hessian, CCSD/C-PCM, Gaussian charge scheme
   Tiago L. C. Gouveia    : GS-ROHF, GS-ROCIS
   Yang Guo               : DLPNO-NEVPT2, F12-NEVPT2, CIM, IAO-localization
   Andreas Hansen         : Spin unrestricted coupled pair/coupled cluster methods
   Ingolf Harden          : AUTO-CI MPn and infrastructure 
   Benjamin Helmich-Paris : MC-RPA, TRAH-(SCF,CASSCF), AVAS, COSX integrals, SCF dyn. polar.
   Lee Huntington         : MR-EOM, pCC
   Robert Izsak           : Overlap fitted RIJCOSX, COSX-SCS-MP3, EOM
   Riya Kayal             : Wick's Theorem for AUTO-CI, AUTO-CI UHF-CCSDT
   Emily Kempfer          : AUTO-CI, RHF CISDT and CCSDT
   Christian Kollmar      : KDIIS, OOCD, Brueckner-CCSD(T), CCSD density, CASPT2, CASPT2-K, improved NEVPT2
   Axel Koslowski         : Symmetry handling
   Simone Kossmann        : Meta GGA functionals, TD-DFT gradient, OOMP2, (MP2 Hessian; deprecated post 5.0)
   Lucas Lang             : DCDCAS
   Marvin Lechner         : AUTO-CI (C++ implementation), FIC-MRCC
   Spencer Leger          : CASSCF response
   Dagmar Lenk            : GEPOL surface, SMD, ORCA-2-JSON
   Dimitrios Liakos       : Extrapolation schemes; Compound Job, initial MDCI parallelization
   Dimitrios Manganas     : Further ROCIS development; embedding schemes. LFT, Crystal Embedding
   Dimitrios Pantazis     : SARC Basis sets
   Anastasios Papadopoulos: AUTO-CI, single reference methods and gradients
   Taras Petrenko         : pre 6.0 DFT Hessian and TD-DFT gradient, (ASA, deprecated), ECA, 1-Electron XAS/XES, NRVS
   Peter Pinski           : DLPNO-MP2, DLPNO-MP2 Gradient
   Christoph Reimann      : Effective Core Potentials
   Marius Retegan         : Local ZFS, SOC
   Christoph Riplinger    : Optimizer, TS searches, QM/MM, DLPNO-CCSD(T), (RO)-DLPNO pert. Triples
   Michael Roemelt        : Original ROCIS implementation
   Masaaki Saitow         : Open-shell DLPNO-CCSD energy and density
   Barbara Sandhoefer     : DKH picture change effects
   Kantharuban Sivalingam : CASSCF convergence/infrastructure, NEVPT2 and variants, FIC-MRCI
   Bernardo de Souza      : ESD, SOC TD-DFT
   Georgi Stoychev        : AutoAux, RI-MP2 NMR, DLPNO-MP2 response, X2C
   Van Anh Tran           : RI-MP2 g-tensors
   Willem Van den Heuvel  : Paramagnetic NMR
   Zikuan Wang            : NOTCH, Electric field optimization 
   Frank Wennmohs         : Technical directorship and infrastructure
   Hang Xu                : AUTO-CI-Response properties 


 We gratefully acknowledge several colleagues who have allowed us to
 interface, adapt or use parts of their codes:
   Stefan Grimme, W. Hujo, H. Kruse, P. Pracht,  : VdW corrections, initial TS optimization,
                  C. Bannwarth, S. Ehlert,         DFT functionals, gCP, sTDA/sTD-DF
                  L. Wittmann, M. Mueller
   Ed Valeev, F. Pavosevic, A. Kumar             : LibInt (2-el integral package), F12 methods
   Garnet Chan, S. Sharma, J. Yang, R. Olivares  : DMRG
   Ulf Ekstrom                                   : XCFun DFT Library
   Mihaly Kallay                                 : mrcc  (arbitrary order and MRCC methods)
   Frank Weinhold                                : gennbo (NPA and NBO analysis)
   Simon Mueller                                 : openCOSMO-RS
   Christopher J. Cramer and Donald G. Truhlar   : smd solvation model
   Lars Goerigk                                  : TD-DFT with DH, B97 family of functionals
   V. Asgeirsson, H. Jonsson                     : NEB implementation
   FAccTs GmbH                                   : IRC, NEB, NEB-TS, DLPNO-Multilevel, CI-OPT
                                                   MM, QMMM, 2- and 3-layer-ONIOM, Crystal-QMMM,
                                                   LR-CPCM, SF, NACMEs, symmetry and pop. for TD-DFT,
                                                   nearIR, NL-DFT gradient (VV10), updates on ESD,
                                                   ML-optimized integration grids, MBIS, APM,
                                                   GOAT, DOCKER, SOLVATOR, interface openCOSMO-RS
   S Lehtola, MJT Oliveira, MAL Marques          : LibXC Library
   Liviu Ungur et al                             : ANISO software


 Your calculation uses the libint2 library for the computation of 2-el integrals
 For citations please refer to: http://libint.valeyev.net

 Your ORCA version has been built with support for libXC version: 6.2.2
 For citations please refer to: https://libxc.gitlab.io

 This ORCA versions uses:
   CBLAS   interface :  Fast vector & matrix operations
   LAPACKE interface :  Fast linear algebra routines
   SCALAPACK package :  Parallel linear algebra routines
   Shared memory     :  Shared parallel matrices
   BLAS/LAPACK       :  OpenBLAS 0.3.27  USE64BITINT DYNAMIC_ARCH NO_AFFINITY SkylakeX SINGLE_THREADED
        Core in use  :  SkylakeX
   Copyright (c) 2011-2014, The OpenBLAS Project


NOTE: MaxCore=3000 MB was set to SCF,MP2,MDCI,CIPSI,MRCI and CIS
      => If you want to overwrite this, your respective input block should be placed after the MaxCore statement
Your calculation utilizes the atom-pairwise dispersion correction
with the Becke-Johnson damping scheme (D3BJ)


Your calculation utilizes the SMD solvation module
Please cite in your paper:
A.V. Marenich, C.J. Cramer, D.G. Truhlar J. Phys. Chem. B, 113, (2009), 6378 

Warning: RI is on but no J-basis has been assigned. Assigning Def2/J (nothing to worry about!)
================================================================================

----- Orbital basis set information -----
Your calculation utilizes the basis: aug-cc-pVTZ 
    H, B-Ne : Obtained from the ccRepo (grant-hill.group.shef.ac.uk/ccrepo) Feb. 2017
              R. A. Kendall, T. H. Dunning, Jr., R. J. Harrison, J. Chem. Phys. 96, 6796 (1992)
         He : Obtained from the ccRepo (grant-hill.group.shef.ac.uk/ccrepo) Feb. 2017
              D. E. Woon, T. H. Dunning, Jr., J. Chem. Phys. 100, 2975 (1994)
  Li-Be, Na : Obtained from the ccRepo (grant-hill.group.shef.ac.uk/ccrepo) Feb. 2017
              B. P. Prascher, D. E. Woon, K. A. Peterson, T. H. Dunning, Jr., A. K. Wilson, Theor. Chem. Acc. 128, 69 (2011)
         Mg : Obtained from the Peterson Research Group Website (tyr0.chem.wsu.edu/~kipeters) Feb. 2017
              B. P. Prascher, D. E. Woon, K. A. Peterson, T. H. Dunning, Jr., A. K. Wilson, Theor. Chem. Acc. 128, 69 (2011)
      Al-Ar : Obtained from the ccRepo (grant-hill.group.shef.ac.uk/ccrepo) Feb. 2017
              D. E. Woon, T. H. Dunning, Jr., J. Chem. Phys. 98, 1358 (1993)
      Sc-Zn : Obtained from the ccRepo (grant-hill.group.shef.ac.uk/ccrepo) Feb. 2017
              N. B. Balabanov, K. A. Peterson, J. Chem. Phys. 123, 064107 (2005)
              N. B. Balabanov, K. A. Peterson, J. Chem. Phys. 125, 074110 (2006)
      Ga-Kr : Obtained from the ccRepo (grant-hill.group.shef.ac.uk/ccrepo) Feb. 2017
              A. K. Wilson, D. E. Woon, K. A. Peterson, T. H. Dunning, Jr., J. Chem. Phys. 110, 7667 (1999)
     Ag, Au : Obtained from the Peterson Research Group Website (tyr0.chem.wsu.edu/~kipeters) Feb. 2017
              K. A. Peterson, C. Puzzarini, Theor. Chem. Acc. 114, 283 (2005)

----- AuxJ basis set information -----
Your calculation utilizes the auxiliary basis: def2/J
   F. Weigend, Phys. Chem. Chem. Phys. 8, 1057 (2006).

================================================================================
                                        WARNINGS
                       Please study these warnings very carefully!
================================================================================


WARNING: your system is open-shell and RHF/RKS was chosen
  ===> : WILL SWITCH to UHF/UKS


================================================================================
                                       INPUT FILE
================================================================================
NAME = cs_rporg_070_ox_solv_02.inp
|  1> !B3LYP aug-cc-pVTZ d3 TightSCF SlowConv RIJCOSX defgrid2
|  2>  
|  3> %pal
|  4> nprocs 4
|  5> end
|  6>  
|  7> %scf
|  8> MaxIter 1500
|  9> end
| 10>  
| 11> %maxcore 3000
| 12>  
| 13> !CPCM
| 14> %cpcm smd true
| 15> SMDsolvent "MeCN"
| 16> surfacetype gepol_ses
| 17> rsolv 2.19
| 18> end 
| 19>  
| 20> * xyz 1 2
| 21> C           1.71497106575748      1.06171932835084     -0.03514469304606
| 22> C           0.56719485465527      1.82392831640831     -0.00294767414977
| 23> C          -0.68893058329112      1.20760587034953      0.00674165425173
| 24> C          -0.80034038219193     -0.22800805453168     -0.01673661650706
| 25> C           0.34844024659380     -1.00330914690348     -0.04917310869374
| 26> C           1.61061604456188     -0.38138433792306     -0.05904556326935
| 27> N           2.73628401268176     -1.09580230581758     -0.09073600890504
| 28> H           2.71545111037900     -2.11343777495485     -0.10881829621903
| 29> H           3.64963295510932     -0.64805903858531     -0.09811724471076
| 30> H           0.25123309236129     -2.09096960143506     -0.06695996926436
| 31> O          -1.95374878515058     -0.85587592591482     -0.00850993427148
| 32> C          -3.19266872724087     -0.16172631263894      0.01967853662734
| 33> H          -3.96658303938529     -0.94029601988636      0.01614088330526
| 34> H          -3.30896028056596      0.47212649064151     -0.87574217138754
| 35> H          -3.28534792940125      0.44030899731552      0.93950878924919
| 36> H          -1.58838328810020      1.82581855641198      0.03268809937411
| 37> H           0.63303154865974      2.91458072514130      0.01531465253765
| 38> H           2.70276038456766      1.53066783397213     -0.04298803492109
| 39> *
| 40> 
| 41>                          ****END OF INPUT****
================================================================================

                       ****************************
                       * Single Point Calculation *
                       ****************************

---------------------------------
CARTESIAN COORDINATES (ANGSTROEM)
---------------------------------
  C      1.714971    1.061719   -0.035145
  C      0.567195    1.823928   -0.002948
  C     -0.688931    1.207606    0.006742
  C     -0.800340   -0.228008   -0.016737
  C      0.348440   -1.003309   -0.049173
  C      1.610616   -0.381384   -0.059046
  N      2.736284   -1.095802   -0.090736
  H      2.715451   -2.113438   -0.108818
  H      3.649633   -0.648059   -0.098117
  H      0.251233   -2.090970   -0.066960
  O     -1.953749   -0.855876   -0.008510
  C     -3.192669   -0.161726    0.019679
  H     -3.966583   -0.940296    0.016141
  H     -3.308960    0.472126   -0.875742
  H     -3.285348    0.440309    0.939509
  H     -1.588383    1.825819    0.032688
  H      0.633032    2.914581    0.015315
  H      2.702760    1.530668   -0.042988

----------------------------
CARTESIAN COORDINATES (A.U.)
----------------------------
  NO LB      ZA    FRAG     MASS         X           Y           Z
   0 C     6.0000    0    12.011    3.240826    2.006359   -0.066414
   1 C     6.0000    0    12.011    1.071843    3.446725   -0.005570
   2 C     6.0000    0    12.011   -1.301890    2.282044    0.012740
   3 C     6.0000    0    12.011   -1.512424   -0.430873   -0.031628
   4 C     6.0000    0    12.011    0.658457   -1.895980   -0.092924
   5 C     6.0000    0    12.011    3.043623   -0.720712   -0.111580
   6 N     7.0000    0    14.007    5.170827   -2.070766   -0.171466
   7 H     1.0000    0     1.008    5.131459   -3.993819   -0.205637
   8 H     1.0000    0     1.008    6.896807   -1.224654   -0.185415
   9 H     1.0000    0     1.008    0.474762   -3.951360   -0.126536
  10 O     8.0000    0    15.999   -3.692050   -1.617371   -0.016081
  11 C     6.0000    0    12.011   -6.033270   -0.305618    0.037187
  12 H     1.0000    0     1.008   -7.495756   -1.776902    0.030502
  13 H     1.0000    0     1.008   -6.253029    0.892190   -1.654913
  14 H     1.0000    0     1.008   -6.208408    0.832063    1.775414
  15 H     1.0000    0     1.008   -3.001609    3.450297    0.061772
  16 H     1.0000    0     1.008    1.196256    5.507759    0.028940
  17 H     1.0000    0     1.008    5.107477    2.892543   -0.081236

--------------------------------
INTERNAL COORDINATES (ANGSTROEM)
--------------------------------
 C      0   0   0     0.000000000000     0.00000000     0.00000000
 C      1   0   0     1.378183376867     0.00000000     0.00000000
 C      2   1   0     1.399213477800   120.27863296     0.00000000
 C      3   2   1     1.440121770477   120.55972588     0.00000000
 C      4   3   2     1.386304743890   119.58944192     0.00000000
 C      5   4   3     1.407116085602   119.75470037     0.00000000
 N      6   5   4     1.333613771542   121.36742395   180.03512449
 H      7   6   5     1.018009296116   121.24192418     0.00000000
 H      7   6   5     1.017219153687   121.48394934   179.98707540
 H      5   4   3     1.092140498102   118.92001316   180.01247886
 O      4   3   2     1.313254235185   122.98689936   179.97808942
 C     11   4   3     1.420408708229   122.17725942     0.22907155
 H     12  11   4     1.097782613533   105.55985576   179.78303419
 H     12  11   4     1.103209565741   110.89266531    61.51681595
 H     12  11   4     1.103233267529   110.88551253   298.04044682
 H      3   2   1     1.091730420668   119.36434198   179.97910752
 H      2   1   3     1.092790309039   120.14483111   179.99213978
 H      1   2   3     1.093481576110   121.01797111   180.00323321

---------------------------
INTERNAL COORDINATES (A.U.)
---------------------------
 C      0   0   0     0.000000000000     0.00000000     0.00000000
 C      1   0   0     2.604389144602     0.00000000     0.00000000
 C      2   1   0     2.644130275933   120.27863296     0.00000000
 C      3   2   1     2.721435745699   120.55972588     0.00000000
 C      4   3   2     2.619736304108   119.58944192     0.00000000
 C      5   4   3     2.659064040424   119.75470037     0.00000000
 N      6   5   4     2.520164796640   121.36742395   180.03512449
 H      7   6   5     1.923758771446   121.24192418     0.00000000
 H      7   6   5     1.922265618647   121.48394934   179.98707540
 H      5   4   3     2.063846441177   118.92001316   180.01247886
 O      4   3   2     2.481690848712   122.98689936   179.97808942
 C     11   4   3     2.684183456789   122.17725942     0.22907155
 H     12  11   4     2.074508494159   105.55985576   179.78303419
 H     12  11   4     2.084763947573   110.89266531    61.51681595
 H     12  11   4     2.084808737461   110.88551253   298.04044682
 H      3   2   1     2.063071507133   119.36434198   179.97910752
 H      2   1   3     2.065074405886   120.14483111   179.99213978
 H      1   2   3     2.066380711336   121.01797111   180.00323321

---------------------
BASIS SET INFORMATION
---------------------
There are 4 groups of distinct atoms

 Group   1 Type C   : 19s6p3d2f contracted to 5s4p3d2f pattern {88111/3111/111/11}
 Group   2 Type N   : 19s6p3d2f contracted to 5s4p3d2f pattern {88111/3111/111/11}
 Group   3 Type H   : 6s3p2d contracted to 4s3p2d pattern {3111/111/11}
 Group   4 Type O   : 19s6p3d2f contracted to 5s4p3d2f pattern {88111/3111/111/11}

Atom   0C    basis set group =>   1
Atom   1C    basis set group =>   1
Atom   2C    basis set group =>   1
Atom   3C    basis set group =>   1
Atom   4C    basis set group =>   1
Atom   5C    basis set group =>   1
Atom   6N    basis set group =>   2
Atom   7H    basis set group =>   3
Atom   8H    basis set group =>   3
Atom   9H    basis set group =>   3
Atom  10O    basis set group =>   4
Atom  11C    basis set group =>   1
Atom  12H    basis set group =>   3
Atom  13H    basis set group =>   3
Atom  14H    basis set group =>   3
Atom  15H    basis set group =>   3
Atom  16H    basis set group =>   3
Atom  17H    basis set group =>   3
---------------------------------
AUXILIARY/J BASIS SET INFORMATION
---------------------------------
There are 4 groups of distinct atoms

 Group   1 Type C   : 12s5p4d2f1g contracted to 6s4p3d1f1g pattern {711111/2111/211/2/1}
 Group   2 Type N   : 12s5p4d2f1g contracted to 6s4p3d1f1g pattern {711111/2111/211/2/1}
 Group   3 Type H   : 5s2p1d contracted to 3s1p1d pattern {311/2/1}
 Group   4 Type O   : 12s5p4d2f1g contracted to 6s4p3d1f1g pattern {711111/2111/211/2/1}

Atom   0C    basis set group =>   1
Atom   1C    basis set group =>   1
Atom   2C    basis set group =>   1
Atom   3C    basis set group =>   1
Atom   4C    basis set group =>   1
Atom   5C    basis set group =>   1
Atom   6N    basis set group =>   2
Atom   7H    basis set group =>   3
Atom   8H    basis set group =>   3
Atom   9H    basis set group =>   3
Atom  10O    basis set group =>   4
Atom  11C    basis set group =>   1
Atom  12H    basis set group =>   3
Atom  13H    basis set group =>   3
Atom  14H    basis set group =>   3
Atom  15H    basis set group =>   3
Atom  16H    basis set group =>   3
Atom  17H    basis set group =>   3


           ************************************************************
           *        Program running with 4 parallel MPI-processes     *
           *              working on a common directory               *
           ************************************************************
------------------------------------------------------------------------------
                             ORCA STARTUP CALCULATIONS
                           -- RI-GTO INTEGRALS CHOSEN --
------------------------------------------------------------------------------
------------------------------------------------------------------------------
                   ___                                                        
                  /   \      - P O W E R E D   B Y -                         
                 /     \                                                     
                 |  |  |   _    _      __       _____    __    __             
                 |  |  |  | |  | |    /  \     |  _  \  |  |  /  |          
                  \  \/   | |  | |   /    \    | | | |  |  | /  /          
                 / \  \   | |__| |  /  /\  \   | |_| |  |  |/  /          
                |  |  |   |  __  | /  /__\  \  |    /   |      \           
                |  |  |   | |  | | |   __   |  |    \   |  |\   \          
                \     /   | |  | | |  |  |  |  | |\  \  |  | \   \       
                 \___/    |_|  |_| |__|  |__|  |_| \__\ |__|  \__/        
                                                                              
                      - O R C A' S   B I G   F R I E N D -                    
                                      &                                       
                       - I N T E G R A L  F E E D E R -                       
                                                                              
 v1 FN, 2020, v2 2021, v3 2022-2024                                           
------------------------------------------------------------------------------


----------------------
SHARK INTEGRAL PACKAGE
----------------------

Number of atoms                             ...     18
Number of basis functions                   ...    675
Number of shells                            ...    261
Maximum angular momentum                    ...      3
Integral batch strategy                     ... SHARK/LIBINT Hybrid
RI-J (if used) integral strategy            ... SPLIT-RIJ (Revised 2003 algorithm where possible)
Printlevel                                  ...      1
Contraction scheme used                     ... PARTIAL GENERAL contraction
Prescreening option                         ... SCHWARTZ
   Thresh                                   ... 2.500e-11
   Tcut                                     ... 2.500e-12
   Tpresel                                  ... 2.500e-12 
Coulomb Range Separation                    ... NOT USED
Exchange Range Separation                   ... NOT USED
Multipole approximations                    ... NOT USED
Finite Nucleus Model                        ... NOT USED
CABS basis                                  ... NOT available
Auxiliary Coulomb fitting basis             ... AVAILABLE
   # of basis functions in Aux-J            ...    540
   # of shells in Aux-J                     ...    180
   Maximum angular momentum in Aux-J        ...      4
Auxiliary J/K fitting basis                 ... NOT available
Auxiliary Correlation fitting basis         ... NOT available
Auxiliary 'external' fitting basis          ... NOT available

Checking pre-screening integrals            ... done (  0.3 sec) Dimension = 261
Save PGC pre-screening integrals            ... done (  0.3 sec) Dimension = 261
Calculate PGC overlap integrals             ... done (  0.4 sec) Dimension = 207
Calculating pre-screening integrals (ORCA)  ... done (  0.6 sec) Dimension = 207
Check shell pair data                       ... done (  0.1 sec)
Shell pair information
Shell pair cut-off parameter TPreSel        ...   2.5e-12
Total number of shell pairs                 ...     34191
Shell pairs after pre-screening             ...     28696
Total number of primitive shell pairs       ...     44307
Primitive shell pairs kept                  ...     34521
          la=0 lb=0:   6525 shell pairs
          la=1 lb=0:   7333 shell pairs
          la=1 lb=1:   1878 shell pairs
          la=2 lb=0:   5178 shell pairs
          la=2 lb=1:   2620 shell pairs
          la=2 lb=2:    952 shell pairs
          la=3 lb=0:   2189 shell pairs
          la=3 lb=1:   1081 shell pairs
          la=3 lb=2:    771 shell pairs
          la=3 lb=3:    169 shell pairs

Calculating one electron integrals          ... done (  0.0 sec)
Calculating RI/J V-Matrix + Cholesky decomp.... done (  0.1 sec)
Calculating Nuclear repulsion               ... done (  0.0 sec) ENN=    426.182925624687 Eh

Diagonalization of the overlap matrix:
Smallest eigenvalue                        ... 6.667e-07
Time for diagonalization                   ...    0.044 sec
Threshold for overlap eigenvalues          ... 1.000e-07
Number of eigenvalues below threshold      ... 0

IMPORTANT:
Smallest eigenvalue of S below the DiffSThresh (1.000e-06) while
Thresh>1e-12 and/or TCut>1e-13! In order to avoid SCF convergence issues,
Thresh will be set to at least 1e-12 and TCut to at least 1e-13.
This can be turned off by adding %SCF DiffSThresh -1 END to the input.

Time for construction of square roots      ...    0.054 sec
Total time needed                          ...    0.139 sec

-------------------
DFT GRID GENERATION
-------------------

General Integration Accuracy     IntAcc      ... 4.388
Radial Grid Type                 RadialGrid  ... OptM3 with GC (2021)
Angular Grid (max. ang.)         AngularGrid ... 4 (Lebedev-302)
Angular grid pruning method      GridPruning ... 4 (adaptive)
Weight generation scheme         WeightScheme... mBecke (2022)
Basis function cutoff            BFCut       ... 1.0000e-11
Integration weight cutoff        WCut        ... 1.0000e-14
Partially contracted basis set               ... off
Rotationally invariant grid construction     ... off
Angular grids for H and He will be reduced by one unit
Diffuse basis detected: some atoms will have their outermost
                        angular grid increased by 1.

Total number of grid points                  ...    87236
Total number of batches                      ...     1371
Average number of points per batch           ...       63
Average number of grid points per atom       ...     4846

---------------------
SHARK GRID GENERATION
---------------------

General Integration Accuracy     IntAcc      ... 4.388
Radial Grid Type                 RadialGrid  ... OptM3 with GC (2021)
Angular Grid (max. ang.)         AngularGrid ... 4 (Lebedev-302)
Angular grid pruning method      GridPruning ... 4 (adaptive)
Weight generation scheme         WeightScheme... mBecke (2022)
Basis function cutoff            BFCut       ... 1.0000e-11
Integration weight cutoff        WCut        ... 1.0000e-14
Partially contracted basis set               ... off
Rotationally invariant grid construction     ... off
Angular grids for H and He will be reduced by one unit
Diffuse basis detected: some atoms will have their outermost
                        angular grid increased by 1.
Steep s-basis detected: some atoms will have their radial
                        grid points doubled.

Total number of grid points                  ...   144109
Total number of batches                      ...     2259
Average number of points per batch           ...       63
Average number of grid points per atom       ...     8006

--------------------
COSX GRID GENERATION
--------------------

GRIDX 1
-------
General Integration Accuracy     IntAcc      ... 3.816
Radial Grid Type                 RadialGrid  ... OptM3 with GC (2021)
Angular Grid (max. ang.)         AngularGrid ... 1 (Lebedev-50)
Angular grid pruning method      GridPruning ... 4 (adaptive)
Weight generation scheme         WeightScheme... mBecke (2022)
Basis function cutoff            BFCut       ... 1.0000e-11
Integration weight cutoff        WCut        ... 1.0000e-14
Partially contracted basis set               ... on
Rotationally invariant grid construction     ... off
Angular grids for H and He will be reduced by one unit
Diffuse basis detected: some atoms will have their outermost
                        angular grid increased by 1.

Total number of grid points                  ...    10939
Total number of batches                      ...       96
Average number of points per batch           ...      113
Average number of grid points per atom       ...      608
UseSFitting                                  ... on

GRIDX 2
-------
General Integration Accuracy     IntAcc      ... 4.020
Radial Grid Type                 RadialGrid  ... OptM3 with GC (2021)
Angular Grid (max. ang.)         AngularGrid ... 2 (Lebedev-110)
Angular grid pruning method      GridPruning ... 4 (adaptive)
Weight generation scheme         WeightScheme... mBecke (2022)
Basis function cutoff            BFCut       ... 1.0000e-11
Integration weight cutoff        WCut        ... 1.0000e-14
Partially contracted basis set               ... on
Rotationally invariant grid construction     ... off
Angular grids for H and He will be reduced by one unit
Diffuse basis detected: some atoms will have their outermost
                        angular grid increased by 1.

Total number of grid points                  ...    26477
Total number of batches                      ...      215
Average number of points per batch           ...      123
Average number of grid points per atom       ...     1471
UseSFitting                                  ... on

GRIDX 3
-------
General Integration Accuracy     IntAcc      ... 4.338
Radial Grid Type                 RadialGrid  ... OptM3 with GC (2021)
Angular Grid (max. ang.)         AngularGrid ... 3 (Lebedev-194)
Angular grid pruning method      GridPruning ... 4 (adaptive)
Weight generation scheme         WeightScheme... mBecke (2022)
Basis function cutoff            BFCut       ... 1.0000e-11
Integration weight cutoff        WCut        ... 1.0000e-14
Partially contracted basis set               ... on
Rotationally invariant grid construction     ... off
Angular grids for H and He will be reduced by one unit
Diffuse basis detected: some atoms will have their outermost
                        angular grid increased by 1.

Total number of grid points                  ...    58958
Total number of batches                      ...      470
Average number of points per batch           ...      125
Average number of grid points per atom       ...     3275
UseSFitting                                  ... on
Initializing property integral containers    ... done (  0.2 sec)

SHARK setup successfully completed in   7.8 seconds

Maximum memory used throughout the entire STARTUP-calculation: 74.0 MB


           ************************************************************
           *        Program running with 4 parallel MPI-processes     *
           *              working on a common directory               *
           ************************************************************
-------------------------------------------------------------------------------
                                 ORCA GUESS
                   Start orbitals & Density for SCF / CASSCF
-------------------------------------------------------------------------------

------------
SCF SETTINGS
------------
Hamiltonian:
 Density Functional     Method          .... DFT(GTOs)
 Exchange Functional    Exchange        .... B88
   X-Alpha parameter    XAlpha          ....  0.666667
   Becke's b parameter  XBeta           ....  0.004200
 Correlation Functional Correlation     .... LYP
 LDA part of GGA corr.  LDAOpt          .... VWN-5
 Gradients option       PostSCFGGA      .... off
 Hybrid DFT is turned on
   Fraction HF Exchange ScalHFX         ....  0.200000
   Scaling of DF-GGA-X  ScalDFX         ....  0.720000
   Scaling of DF-GGA-C  ScalDFC         ....  0.810000
   Scaling of DF-LDA-C  ScalLDAC        ....  1.000000
   Perturbative correction              ....  0.000000
   NL short-range parameter             ....  4.800000
 RI-approximation to the Coulomb term is turned on
   Number of AuxJ basis functions       .... 540
   RIJ-COSX (HFX calculated with COS-X)).... on


General Settings:
 Integral files         IntName         .... cs_rporg_070_ox_solv_02
 Hartree-Fock type      HFTyp           .... UHF
 Total Charge           Charge          ....    1
 Multiplicity           Mult            ....    2
 Number of Electrons    NEL             ....   65
 Basis Dimension        Dim             ....  621
 Nuclear Repulsion      ENuc            ....    426.1829256247 Eh

Convergence Acceleration:
 AO-DIIS                CNVDIIS         .... on
   Start iteration      DIISMaxIt       ....     0
   Startup error        DIISStart       ....  0.200000
   # of expansion vecs  DIISMaxEq       ....     5
   Bias factor          DIISBfac        ....   1.050
   Max. coefficient     DIISMaxC        ....  10.000
 MO-DIIS                CNVKDIIS        .... off
 Trust-Rad. Augm. Hess. CNVTRAH         .... auto
   Auto Start mean grad. ratio tolernc. ....  1.125000
   Auto Start start iteration           ....    50
   Auto Start num. interpolation iter.  ....    10
   Max. Number of Micro iterations      ....    24
   Max. Number of Macro iterations      .... Maxiter - #DIIS iter
   Number of Davidson start vectors     ....     2
   Converg. threshold    (grad. norm)   ....   1.000e-05
   Grad. Scal. Fac. for Micro threshold ....   0.100
   Minimum threshold for Micro iter.    ....   1.000e-02
   NR start threshold (gradient norm)   ....   1.000e-04
   Initial trust radius                 ....   0.400
   Minimum AH scaling param. (alpha)    ....   1.000
   Maximum AH scaling param. (alpha)    .... 1000.000
   Quad. conv. algorithm                .... NR
   White noise on init. David. guess    .... on
   Maximum white noise                  ....   0.010
   Pseudo random numbers                .... off
   Inactive MOs                         .... canonical
   Orbital update algorithm             .... Taylor
   Preconditioner                       .... Diag
   Full preconditioner red. dimension   ....   250
 SOSCF                  CNVSOSCF        .... on
   Start iteration      SOSCFMaxIt      ....   150
   Startup grad/error   SOSCFStart      ....  0.001000
   Hessian update       SOSCFHessUp     .... L-BFGS
 Level Shifting         CNVShift        .... on
   Level shift para.    LevelShift      ....    0.2500
   Turn off err/grad.   ShiftErr        ....    0.0000
 Zerner damping         CNVZerner       .... off
 Static damping         CNVDamp         .... on
   Fraction old density DampFac         ....    0.8500
   Max. Damping (<1)    DampMax         ....    0.9800
   Min. Damping (>=0)   DampMin         ....    0.0000
   Turn off err/grad.   DampErr         ....    0.0300

SCF Procedure:
 Maximum # iterations   MaxIter         ....  1500
 SCF integral mode      SCFMode         .... Direct
   Integral package                     .... SHARK and LIBINT hybrid scheme
 Reset frequency        DirectResetFreq ....    20
 Integral Threshold     Thresh          ....  1.000e-12 Eh
 Primitive CutOff       TCut            ....  1.000e-13 Eh

Convergence Tolerance:
 Convergence Check Mode ConvCheckMode   .... Total+1el-Energy
 Convergence forced     ConvForced      .... 0
 Energy Change          TolE            ....  1.000e-08 Eh
 1-El. energy change                    ....  1.000e-05 Eh
 Orbital Gradient       TolG            ....  1.000e-05
 Orbital Rotation angle TolX            ....  1.000e-05
 DIIS Error             TolErr          ....  5.000e-07

------------------------------
INITIAL GUESS: MODEL POTENTIAL
------------------------------
Loading Hartree-Fock densities                     ... done
Calculating cut-offs                               ... done
Initializing the effective Hamiltonian             ... done
Setting up the integral package (SHARK)            ... done
Starting the Coulomb interaction                   ... done (   0.3 sec)
Making the grid                                    ... done (   0.3 sec)
Mapping shells                                     ... done
Starting the XC term evaluation                    ... done (   0.6 sec)
  promolecular density results
     # of electrons  =     65.991502699
     EX              =    -53.460799903
     EC              =     -2.220269032
     EX+EC           =    -55.681068934
Transforming the Hamiltonian                       ... done (   0.1 sec)
Diagonalizing the Hamiltonian                      ... done (   0.0 sec)
Back transforming the eigenvectors                 ... done (   0.1 sec)
Now organizing SCF variables                       ... done
                      ------------------
                      INITIAL GUESS DONE (   1.7 sec)
                      ------------------
             **** ENERGY FILE WAS UPDATED (cs_rporg_070_ox_solv_02.en.tmp) ****
Finished Guess after   2.5 sec
Maximum memory used throughout the entire GUESS-calculation: 52.1 MB


           ************************************************************
           *        Program running with 4 parallel MPI-processes     *
           *              working on a common directory               *
           ************************************************************

-------------------------------------------------------------------------------------------
                                      ORCA LEAN-SCF
                              memory conserving SCF solver
-------------------------------------------------------------------------------------------

--------------------
CPCM SOLVATION MODEL
--------------------
CPCM parameters:
  Epsilon                                         ...      35.6880
  Refrac                                          ...       1.3442
  Rsolv                                           ...       2.1900
  Surface type                                    ...    GEPOL SES
  Discretization scheme                           ... Constant num. charges
  Epsilon function type                           ...         CPCM
Solvent:                                          ... ACETONITRILE
SMD-CDS solvent descriptors:
  Soln                                            ...       1.3442
  Soln25                                          ...       1.3416
  Sola                                            ...       0.0700
  Solb                                            ...       0.3200
  Solg                                            ...      41.2500
  Solc                                            ...       0.0000
  Solh                                            ...       0.0000
Radii:
  Scheme                                          ... Element-dependent radii
  Radius for C  used is    3.4960 Bohr (=   1.8500 Ang.)
  Radius for N  used is    3.5716 Bohr (=   1.8900 Ang.)
  Radius for H  used is    2.2677 Bohr (=   1.2000 Ang.)
  Radius for O  used is    4.0969 Bohr (=   2.1680 Ang.)
Calculating surface                               ...        done! (  0.0s)
Cavity surface points                             ...          578
Cavity Volume                                     ...    1002.5209
Cavity Surface-area                               ...     579.0440
Calculating surface distance matrix               ...        done! (  0.0s)
Performing Cholesky decomposition & store         ...        done! (  0.0s)
Overall time for CPCM initialization              ...                 0.1s

----------------------------------------D-I-I-S--------------------------------------------
Iteration    Energy (Eh)           Delta-E    RMSDP     MaxDP     DIISErr   Damp  Time(sec)
-------------------------------------------------------------------------------------------
               ***  Starting incremental Fock matrix formation  ***
    1    -401.7009497020482627     0.00e+00  3.86e-04  2.96e-02  9.97e-02  0.850  17.6
Warning: op=1 Small HOMO/LUMO gap (   0.065) - skipping pre-diagonalization
         Will do a full diagonalization
    2    -401.7418365566277885    -4.09e-02  3.66e-04  2.71e-02  7.41e-02  0.850  11.1
                               ***Turning on AO-DIIS***
    3    -401.7694269546678356    -2.76e-02  2.52e-04  1.93e-02  5.13e-02  0.850  10.6
    4    -401.7877359505317258    -1.83e-02  2.01e-04  1.54e-02  4.18e-02  0.850  10.3
    5    -401.8012373810994973    -1.35e-02  1.69e-04  1.33e-02  3.57e-02  0.850  11.2
    6    -401.8119683628903545    -1.07e-02  1.44e-04  1.18e-02  3.07e-02  0.850  10.4
    7    -401.8207998245106296    -8.83e-03  1.23e-04  1.04e-02  2.60e-02  0.850  10.1
    8    -401.8281107198718587    -7.31e-03  6.93e-04  5.92e-02  2.17e-02  0.000  10.9
    9    -401.8654462536822507    -3.73e-02  1.93e-05  1.12e-03  3.06e-03  0.000  10.3
   10    -401.8655227595644988    -7.65e-05  1.02e-05  5.68e-04  1.08e-03  0.000  10.5
                              *** Initializing SOSCF ***
---------------------------------------S-O-S-C-F--------------------------------------
Iteration    Energy (Eh)           Delta-E    RMSDP     MaxDP     MaxGrad    Time(sec)
--------------------------------------------------------------------------------------
   11    -401.8655493457402486    -2.66e-05  9.62e-06  5.65e-04  6.17e-04    10.2
               *** Restarting incremental Fock matrix formation ***
   12    -401.8655612519648344    -1.19e-05  7.09e-05  6.26e-03  5.11e-04    17.3
   13    -401.8655724179981803    -1.12e-05  9.67e-05  8.20e-03  3.84e-04    14.7
   14    -401.8655785649872882    -6.15e-06  8.42e-05  7.03e-03  3.38e-04    16.6
   15    -401.8655813700189015    -2.81e-06  2.56e-05  2.14e-03  1.04e-04    15.2
   16    -401.8655815698451192    -2.00e-07  1.46e-05  1.23e-03  7.58e-05    14.1
   17    -401.8655819291300872    -3.59e-07  5.62e-06  5.05e-04  2.84e-05    13.9
   18    -401.8655819760237478    -4.69e-08  1.64e-06  1.57e-04  2.30e-05    13.4
   19    -401.8655820030286918    -2.70e-08  1.41e-06  1.08e-04  1.27e-05    13.3
   20    -401.8655820071791709    -4.15e-09  2.55e-07  1.72e-05  6.12e-06    12.4
                 **** Energy Check signals convergence ****

               *****************************************************
               *                     SUCCESS                       *
               *           SCF CONVERGED AFTER  20 CYCLES          *
               *****************************************************

Recomputing exchange energy using gridx3       ... done (   23.805 sec)
Old exchange energy                            :    -10.808030732 Eh
New exchange energy                            :    -10.808080506 Eh
Exchange energy change after final integration :     -0.000049774 Eh
Total energy after final integration           :   -401.865631781 Eh

SMD CDS free energy correction energy :                -0.37567     Kcal/mol
Total Energy after SMD CDS correction =              -401.866230454 Eh
             **** ENERGY FILE WAS UPDATED (cs_rporg_070_ox_solv_02.en.tmp) ****

----------------
TOTAL SCF ENERGY
----------------

Total Energy       :       -401.86623045375694 Eh          -10935.33607 eV

Components:
Nuclear Repulsion  :        426.18292562468667 Eh           11597.02699 eV
Electronic Energy  :       -827.95633457569897 Eh          -22529.83726 eV
One Electron Energy:      -1376.57517567733930 Eh          -37458.51488 eV
Two Electron Energy:        548.61884110164033 Eh           14928.67763 eV
CPCM Dielectric    :         -0.09217305616688 Eh              -2.50816 eV
SMD CDS (Gcds)     :         -0.00059867227577 Eh              -0.01629 eV

Virial components:
Potential Energy   :       -801.22531375525546 Eh          -21802.44920 eV
Kinetic Energy     :        399.35908330149857 Eh           10867.11313 eV
Virial Ratio       :          2.00627792695118

DFT components:
N(Alpha)           :       33.000021998120 electrons
N(Beta)            :       32.000020585104 electrons
N(Total)           :       65.000042583224 electrons
E(X)               :      -42.963901341153 Eh       
E(C)               :       -2.586898500835 Eh       
E(XC)              :      -45.550799841988 Eh       

CPCM Solvation Model Properties:
Surface-charge          :         -1.03319504725111
Corrected charge        :         -1.00000000000000
Outlying charge corr.   :          0.00008043031098 Eh               0.00219 eV
Free-energy (cav+disp)  :         -0.00059867227577 Eh              -0.01629 eV

---------------
SCF CONVERGENCE
---------------

  Last Energy change         ...    4.1505e-09  Tolerance :   1.0000e-08
  Last MAX-Density change    ...    1.7156e-05  Tolerance :   1.0000e-07
  Last RMS-Density change    ...    2.5542e-07  Tolerance :   5.0000e-09
  Last DIIS Error            ...    6.1668e-04  Tolerance :   5.0000e-07
  Last Orbital Gradient      ...    6.1244e-06  Tolerance :   1.0000e-05
  Last Orbital Rotation      ...    2.3572e-05  Tolerance :   1.0000e-05


----------------------
UHF SPIN CONTAMINATION
----------------------

Warning: in a DFT calculation there is little theoretical justification to 
         calculate <S**2> as in Hartree-Fock theory. We will do it anyways
         but you should keep in mind that the values have only limited relevance

Expectation value of <S**2>     :     0.773629
Ideal value S*(S+1) for S=0.5   :     0.750000
Deviation                       :     0.023629

----------------
ORBITAL ENERGIES
----------------
                 SPIN UP ORBITALS
  NO   OCC          E(Eh)            E(eV) 
   0   1.0000     -19.189868      -522.1829 
   1   1.0000     -14.397476      -391.7752 
   2   1.0000     -10.278868      -279.7022 
   3   1.0000     -10.276994      -279.6512 
   4   1.0000     -10.229522      -278.3594 
   5   1.0000     -10.229053      -278.3467 
   6   1.0000     -10.224775      -278.2303 
   7   1.0000     -10.209636      -277.8183 
   8   1.0000     -10.200726      -277.5759 
   9   1.0000      -1.109653       -30.1952 
  10   1.0000      -0.988205       -26.8904 
  11   1.0000      -0.878204       -23.8971 
  12   1.0000      -0.794613       -21.6225 
  13   1.0000      -0.768900       -20.9228 
  14   1.0000      -0.723333       -19.6829 
  15   1.0000      -0.653500       -17.7826 
  16   1.0000      -0.633199       -17.2302 
  17   1.0000      -0.570116       -15.5137 
  18   1.0000      -0.566891       -15.4259 
  19   1.0000      -0.521518       -14.1912 
  20   1.0000      -0.511495       -13.9185 
  21   1.0000      -0.495691       -13.4884 
  22   1.0000      -0.491577       -13.3765 
  23   1.0000      -0.456252       -12.4153 
  24   1.0000      -0.442517       -12.0415 
  25   1.0000      -0.431912       -11.7529 
  26   1.0000      -0.408907       -11.1269 
  27   1.0000      -0.394402       -10.7322 
  28   1.0000      -0.386455       -10.5160 
  29   1.0000      -0.348716        -9.4890 
  30   1.0000      -0.345588        -9.4039 
  31   1.0000      -0.265020        -7.2116 
  32   1.0000      -0.259521        -7.0619 
  33   0.0000      -0.038859        -1.0574 
  34   0.0000      -0.033764        -0.9188 
  35   0.0000      -0.008481        -0.2308 
  36   0.0000       0.001760         0.0479 
  37   0.0000       0.007746         0.2108 
  38   0.0000       0.021268         0.5787 
  39   0.0000       0.023489         0.6392 
  40   0.0000       0.024380         0.6634 
  41   0.0000       0.031638         0.8609 
  42   0.0000       0.046805         1.2736 
  43   0.0000       0.050013         1.3609 

                 SPIN DOWN ORBITALS
  NO   OCC          E(Eh)            E(eV) 
   0   1.0000     -19.189485      -522.1724 
   1   1.0000     -14.390520      -391.5860 
   2   1.0000     -10.279448      -279.7180 
   3   1.0000     -10.276563      -279.6395 
   4   1.0000     -10.229538      -278.3599 
   5   1.0000     -10.222710      -278.1741 
   6   1.0000     -10.219694      -278.0920 
   7   1.0000     -10.211731      -277.8753 
   8   1.0000     -10.199811      -277.5510 
   9   1.0000      -1.108929       -30.1755 
  10   1.0000      -0.976385       -26.5688 
  11   1.0000      -0.870165       -23.6784 
  12   1.0000      -0.792381       -21.5618 
  13   1.0000      -0.755978       -20.5712 
  14   1.0000      -0.718964       -19.5640 
  15   1.0000      -0.649616       -17.6769 
  16   1.0000      -0.629614       -17.1327 
  17   1.0000      -0.568695       -15.4750 
  18   1.0000      -0.562953       -15.3187 
  19   1.0000      -0.517527       -14.0826 
  20   1.0000      -0.508344       -13.8327 
  21   1.0000      -0.492467       -13.4007 
  22   1.0000      -0.488693       -13.2980 
  23   1.0000      -0.455663       -12.3992 
  24   1.0000      -0.430390       -11.7115 
  25   1.0000      -0.421096       -11.4586 
  26   1.0000      -0.406209       -11.0535 
  27   1.0000      -0.392561       -10.6821 
  28   1.0000      -0.372723       -10.1423 
  29   1.0000      -0.347453        -9.4547 
  30   1.0000      -0.324886        -8.8406 
  31   1.0000      -0.254255        -6.9186 
  32   0.0000      -0.173260        -4.7146 
  33   0.0000      -0.027583        -0.7506 
  34   0.0000      -0.012530        -0.3410 
  35   0.0000      -0.007971        -0.2169 
  36   0.0000       0.002205         0.0600 
  37   0.0000       0.007795         0.2121 
  38   0.0000       0.021546         0.5863 
  39   0.0000       0.023593         0.6420 
  40   0.0000       0.024582         0.6689 
  41   0.0000       0.031990         0.8705 
  42   0.0000       0.047004         1.2790 
*Only the first 10 virtual orbitals were printed.

                    ********************************
                    * MULLIKEN POPULATION ANALYSIS *
                    ********************************

--------------------------------------------
MULLIKEN ATOMIC CHARGES AND SPIN POPULATIONS
--------------------------------------------
   0 C :   -0.552631    0.336623
   1 C :   -0.392925   -0.145043
   2 C :   -0.370635    0.436981
   3 C :    1.064989   -0.037515
   4 C :   -0.876953    0.052389
   5 C :    1.052279    0.067999
   6 N :   -0.401161    0.308323
   7 H :    0.061273   -0.006302
   8 H :    0.070589   -0.005454
   9 H :    0.423364   -0.003090
  10 O :   -0.655252    0.015547
  11 C :   -0.615892    0.002329
  12 H :    0.259695   -0.000060
  13 H :    0.274680   -0.001124
  14 H :    0.274436   -0.001103
  15 H :    0.469264   -0.017467
  16 H :    0.458349    0.006332
  17 H :    0.456528   -0.009366
Sum of atomic charges         :    1.0000000
Sum of atomic spin populations:    1.0000000

-----------------------------------------------------
MULLIKEN REDUCED ORBITAL CHARGES AND SPIN POPULATIONS
-----------------------------------------------------
CHARGE
  0 C s       :     3.860414  s :     3.860414
      pz      :     0.888573  p :     2.626048
      px      :     0.898330
      py      :     0.839145
      dz2     :     0.005654  d :     0.081207
      dxz     :     0.002381
      dyz     :     0.015307
      dx2y2   :    -0.003988
      dxy     :     0.061853
      f0      :     0.000980  f :    -0.015038
      f+1     :     0.000357
      f-1     :    -0.000066
      f+2     :     0.000117
      f-2     :     0.000442
      f+3     :    -0.012746
      f-3     :    -0.004122

  1 C s       :     3.558396  s :     3.558396
      pz      :     0.953377  p :     2.851442
      px      :     0.953204
      py      :     0.944862
      dz2     :    -0.018719  d :    -0.002827
      dxz     :     0.018251
      dyz     :     0.010505
      dx2y2   :    -0.004681
      dxy     :    -0.008183
      f0      :     0.001327  f :    -0.014088
      f+1     :     0.000382
      f-1     :     0.000580
      f+2     :     0.000321
      f-2     :     0.000024
      f+3     :    -0.012676
      f-3     :    -0.004046

  2 C s       :     3.810914  s :     3.810914
      pz      :     0.840150  p :     2.462749
      px      :     0.756149
      py      :     0.866450
      dz2     :    -0.002434  d :     0.114756
      dxz     :     0.001733
      dyz     :    -0.009557
      dx2y2   :     0.005281
      dxy     :     0.119734
      f0      :     0.000627  f :    -0.017784
      f+1     :    -0.000626
      f-1     :    -0.000283
      f+2     :    -0.001455
      f-2     :     0.002027
      f+3     :    -0.022794
      f-3     :     0.004718

  3 C s       :     3.108064  s :     3.108064
      pz      :     0.861002  p :     1.930975
      px      :     0.457924
      py      :     0.612050
      dz2     :    -0.025277  d :    -0.105012
      dxz     :     0.052451
      dyz     :    -0.003574
      dx2y2   :    -0.081258
      dxy     :    -0.047354
      f0      :     0.002849  f :     0.000984
      f+1     :     0.000861
      f-1     :    -0.000290
      f+2     :     0.002350
      f-2     :     0.012603
      f+3     :    -0.010638
      f-3     :    -0.006751

  4 C s       :     4.076521  s :     4.076521
      pz      :     1.034945  p :     2.721374
      px      :     0.642180
      py      :     1.044248
      dz2     :     0.011377  d :     0.110948
      dxz     :     0.031061
      dyz     :     0.005462
      dx2y2   :     0.060659
      dxy     :     0.002390
      f0      :     0.000245  f :    -0.031890
      f+1     :    -0.002193
      f-1     :     0.001171
      f+2     :    -0.001170
      f-2     :     0.001312
      f+3     :    -0.028487
      f-3     :    -0.002769

  5 C s       :     3.139387  s :     3.139387
      pz      :     0.807933  p :     1.932830
      px      :     0.542786
      py      :     0.582110
      dz2     :    -0.024711  d :    -0.068565
      dxz     :     0.048494
      dyz     :     0.012563
      dx2y2   :    -0.062088
      dxy     :    -0.042822
      f0      :     0.002988  f :    -0.055931
      f+1     :    -0.002720
      f-1     :    -0.002193
      f+2     :     0.001913
      f-2     :     0.001339
      f+3     :    -0.042047
      f-3     :    -0.015211

  6 N s       :     3.813415  s :     3.813415
      pz      :     1.407634  p :     3.531999
      px      :     1.043821
      py      :     1.080544
      dz2     :    -0.006046  d :     0.048026
      dxz     :     0.021426
      dyz     :     0.009362
      dx2y2   :     0.011656
      dxy     :     0.011628
      f0      :     0.001052  f :     0.007720
      f+1     :     0.000370
      f-1     :    -0.000289
      f+2     :     0.000583
      f-2     :     0.000810
      f+3     :     0.006420
      f-3     :    -0.001225

  7 H s       :     0.829322  s :     0.829322
      pz      :     0.039646  p :     0.082571
      px      :     0.022611
      py      :     0.020314
      dz2     :     0.001995  d :     0.026834
      dxz     :    -0.000084
      dyz     :     0.010470
      dx2y2   :     0.001641
      dxy     :     0.012811

  8 H s       :     0.821666  s :     0.821666
      pz      :     0.041497  p :     0.080854
      px      :     0.025818
      py      :     0.013540
      dz2     :     0.001907  d :     0.026890
      dxz     :     0.009222
      dyz     :     0.001595
      dx2y2   :     0.010260
      dxy     :     0.003905

  9 H s       :     0.613451  s :     0.613451
      pz      :     0.012487  p :    -0.038469
      px      :    -0.010892
      py      :    -0.040064
      dz2     :    -0.001017  d :     0.001654
      dxz     :     0.000236
      dyz     :     0.004078
      dx2y2   :    -0.000183
      dxy     :    -0.001459

 10 O s       :     4.144078  s :     4.144078
      pz      :     1.723376  p :     4.426931
      px      :     1.129334
      py      :     1.574222
      dz2     :     0.000154  d :     0.077254
      dxz     :     0.024222
      dyz     :     0.009051
      dx2y2   :     0.015849
      dxy     :     0.027978
      f0      :     0.001032  f :     0.006989
      f+1     :     0.000141
      f-1     :     0.000056
      f+2     :     0.000344
      f-2     :     0.001640
      f+3     :     0.004136
      f-3     :    -0.000360

 11 C s       :     3.470908  s :     3.470908
      pz      :     1.142567  p :     2.962989
      px      :     0.781897
      py      :     1.038525
      dz2     :     0.016490  d :     0.157331
      dxz     :     0.018379
      dyz     :     0.058907
      dx2y2   :     0.029069
      dxy     :     0.034486
      f0      :     0.002670  f :     0.024664
      f+1     :     0.001016
      f-1     :     0.003015
      f+2     :     0.005641
      f-2     :     0.000523
      f+3     :     0.010640
      f-3     :     0.001158

 12 H s       :     0.711035  s :     0.711035
      pz      :     0.010803  p :     0.030036
      px      :     0.012077
      py      :     0.007156
      dz2     :    -0.001263  d :    -0.000766
      dxz     :     0.000252
      dyz     :     0.002161
      dx2y2   :    -0.001406
      dxy     :    -0.000510

 13 H s       :     0.695668  s :     0.695668
      pz      :     0.014077  p :     0.027908
      px      :     0.006384
      py      :     0.007447
      dz2     :     0.001130  d :     0.001744
      dxz     :     0.000967
      dyz     :    -0.000574
      dx2y2   :     0.000315
      dxy     :    -0.000094

 14 H s       :     0.695834  s :     0.695834
      pz      :     0.014638  p :     0.027971
      px      :     0.006202
      py      :     0.007132
      dz2     :     0.001023  d :     0.001759
      dxz     :     0.000989
      dyz     :    -0.000524
      dx2y2   :     0.000303
      dxy     :    -0.000033

 15 H s       :     0.561082  s :     0.561082
      pz      :     0.006405  p :    -0.037172
      px      :    -0.012147
      py      :    -0.031430
      dz2     :     0.000062  d :     0.006826
      dxz     :     0.003304
      dyz     :     0.000164
      dx2y2   :     0.002298
      dxy     :     0.000997

 16 H s       :     0.530965  s :     0.530965
      pz      :     0.015078  p :     0.004733
      px      :     0.010962
      py      :    -0.021307
      dz2     :    -0.000550  d :     0.005952
      dxz     :    -0.000073
      dyz     :     0.004400
      dx2y2   :     0.000845
      dxy     :     0.001330

 17 H s       :     0.546102  s :     0.546102
      pz      :     0.009800  p :    -0.006627
      px      :    -0.020395
      py      :     0.003968
      dz2     :    -0.001010  d :     0.003997
      dxz     :     0.003328
      dyz     :     0.000592
      dx2y2   :    -0.000407
      dxy     :     0.001494


SPIN
  0 C s       :    -0.014428  s :    -0.014428
      pz      :     0.312824  p :     0.347332
      px      :     0.013809
      py      :     0.020699
      dz2     :    -0.001914  d :     0.004559
      dxz     :     0.001727
      dyz     :     0.000965
      dx2y2   :     0.003714
      dxy     :     0.000067
      f0      :    -0.000289  f :    -0.000840
      f+1     :    -0.000327
      f-1     :    -0.000317
      f+2     :    -0.000070
      f-2     :    -0.000093
      f+3     :     0.000674
      f-3     :    -0.000418

  1 C s       :     0.001807  s :     0.001807
      pz      :    -0.128389  p :    -0.162645
      px      :    -0.027555
      py      :    -0.006701
      dz2     :     0.000891  d :     0.016425
      dxz     :     0.016416
      dyz     :    -0.002837
      dx2y2   :    -0.002166
      dxy     :     0.004122
      f0      :    -0.000033  f :    -0.000630
      f+1     :     0.000053
      f-1     :     0.000161
      f+2     :     0.000144
      f-2     :     0.000029
      f+3     :    -0.000655
      f-3     :    -0.000329

  2 C s       :    -0.008938  s :    -0.008938
      pz      :     0.387999  p :     0.437220
      px      :     0.021984
      py      :     0.027237
      dz2     :    -0.001797  d :     0.009424
      dxz     :     0.004603
      dyz     :     0.001760
      dx2y2   :    -0.001078
      dxy     :     0.005936
      f0      :    -0.000291  f :    -0.000724
      f+1     :    -0.000444
      f-1     :    -0.000407
      f+2     :     0.000174
      f-2     :     0.000202
      f+3     :     0.000197
      f-3     :    -0.000155

  3 C s       :     0.006813  s :     0.006813
      pz      :    -0.026267  p :    -0.042295
      px      :    -0.007879
      py      :    -0.008149
      dz2     :     0.000750  d :    -0.001595
      dxz     :    -0.008390
      dyz     :     0.004850
      dx2y2   :    -0.000195
      dxy     :     0.001389
      f0      :    -0.000229  f :    -0.000437
      f+1     :     0.000045
      f-1     :     0.000025
      f+2     :     0.001190
      f-2     :    -0.000313
      f+3     :    -0.000978
      f-3     :    -0.000176

  4 C s       :    -0.009544  s :    -0.009544
      pz      :     0.063003  p :     0.062700
      px      :    -0.001284
      py      :     0.000981
      dz2     :    -0.000849  d :    -0.000340
      dxz     :    -0.002093
      dyz     :     0.001936
      dx2y2   :    -0.000060
      dxy     :     0.000726
      f0      :    -0.000129  f :    -0.000426
      f+1     :    -0.000099
      f-1     :    -0.000026
      f+2     :    -0.000461
      f-2     :    -0.000212
      f+3     :     0.000805
      f-3     :    -0.000304

  5 C s       :     0.016995  s :     0.016995
      pz      :     0.040700  p :     0.037815
      px      :    -0.005743
      py      :     0.002858
      dz2     :     0.000639  d :     0.015145
      dxz     :     0.005132
      dyz     :     0.004441
      dx2y2   :     0.002988
      dxy     :     0.001945
      f0      :    -0.000196  f :    -0.001956
      f+1     :     0.000026
      f-1     :     0.000039
      f+2     :     0.000505
      f-2     :     0.000156
      f+3     :    -0.002650
      f-3     :     0.000164

  6 N s       :    -0.003798  s :    -0.003798
      pz      :     0.275544  p :     0.307388
      px      :     0.014803
      py      :     0.017042
      dz2     :    -0.000909  d :     0.004591
      dxz     :     0.002968
      dyz     :     0.001925
      dx2y2   :     0.000981
      dxy     :    -0.000374
      f0      :     0.000184  f :     0.000142
      f+1     :    -0.000209
      f-1     :    -0.000159
      f+2     :     0.000013
      f-2     :    -0.000041
      f+3     :     0.000345
      f-3     :     0.000008

  7 H s       :    -0.013774  s :    -0.013774
      pz      :     0.004790  p :     0.006025
      px      :    -0.000365
      py      :     0.001600
      dz2     :     0.000012  d :     0.001447
      dxz     :    -0.000021
      dyz     :     0.001430
      dx2y2   :     0.000004
      dxy     :     0.000023

  8 H s       :    -0.012046  s :    -0.012046
      pz      :     0.003779  p :     0.005254
      px      :     0.001756
      py      :    -0.000282
      dz2     :     0.000015  d :     0.001338
      dxz     :     0.000808
      dyz     :     0.000439
      dx2y2   :     0.000140
      dxy     :    -0.000065

  9 H s       :    -0.005375  s :    -0.005375
      pz      :     0.001468  p :     0.001849
      px      :     0.000515
      py      :    -0.000134
      dz2     :     0.000032  d :     0.000436
      dxz     :    -0.000017
      dyz     :     0.000330
      dx2y2   :     0.000035
      dxy     :     0.000056

 10 O s       :     0.001050  s :     0.001050
      pz      :     0.013695  p :     0.015027
      px      :     0.000512
      py      :     0.000820
      dz2     :     0.000032  d :    -0.000540
      dxz     :    -0.000185
      dyz     :     0.000353
      dx2y2   :    -0.000287
      dxy     :    -0.000453
      f0      :    -0.000032  f :     0.000010
      f+1     :    -0.000017
      f-1     :     0.000000
      f+2     :     0.000007
      f-2     :     0.000039
      f+3     :     0.000009
      f-3     :     0.000005

 11 C s       :    -0.000858  s :    -0.000858
      pz      :     0.001366  p :     0.000263
      px      :    -0.000892
      py      :    -0.000211
      dz2     :    -0.000042  d :     0.002778
      dxz     :     0.000919
      dyz     :     0.001727
      dx2y2   :     0.000104
      dxy     :     0.000070
      f0      :    -0.000008  f :     0.000146
      f+1     :    -0.000007
      f-1     :    -0.000007
      f+2     :    -0.000018
      f-2     :     0.000181
      f+3     :     0.000019
      f-3     :    -0.000015

 12 H s       :     0.000072  s :     0.000072
      pz      :    -0.000138  p :    -0.000153
      px      :     0.000029
      py      :    -0.000044
      dz2     :     0.000001  d :     0.000022
      dxz     :     0.000026
      dyz     :    -0.000010
      dx2y2   :    -0.000003
      dxy     :     0.000007

 13 H s       :    -0.001008  s :    -0.001008
      pz      :     0.000146  p :    -0.000129
      px      :    -0.000304
      py      :     0.000029
      dz2     :     0.000003  d :     0.000013
      dxz     :    -0.000006
      dyz     :     0.000007
      dx2y2   :     0.000009
      dxy     :     0.000000

 14 H s       :    -0.001002  s :    -0.001002
      pz      :     0.000149  p :    -0.000115
      px      :    -0.000297
      py      :     0.000034
      dz2     :    -0.000001  d :     0.000014
      dxz     :    -0.000005
      dyz     :     0.000006
      dx2y2   :     0.000010
      dxy     :     0.000003

 15 H s       :    -0.028376  s :    -0.028376
      pz      :     0.007399  p :     0.009169
      px      :     0.000418
      py      :     0.001353
      dz2     :     0.000129  d :     0.001740
      dxz     :     0.001077
      dyz     :     0.000305
      dx2y2   :     0.000164
      dxy     :     0.000064

 16 H s       :     0.011494  s :     0.011494
      pz      :    -0.004549  p :    -0.004596
      px      :    -0.000695
      py      :     0.000648
      dz2     :     0.000040  d :    -0.000566
      dxz     :    -0.000099
      dyz     :    -0.000467
      dx2y2   :     0.000028
      dxy     :    -0.000068

 17 H s       :    -0.019412  s :    -0.019412
      pz      :     0.006413  p :     0.008520
      px      :     0.000750
      py      :     0.001357
      dz2     :     0.000069  d :     0.001526
      dxz     :     0.001082
      dyz     :     0.000140
      dx2y2   :     0.000115
      dxy     :     0.000120



                     *******************************
                     * LOEWDIN POPULATION ANALYSIS *
                     *******************************

-------------------------------------------
LOEWDIN ATOMIC CHARGES AND SPIN POPULATIONS
-------------------------------------------
   0 C :    0.287799    0.170242
   1 C :    0.244974    0.050170
   2 C :    0.282295    0.211264
   3 C :   -0.371395    0.058603
   4 C :    0.261287    0.040423
   5 C :   -0.183204    0.113488
   6 N :    0.947256    0.211122
   7 H :   -0.200778    0.028755
   8 H :   -0.206963    0.026400
   9 H :   -0.146522    0.005552
  10 O :    0.618004    0.010658
  11 C :    0.376698    0.001898
  12 H :   -0.162832   -0.000081
  13 H :   -0.152210    0.000547
  14 H :   -0.152128    0.000536
  15 H :   -0.159330    0.047527
  16 H :   -0.146170   -0.010393
  17 H :   -0.136781    0.033289

----------------------------------------------------
LOEWDIN REDUCED ORBITAL CHARGES AND SPIN POPULATIONS
----------------------------------------------------
CHARGE
  0 C s       :     2.489465  s :     2.489465
      pz      :     0.570187  p :     2.243463
      px      :     0.856805
      py      :     0.816471
      dz2     :     0.067276  d :     0.655579
      dxz     :     0.058415
      dyz     :     0.093571
      dx2y2   :     0.215163
      dxy     :     0.221154
      f0      :     0.021353  f :     0.323694
      f+1     :     0.022746
      f-1     :     0.028705
      f+2     :     0.036756
      f-2     :     0.029509
      f+3     :     0.125414
      f-3     :     0.059210

  1 C s       :     2.491029  s :     2.491029
      pz      :     0.590214  p :     2.281559
      px      :     0.850702
      py      :     0.840643
      dz2     :     0.066966  d :     0.660530
      dxz     :     0.099809
      dyz     :     0.037587
      dx2y2   :     0.281717
      dxy     :     0.174451
      f0      :     0.020525  f :     0.321907
      f+1     :     0.031389
      f-1     :     0.019835
      f+2     :     0.012366
      f-2     :     0.045202
      f+3     :     0.133076
      f-3     :     0.059513

  2 C s       :     2.488087  s :     2.488087
      pz      :     0.551730  p :     2.238805
      px      :     0.855940
      py      :     0.831135
      dz2     :     0.068949  d :     0.663789
      dxz     :     0.069166
      dyz     :     0.087556
      dx2y2   :     0.200639
      dxy     :     0.237479
      f0      :     0.021353  f :     0.327024
      f+1     :     0.023654
      f-1     :     0.027715
      f+2     :     0.049817
      f-2     :     0.022055
      f+3     :     0.120749
      f-3     :     0.061681

  3 C s       :     2.460033  s :     2.460033
      pz      :     0.586353  p :     2.206160
      px      :     0.777680
      py      :     0.842127
      dz2     :     0.100044  d :     1.076014
      dxz     :     0.196590
      dyz     :     0.118876
      dx2y2   :     0.317047
      dxy     :     0.343457
      f0      :     0.037729  f :     0.629189
      f+1     :     0.045433
      f-1     :     0.038274
      f+2     :     0.053841
      f-2     :     0.095953
      f+3     :     0.242652
      f-3     :     0.115305

  4 C s       :     2.480260  s :     2.480260
      pz      :     0.645494  p :     2.298595
      px      :     0.821302
      py      :     0.831800
      dz2     :     0.067935  d :     0.627478
      dxz     :     0.110011
      dyz     :     0.038926
      dx2y2   :     0.227304
      dxy     :     0.183301
      f0      :     0.023651  f :     0.332379
      f+1     :     0.034088
      f-1     :     0.020372
      f+2     :     0.026248
      f-2     :     0.040859
      f+3     :     0.120990
      f-3     :     0.066172

  5 C s       :     2.454923  s :     2.454923
      pz      :     0.554353  p :     2.180879
      px      :     0.806806
      py      :     0.819720
      dz2     :     0.093345  d :     0.999718
      dxz     :     0.181699
      dyz     :     0.125787
      dx2y2   :     0.286408
      dxy     :     0.312479
      f0      :     0.033101  f :     0.547683
      f+1     :     0.040103
      f-1     :     0.036105
      f+2     :     0.059316
      f-2     :     0.063178
      f+3     :     0.230401
      f-3     :     0.085480

  6 N s       :     2.634324  s :     2.634324
      pz      :     0.947081  p :     2.909186
      px      :     0.983939
      py      :     0.978166
      dz2     :     0.037856  d :     0.380231
      dxz     :     0.049455
      dyz     :     0.020120
      dx2y2   :     0.165928
      dxy     :     0.106871
      f0      :     0.008833  f :     0.129004
      f+1     :     0.013495
      f-1     :     0.010271
      f+2     :     0.005789
      f-2     :     0.014773
      f+3     :     0.049432
      f-3     :     0.026411

  7 H s       :     0.565966  s :     0.565966
      pz      :     0.103068  p :     0.366970
      px      :     0.085752
      py      :     0.178150
      dz2     :     0.029052  d :     0.267842
      dxz     :     0.002042
      dyz     :     0.082426
      dx2y2   :     0.060811
      dxy     :     0.093511

  8 H s       :     0.564367  s :     0.564367
      pz      :     0.105721  p :     0.372027
      px      :     0.156026
      py      :     0.110281
      dz2     :     0.029518  d :     0.270569
      dxz     :     0.070873
      dyz     :     0.014199
      dx2y2   :     0.079389
      dxy     :     0.076590

  9 H s       :     0.642538  s :     0.642538
      pz      :     0.078440  p :     0.289378
      px      :     0.072299
      py      :     0.138640
      dz2     :     0.023142  d :     0.214605
      dxz     :     0.003945
      dyz     :     0.061518
      dx2y2   :     0.049520
      dxy     :     0.076480

 10 O s       :     2.960571  s :     2.960571
      pz      :     1.333918  p :     3.824042
      px      :     1.153940
      py      :     1.336184
      dz2     :     0.041591  d :     0.467713
      dxz     :     0.104031
      dyz     :     0.033569
      dx2y2   :     0.147877
      dxy     :     0.140645
      f0      :     0.012757  f :     0.129669
      f+1     :     0.011939
      f-1     :     0.004402
      f+2     :     0.005956
      f-2     :     0.023397
      f+3     :     0.050775
      f-3     :     0.020443

 11 C s       :     2.464935  s :     2.464935
      pz      :     0.815372  p :     2.219812
      px      :     0.632866
      py      :     0.771574
      dz2     :     0.098539  d :     0.638064
      dxz     :     0.089571
      dyz     :     0.133822
      dx2y2   :     0.105069
      dxy     :     0.211064
      f0      :     0.034333  f :     0.300491
      f+1     :     0.031705
      f-1     :     0.027642
      f+2     :     0.033144
      f-2     :     0.034018
      f+3     :     0.087690
      f-3     :     0.051958

 12 H s       :     0.647599  s :     0.647599
      pz      :     0.088502  p :     0.295355
      px      :     0.092879
      py      :     0.113974
      dz2     :     0.016392  d :     0.219879
      dxz     :     0.032189
      dyz     :     0.059120
      dx2y2   :     0.067273
      dxy     :     0.044905

 13 H s       :     0.636445  s :     0.636445
      pz      :     0.129764  p :     0.299787
      px      :     0.065130
      py      :     0.104893
      dz2     :     0.075671  d :     0.215978
      dxz     :     0.031923
      dyz     :     0.050328
      dx2y2   :     0.019832
      dxy     :     0.038224

 14 H s       :     0.636527  s :     0.636527
      pz      :     0.132297  p :     0.299698
      px      :     0.064850
      py      :     0.102552
      dz2     :     0.075302  d :     0.215903
      dxz     :     0.034438
      dyz     :     0.052333
      dx2y2   :     0.017500
      dxy     :     0.036331

 15 H s       :     0.633627  s :     0.633627
      pz      :     0.070468  p :     0.306924
      px      :     0.138242
      py      :     0.098214
      dz2     :     0.024355  d :     0.218778
      dxz     :     0.039946
      dyz     :     0.018055
      dx2y2   :     0.076418
      dxy     :     0.060003

 16 H s       :     0.651759  s :     0.651759
      pz      :     0.074182  p :     0.286867
      px      :     0.072560
      py      :     0.140125
      dz2     :     0.022634  d :     0.207545
      dxz     :     0.003244
      dyz     :     0.057030
      dx2y2   :     0.045422
      dxy     :     0.079215

 17 H s       :     0.644533  s :     0.644533
      pz      :     0.071749  p :     0.286097
      px      :     0.131226
      py      :     0.083122
      dz2     :     0.023110  d :     0.206150
      dxz     :     0.047484
      dyz     :     0.010395
      dx2y2   :     0.066191
      dxy     :     0.058969


SPIN
  0 C s       :     0.004841  s :     0.004841
      pz      :     0.168345  p :     0.175391
      px      :     0.004053
      py      :     0.002993
      dz2     :    -0.001251  d :    -0.009541
      dxz     :    -0.004109
      dyz     :    -0.001898
      dx2y2   :    -0.000885
      dxy     :    -0.001399
      f0      :    -0.002043  f :    -0.000449
      f+1     :    -0.000355
      f-1     :    -0.000312
      f+2     :     0.003224
      f-2     :     0.000085
      f+3     :    -0.000499
      f-3     :    -0.000548

  1 C s       :    -0.002764  s :    -0.002764
      pz      :    -0.055247  p :    -0.064139
      px      :    -0.006142
      py      :    -0.002750
      dz2     :     0.000480  d :     0.078694
      dxz     :     0.071636
      dyz     :     0.003380
      dx2y2   :     0.001238
      dxy     :     0.001961
      f0      :     0.003632  f :     0.038379
      f+1     :    -0.000084
      f-1     :     0.000138
      f+2     :     0.003317
      f-2     :     0.029621
      f+3     :     0.000794
      f-3     :     0.000961

  2 C s       :     0.006199  s :     0.006199
      pz      :     0.210350  p :     0.220007
      px      :     0.005098
      py      :     0.004559
      dz2     :    -0.001489  d :    -0.008808
      dxz     :    -0.001825
      dyz     :    -0.003395
      dx2y2   :    -0.000890
      dxy     :    -0.001208
      f0      :    -0.002492  f :    -0.006134
      f+1     :    -0.000404
      f-1     :    -0.000362
      f+2     :    -0.000479
      f-2     :    -0.001381
      f+3     :    -0.000427
      f-3     :    -0.000589

  3 C s       :    -0.001243  s :    -0.001243
      pz      :    -0.007080  p :    -0.011831
      px      :    -0.000635
      py      :    -0.004116
      dz2     :     0.000105  d :     0.046180
      dxz     :    -0.000413
      dyz     :     0.044603
      dx2y2   :     0.001430
      dxy     :     0.000455
      f0      :     0.001416  f :     0.025497
      f+1     :     0.000035
      f-1     :    -0.000078
      f+2     :     0.023680
      f-2     :    -0.000741
      f+3     :     0.000470
      f-3     :     0.000715

  4 C s       :     0.000750  s :     0.000750
      pz      :     0.032001  p :     0.032836
      px      :     0.000089
      py      :     0.000746
      dz2     :    -0.000315  d :    -0.001644
      dxz     :    -0.000572
      dyz     :     0.000349
      dx2y2   :    -0.000838
      dxy     :    -0.000268
      f0      :    -0.000501  f :     0.008481
      f+1     :    -0.000092
      f-1     :    -0.000093
      f+2     :    -0.000701
      f-2     :     0.010564
      f+3     :    -0.000600
      f-3     :    -0.000096

  5 C s       :    -0.000679  s :    -0.000679
      pz      :     0.028980  p :     0.022521
      px      :    -0.002520
      py      :    -0.003939
      dz2     :    -0.000054  d :     0.050787
      dxz     :     0.016656
      dyz     :     0.031809
      dx2y2   :     0.001459
      dxy     :     0.000917
      f0      :     0.001911  f :     0.040859
      f+1     :     0.000024
      f-1     :    -0.000113
      f+2     :     0.015398
      f-2     :     0.021856
      f+3     :     0.000766
      f-3     :     0.001018

  6 N s       :     0.004555  s :     0.004555
      pz      :     0.182324  p :     0.190733
      px      :     0.004239
      py      :     0.004170
      dz2     :    -0.000887  d :     0.012542
      dxz     :     0.009524
      dyz     :     0.005953
      dx2y2   :    -0.001294
      dxy     :    -0.000753
      f0      :     0.001643  f :     0.003292
      f+1     :    -0.000235
      f-1     :    -0.000258
      f+2     :     0.000380
      f-2     :     0.002267
      f+3     :    -0.000290
      f-3     :    -0.000217

  7 H s       :    -0.004847  s :    -0.004847
      pz      :     0.017345  p :     0.018854
      px      :    -0.000028
      py      :     0.001537
      dz2     :    -0.000025  d :     0.014749
      dxz     :     0.000467
      dyz     :     0.013476
      dx2y2   :     0.000663
      dxy     :     0.000167

  8 H s       :    -0.004738  s :    -0.004738
      pz      :     0.015287  p :     0.016714
      px      :     0.001243
      py      :     0.000184
      dz2     :    -0.000043  d :     0.014424
      dxz     :     0.008014
      dyz     :     0.005673
      dx2y2   :     0.000264
      dxy     :     0.000515

  9 H s       :    -0.001173  s :    -0.001173
      pz      :     0.003526  p :     0.003729
      px      :    -0.000096
      py      :     0.000299
      dz2     :    -0.000019  d :     0.002995
      dxz     :    -0.000035
      dyz     :     0.002973
      dx2y2   :     0.000080
      dxy     :    -0.000004

 10 O s       :     0.000177  s :     0.000177
      pz      :     0.010619  p :     0.010900
      px      :     0.000398
      py      :    -0.000117
      dz2     :    -0.000010  d :    -0.000013
      dxz     :    -0.001895
      dyz     :     0.002599
      dx2y2   :    -0.000338
      dxy     :    -0.000370
      f0      :    -0.000222  f :    -0.000405
      f+1     :    -0.000010
      f-1     :    -0.000015
      f+2     :    -0.000350
      f-2     :     0.000440
      f+3     :    -0.000236
      f-3     :    -0.000011

 11 C s       :    -0.000083  s :    -0.000083
      pz      :     0.000147  p :    -0.000252
      px      :    -0.000264
      py      :    -0.000135
      dz2     :    -0.000092  d :     0.001422
      dxz     :     0.000029
      dyz     :     0.001595
      dx2y2   :    -0.000001
      dxy     :    -0.000109
      f0      :    -0.000078  f :     0.000811
      f+1     :    -0.000006
      f-1     :    -0.000017
      f+2     :    -0.000027
      f-2     :     0.000943
      f+3     :    -0.000019
      f-3     :     0.000015

 12 H s       :    -0.000035  s :    -0.000035
      pz      :     0.000015  p :    -0.000021
      px      :    -0.000021
      py      :    -0.000015
      dz2     :    -0.000001  d :    -0.000024
      dxz     :     0.000061
      dyz     :    -0.000050
      dx2y2   :    -0.000020
      dxy     :    -0.000014

 13 H s       :    -0.000081  s :    -0.000081
      pz      :     0.000032  p :     0.000361
      px      :     0.000127
      py      :     0.000201
      dz2     :     0.000043  d :     0.000268
      dxz     :    -0.000018
      dyz     :    -0.000012
      dx2y2   :     0.000106
      dxy     :     0.000148

 14 H s       :    -0.000077  s :    -0.000077
      pz      :     0.000031  p :     0.000354
      px      :     0.000130
      py      :     0.000192
      dz2     :     0.000039  d :     0.000259
      dxz     :    -0.000018
      dyz     :    -0.000012
      dx2y2   :     0.000105
      dxy     :     0.000144

 15 H s       :    -0.005626  s :    -0.005626
      pz      :     0.028061  p :     0.030641
      px      :     0.001647
      py      :     0.000933
      dz2     :     0.000002  d :     0.022512
      dxz     :     0.013866
      dyz     :     0.007392
      dx2y2   :     0.000463
      dxy     :     0.000788

 16 H s       :     0.001634  s :     0.001634
      pz      :    -0.007502  p :    -0.008795
      px      :    -0.000564
      py      :    -0.000729
      dz2     :    -0.000013  d :    -0.003232
      dxz     :     0.002618
      dyz     :    -0.005055
      dx2y2   :    -0.000308
      dxy     :    -0.000473

 17 H s       :    -0.004802  s :    -0.004802
      pz      :     0.019401  p :     0.021253
      px      :     0.001456
      py      :     0.000396
      dz2     :    -0.000041  d :     0.016838
      dxz     :     0.012769
      dyz     :     0.003239
      dx2y2   :     0.000401
      dxy     :     0.000470



                      *****************************
                      * MAYER POPULATION ANALYSIS *
                      *****************************

  NA   - Mulliken gross atomic population
  ZA   - Total nuclear charge
  QA   - Mulliken gross atomic charge
  VA   - Mayer's total valence
  BVA  - Mayer's bonded valence
  FA   - Mayer's free valence

  ATOM       NA         ZA         QA         VA         BVA        FA
  0 C      6.5526     6.0000    -0.5526     2.7999     2.7011     0.0988
  1 C      6.3929     6.0000    -0.3929     2.5327     2.5150     0.0177
  2 C      6.3706     6.0000    -0.3706     2.7696     2.6187     0.1509
  3 C      4.9350     6.0000     1.0650     1.6849     1.6834     0.0016
  4 C      6.8770     6.0000    -0.8770     2.6476     2.6431     0.0045
  5 C      4.9477     6.0000     1.0523     1.7877     1.7764     0.0113
  6 N      7.4012     7.0000    -0.4012     3.1324     3.0498     0.0826
  7 H      0.9387     1.0000     0.0613     1.0962     1.0959     0.0003
  8 H      0.9294     1.0000     0.0706     1.0805     1.0803     0.0002
  9 H      0.5766     1.0000     0.4234     0.5784     0.5784     0.0000
 10 O      8.6553     8.0000    -0.6553     1.6878     1.6876     0.0002
 11 C      6.6159     6.0000    -0.6159     3.7070     3.7070     0.0000
 12 H      0.7403     1.0000     0.2597     0.9608     0.9608     0.0000
 13 H      0.7253     1.0000     0.2747     0.9514     0.9514     0.0000
 14 H      0.7256     1.0000     0.2744     0.9515     0.9515     0.0000
 15 H      0.5307     1.0000     0.4693     0.5341     0.5333     0.0007
 16 H      0.5417     1.0000     0.4583     0.6607     0.6606     0.0002
 17 H      0.5435     1.0000     0.4565     0.6551     0.6547     0.0004

  Mayer bond orders larger than 0.100000
B(  0-C ,  1-C ) :   1.3300 B(  0-C ,  2-C ) :   0.2026 B(  0-C ,  3-C ) :  -0.1390 
B(  0-C ,  4-C ) :   0.3870 B(  0-C ,  5-C ) :   0.6034 B(  0-C ,  6-N ) :  -0.1540 
B(  0-C , 17-H ) :   0.5372 B(  1-C ,  2-C ) :   0.9565 B(  1-C ,  3-C ) :  -0.2023 
B(  1-C ,  4-C ) :  -0.1317 B(  1-C ,  5-C ) :  -0.1727 B(  1-C , 16-H ) :   0.6137 
B(  2-C ,  3-C ) :   0.8453 B(  2-C ,  4-C ) :   0.3485 B(  2-C ,  5-C ) :  -0.1360 
B(  2-C , 15-H ) :   0.5783 B(  3-C ,  4-C ) :   0.6946 B(  3-C ,  5-C ) :  -0.2064 
B(  3-C ,  6-N ) :   0.1171 B(  3-C , 10-O ) :   0.4018 B(  4-C ,  5-C ) :   0.6225 
B(  4-C ,  6-N ) :  -0.1741 B(  4-C ,  9-H ) :   0.4690 B(  4-C , 10-O ) :   0.3201 
B(  5-C ,  6-N ) :   0.9405 B(  5-C ,  9-H ) :   0.1033 B(  6-N ,  7-H ) :   1.1306 
B(  6-N ,  8-H ) :   1.1125 B( 10-O , 11-C ) :   0.9512 B( 11-C , 12-H ) :   0.9511 
B( 11-C , 13-H ) :   0.9175 B( 11-C , 14-H ) :   0.9180 

-------
TIMINGS
-------

Total SCF time: 0 days 0 hours 4 min 40 sec 

Total time                  ....     280.006 sec
Sum of individual times     ....     278.867 sec  ( 99.6%)

SCF preparation             ....       1.019 sec  (  0.4%)
Fock matrix formation       ....     259.340 sec  ( 92.6%)
  Startup                   ....       2.423 sec  (  0.9% of F)
  Split-RI-J                ....      13.391 sec  (  5.2% of F)
  Chain of spheres X        ....     168.779 sec  ( 65.1% of F)
  XC integration            ....      62.999 sec  ( 24.3% of F)
    XC Preparation          ....       0.000 sec  (  0.0% of XC)
    Basis function eval.    ....       6.469 sec  ( 10.3% of XC)
    Density eval.           ....      15.422 sec  ( 24.5% of XC)
    XC-Functional eval.     ....       0.517 sec  (  0.8% of XC)
    XC-Potential eval.      ....      35.540 sec  ( 56.4% of XC)
  CPCM terms                ....       5.864 sec  (  2.3% of F)
Diagonalization             ....       0.000 sec  (  0.0%)
Density matrix formation    ....       5.286 sec  (  1.9%)
Total Energy calculation    ....       2.057 sec  (  0.7%)
Population analysis         ....       0.408 sec  (  0.1%)
Orbital Transformation      ....       0.939 sec  (  0.3%)
Orbital Orthonormalization  ....       0.000 sec  (  0.0%)
DIIS solution               ....       6.315 sec  (  2.3%)
SOSCF solution              ....       3.504 sec  (  1.3%)
Finished LeanSCF after 280.2 sec

Maximum memory used throughout the entire LEANSCF-calculation: 99.2 MB


-------------------------------------------------------------------------------
                          DFT DISPERSION CORRECTION                            
                                                                               
                              DFTD3 V3.1  Rev 1                                
                          USING Becke-Johnson damping                          
-------------------------------------------------------------------------------
The B3LYP functional is recognized
Active option DFTDOPT                   ...         4   

molecular C6(AA) [au] = 3277.921221 


            DFT-D V3
 parameters
 s6 scaling factor         :     1.0000 
 a1 scaling factor         :     0.3981 
 s8 scaling factor         :     1.9889 
 a2 scaling factor         :     4.4211 
 ad hoc parameters k1-k3   :    16.0000     1.3333    -4.0000 

 Edisp/kcal,au: -18.541788215723  -0.029548217205 
 E6   /kcal   :  -8.734093624 
 E8   /kcal   :  -9.807694592 
 % E8         :  52.895084756 

-------------------------   ----------------
Dispersion correction           -0.029548217
-------------------------   ----------------


-------------------------   --------------------
FINAL SINGLE POINT ENERGY      -401.895778670962
-------------------------   --------------------



           ************************************************************
           *        Program running with 4 parallel MPI-processes     *
           *              working on a common directory               *
           ************************************************************

------------------------------------------------------------------------------
                              ORCA PROPERTY CALCULATIONS
------------------------------------------------------------------------------

GBWName                                 ... cs_rporg_070_ox_solv_02.gbw
Number of atoms                         ...     18
Number of basis functions               ...    675
Max core memory                         ...   3000 MB

Electric properties:
Dipole moment                           ... YES
Quadrupole moment                       ...  NO
Static polarizability (Dipole/Dipole)   ...  NO
Static polarizability (Dipole/Quad.)    ...  NO
Static polarizability (Quad./Quad.)     ...  NO
Static polarizability (Velocity)        ...  NO

Atomic electric properties:
Dipole moment                           ...  NO
Quadrupole moment                       ...  NO
Static polarizability                   ...  NO

Choice of electric origin               ... Center of mass
Position of electric origin             ...    -0.006738     0.003241    -0.049694

General magnetic properties:
Magnetizability                         ...  NO

EPR properties:
g-Tensor (aka g-matrix)                 ...  NO
Zero-Field splitting spin-orbit         ...  NO
Zero-field splitting spin-spin          ...  NO
Hyperfine couplings                     ...  NO (   0 nuclei)
Quadrupole couplings                    ...  NO (   0 nuclei)
Contact density                         ...  NO (   0 nuclei)

NMR properties:
Chemical shifts                         ...  NO (   0 nuclei)
Spin-rotation constants                 ...  NO (   0 nuclei)
Spin-spin couplings                     ...  NO (   0 nuclei,    0 pairs)

Choice of magnetic origin               ... GIAO
Position of magnetic origin             ...     0.000000     0.000000     0.000000

Properties with geometric perturbations:
SCF Hessian                             ...  NO
IR spectrum                             ...  NO
VCD spectrum                            ...  NO
X-ray spectroscopy properties:
SCF XES/XAS/RIXS spectra                ...  NO


-------------
DIPOLE MOMENT
-------------

Method             : SCF
Type of density    : Electron Density
Multiplicity       :   2
Irrep              :   0
Energy             :  -401.8662304537569412 Eh
Relativity type    : 
Basis              : AO
                                X                 Y                 Z
Electronic contribution:      3.942538649      -1.169031949      -0.076920917
Nuclear contribution   :     -2.044978462       1.271551477       0.044658972
                        -----------------------------------------
Total Dipole Moment    :      1.897560187       0.102519528      -0.032261945
                        -----------------------------------------
Magnitude (a.u.)       :      1.900601418
Magnitude (Debye)      :      4.830944884



--------------------
Rotational spectrum 
--------------------
 
Rotational constants in cm-1:             0.119593             0.037937             0.028965 
Rotational constants in MHz :          3585.313936          1137.321017           868.358011 

Dipole components along the rotational axes: 
x,y,z [a.u.] :    -1.898152     0.096402    -0.003645 
x,y,z [Debye]:    -4.824718     0.245033    -0.009264 

 

Dipole moment calculation done in   0.1 sec 

Maximum memory used throughout the entire PROP-calculation: 56.2 MB

--------------------------------
SUGGESTED CITATIONS FOR THIS RUN
--------------------------------

Below you find a list of papers that are relevant to this ORCA run
We neither can nor want to force you to cite these papers, but we appreciate if you do
You receive ORCA, which is the product of decades of hard work by many enthusiastic individuals, for free
The only thing we kindly ask in return is that you cite our papers,
We deeply appreciate it, if you show your appreciation for ORCA by not just citing the generic ORCA reference.

Please note that relegating all ORCA citations to the supporting information does *not* help us.
SI sections are not indexed - citations you put there will not count into any citation statistics
But we need these citations in order to attract the funding resources that allow us to do what we are doing

Therefore, if you are a happy ORCA user, please consider citing a few of the papers listed below in the main body of your paper

In addition to the list printed below, the program has created the file cs_rporg_070_ox_solv_02.bibtex that contains the list in bibtex format
You can import this file easily into all common literature databanks and citation aid programs


List of essential papers. We consider these as the minimum necessary citations

  1. Neese,F.
     Software update: the ORCA program system, version 5.0
     WIRES Comput. Molec. Sci., 2022 12(1)e1606
     doi.org/10.1002/wcms.1606

List of papers to cite with high priority. The work reported in these papers was absolutely
necessary for this run to complete.
Our perspective: the developers of density functionals and basis sets usually get cited in chemistry papers
Good! But without the algorithms to do something with them, the functionals or basis sets would not do anything.
Hence, in our opinion, the algorithm design and method developments papers are equally worthy of getting cited

  1. Neese,F.
     An improvement of the resolution of the identity approximation for the formation of the Coulomb matrix
     J. Comp. Chem., 2003 24(14)1740-1747
     doi.org/10.1002/jcc.10318
  2. Neese,F.; Wennmohs,F.; Hansen,A.; Becker,U.
     Efficient, approximate and parallel Hartree-Fock and hybrid DFT calculations. A 'chain-of-spheres' algorithm for the Hartree-Fock exchange
     Chem. Phys., 2009 356(1-3)98-109
     doi.org/10.1016/j.chemphys.2008.10.036
  3. Garcia-Rates,M.; Neese,F.
     Effect of the Solute Cavity on the Solvation Energy and its Derivatives within the Framework of the Gaussian Charge Scheme
     J. Comput. Chem., 2020 41 922-939
     doi.org/10.1002/jcc.26139
  4. Helmich-Paris,B.; de Souza,B.; Neese,F.; Izsák,R.
     An improved chain of spheres for exchange algorithm
     J. Chem. Phys., 2021 155 104109
     doi.org/doi: 10.1063/5.0058766.
  5. Neese,F.
     The SHARK Integral Generation and Digestion System
     J. Comp. Chem., 2022  1-16
     doi.org/10.1002/jcc.26942
  6. Grimme,S.; Antony,J.; Ehrlich,S.; Krieg,H.
     A consistent and accurate ab initio parametrization of density functional dispersion correction (DFT-D) for the 94 elements H-Pu
     J. Chem. Phys., 2010 132 154104-XXXX
     doi.org/10.1063/1.3382344
  7. Grimme,S.; Ehrlich,S.; Goerigk,L.
     Effect of the damping function in dispersion corrected density functional theory
     J. Comput. Chem., 2011 32(7)1456-1465
     doi.org/10.1002/jcc.21759

List of suggested additional citations. These are papers that are important in the 'surrounding' of 
of this run, or papers that preceded the highly important papers. If you like your results we are grateful for a citation.

  1. Izsak,R.; Neese,F.
     An overlap fitted chain of spheres exchange method
     J. Chem. Phys., 2011 135 144105
     doi.org/10.1063/1.3646921
  2. Izsak,R.; Hansen,A.; Neese,F.
     The resolution of identity and chain of spheres approximations for the LPNO-CCSD singles Fock term
     Molec. Phys., 2012 110 2413-2417
     doi.org/10.1080/00268976.2012.687466
  3. Neese,F.
     The ORCA program system
     WIRES Comput. Molec. Sci., 2012 2(1)73-78
     doi.org/10.1002/wcms.81
  4. Izsak,R.; Neese,F.; Klopper,W.
     Robust fitting techniques in the chain of spheres approximation to the Fock exchange: The role of the complementary space
     J. Chem. Phys., 2013 139 
     doi.org/10.1063/1.4819264
  5. Neese,F.
     Software update: the ORCA program system, version 4.0
     WIRES Comput. Molec. Sci., 2018 8(1)1-6
     doi.org/10.1002/wcms.1327
  6. Neese,F.; Wennmohs,F.; Becker,U.; Riplinger,C.
     The ORCA quantum chemistry program package
     J. Chem. Phys., 2020 152 Art. No. L224108
     doi.org/10.1063/5.0004608

List of optional additional citations

  1. Neese,F.
     Approximate second-order SCF convergence for spin unrestricted wavefunctions
     Chem. Phys. Lett., 2000 325(1-3)93-98
     doi.org/10.1016/s0009-2614(00)00662-x

Timings for individual modules:

Sum of individual times          ...      296.614 sec (=   4.944 min)
Startup calculation              ...        9.726 sec (=   0.162 min)   3.3 %
SCF iterations                   ...      285.137 sec (=   4.752 min)  96.1 %
Property calculations            ...        1.751 sec (=   0.029 min)   0.6 %
                             ****ORCA TERMINATED NORMALLY****
TOTAL RUN TIME: 0 days 0 hours 4 minutes 59 seconds 529 msec
