
                                 *****************
                                 * O   R   C   A *
                                 *****************

                                            #,                                       
                                            ###                                      
                                            ####                                     
                                            #####                                    
                                            ######                                   
                                           ########,                                 
                                     ,,################,,,,,                         
                               ,,#################################,,                 
                          ,,##########################################,,             
                       ,#########################################, ''#####,          
                    ,#############################################,,   '####,        
                  ,##################################################,,,,####,       
                ,###########''''           ''''###############################       
              ,#####''   ,,,,##########,,,,          '''####'''          '####       
            ,##' ,,,,###########################,,,                        '##       
           ' ,,###''''                  '''############,,,                           
         ,,##''                                '''############,,,,        ,,,,,,###''
      ,#''                                            '''#######################'''  
     '                                                          ''''####''''         
             ,#######,   #######,   ,#######,      ##                                
            ,#'     '#,  ##    ##  ,#'     '#,    #''#        ,####,   ,####,        
            ##       ##  ##   ,#'  ##            #'  '#       #'       #'  '#        
            ##       ##  #######   ##           ,######,      #####,   #    #        
            '#,     ,#'  ##    ##  '#,     ,#' ,#      #,     #,   #   #,  ,#        
             '#######'   ##     ##  '#######'  #'      '#     '####' # '####'        



                #########################################################
                #                        -***-                          #
                #          Department of theory and spectroscopy        #
                #                                                       #
                #                      Frank Neese                      #
                #                                                       #
                #     Directorship, Architecture, Infrastructure        #
                #                    SHARK, DRIVERS                     #
                #        Core code/Algorithms in most modules           #
                #                                                       #
                #        Max Planck Institute fuer Kohlenforschung      #
                #                Kaiser Wilhelm Platz 1                 #
                #                 D-45470 Muelheim/Ruhr                 #
                #                      Germany                          #
                #                                                       #
                #                  All rights reserved                  #
                #                        -***-                          #
                #########################################################


                         Program Version 6.0.0  -   RELEASE  -


 With contributions from (in alphabetic order):
   Daniel Aravena         : Magnetic Suceptibility
   Michael Atanasov       : Ab Initio Ligand Field Theory (pilot matlab implementation)
   Alexander A. Auer      : GIAO ZORA, VPT2 properties, NMR spectrum
   Ute Becker             : All parallelization in ORCA, NUMFREQ, NUMCALC
   Giovanni Bistoni       : ED, misc. LED, open-shell LED, HFLD
   Martin Brehm           : Molecular dynamics
   Dmytro Bykov           : pre 5.0 version of the SCF Hessian
   Marcos Casanova-Páez   : Triplet and SCS-CIS(D). UHF-(DLPNO)-IP/EA/STEOM-CCSD. UHF-CVS-IP/STEOM-CCSD
   Vijay G. Chilkuri      : MRCI spin determinant printing, contributions to CSF-ICE
   Pauline Colinet        : FMM embedding
   Dipayan Datta          : RHF DLPNO-CCSD density
   Achintya Kumar Dutta   : EOM-CC, STEOM-CC
   Nicolas Foglia         : Exact transition moments, OPA infrastructure, MCD improvements
   Dmitry Ganyushin       : Spin-Orbit,Spin-Spin,Magnetic field MRCI
   Miquel Garcia          : C-PCM and meta-GGA Hessian, CCSD/C-PCM, Gaussian charge scheme
   Tiago L. C. Gouveia    : GS-ROHF, GS-ROCIS
   Yang Guo               : DLPNO-NEVPT2, F12-NEVPT2, CIM, IAO-localization
   Andreas Hansen         : Spin unrestricted coupled pair/coupled cluster methods
   Ingolf Harden          : AUTO-CI MPn and infrastructure 
   Benjamin Helmich-Paris : MC-RPA, TRAH-(SCF,CASSCF), AVAS, COSX integrals, SCF dyn. polar.
   Lee Huntington         : MR-EOM, pCC
   Robert Izsak           : Overlap fitted RIJCOSX, COSX-SCS-MP3, EOM
   Riya Kayal             : Wick's Theorem for AUTO-CI, AUTO-CI UHF-CCSDT
   Emily Kempfer          : AUTO-CI, RHF CISDT and CCSDT
   Christian Kollmar      : KDIIS, OOCD, Brueckner-CCSD(T), CCSD density, CASPT2, CASPT2-K, improved NEVPT2
   Axel Koslowski         : Symmetry handling
   Simone Kossmann        : Meta GGA functionals, TD-DFT gradient, OOMP2, (MP2 Hessian; deprecated post 5.0)
   Lucas Lang             : DCDCAS
   Marvin Lechner         : AUTO-CI (C++ implementation), FIC-MRCC
   Spencer Leger          : CASSCF response
   Dagmar Lenk            : GEPOL surface, SMD, ORCA-2-JSON
   Dimitrios Liakos       : Extrapolation schemes; Compound Job, initial MDCI parallelization
   Dimitrios Manganas     : Further ROCIS development; embedding schemes. LFT, Crystal Embedding
   Dimitrios Pantazis     : SARC Basis sets
   Anastasios Papadopoulos: AUTO-CI, single reference methods and gradients
   Taras Petrenko         : pre 6.0 DFT Hessian and TD-DFT gradient, (ASA, deprecated), ECA, 1-Electron XAS/XES, NRVS
   Peter Pinski           : DLPNO-MP2, DLPNO-MP2 Gradient
   Christoph Reimann      : Effective Core Potentials
   Marius Retegan         : Local ZFS, SOC
   Christoph Riplinger    : Optimizer, TS searches, QM/MM, DLPNO-CCSD(T), (RO)-DLPNO pert. Triples
   Michael Roemelt        : Original ROCIS implementation
   Masaaki Saitow         : Open-shell DLPNO-CCSD energy and density
   Barbara Sandhoefer     : DKH picture change effects
   Kantharuban Sivalingam : CASSCF convergence/infrastructure, NEVPT2 and variants, FIC-MRCI
   Bernardo de Souza      : ESD, SOC TD-DFT
   Georgi Stoychev        : AutoAux, RI-MP2 NMR, DLPNO-MP2 response, X2C
   Van Anh Tran           : RI-MP2 g-tensors
   Willem Van den Heuvel  : Paramagnetic NMR
   Zikuan Wang            : NOTCH, Electric field optimization 
   Frank Wennmohs         : Technical directorship and infrastructure
   Hang Xu                : AUTO-CI-Response properties 


 We gratefully acknowledge several colleagues who have allowed us to
 interface, adapt or use parts of their codes:
   Stefan Grimme, W. Hujo, H. Kruse, P. Pracht,  : VdW corrections, initial TS optimization,
                  C. Bannwarth, S. Ehlert,         DFT functionals, gCP, sTDA/sTD-DF
                  L. Wittmann, M. Mueller
   Ed Valeev, F. Pavosevic, A. Kumar             : LibInt (2-el integral package), F12 methods
   Garnet Chan, S. Sharma, J. Yang, R. Olivares  : DMRG
   Ulf Ekstrom                                   : XCFun DFT Library
   Mihaly Kallay                                 : mrcc  (arbitrary order and MRCC methods)
   Frank Weinhold                                : gennbo (NPA and NBO analysis)
   Simon Mueller                                 : openCOSMO-RS
   Christopher J. Cramer and Donald G. Truhlar   : smd solvation model
   Lars Goerigk                                  : TD-DFT with DH, B97 family of functionals
   V. Asgeirsson, H. Jonsson                     : NEB implementation
   FAccTs GmbH                                   : IRC, NEB, NEB-TS, DLPNO-Multilevel, CI-OPT
                                                   MM, QMMM, 2- and 3-layer-ONIOM, Crystal-QMMM,
                                                   LR-CPCM, SF, NACMEs, symmetry and pop. for TD-DFT,
                                                   nearIR, NL-DFT gradient (VV10), updates on ESD,
                                                   ML-optimized integration grids, MBIS, APM,
                                                   GOAT, DOCKER, SOLVATOR, interface openCOSMO-RS
   S Lehtola, MJT Oliveira, MAL Marques          : LibXC Library
   Liviu Ungur et al                             : ANISO software


 Your calculation uses the libint2 library for the computation of 2-el integrals
 For citations please refer to: http://libint.valeyev.net

 Your ORCA version has been built with support for libXC version: 6.2.2
 For citations please refer to: https://libxc.gitlab.io

 This ORCA versions uses:
   CBLAS   interface :  Fast vector & matrix operations
   LAPACKE interface :  Fast linear algebra routines
   SCALAPACK package :  Parallel linear algebra routines
   Shared memory     :  Shared parallel matrices
   BLAS/LAPACK       :  OpenBLAS 0.3.27  USE64BITINT DYNAMIC_ARCH NO_AFFINITY SkylakeX SINGLE_THREADED
        Core in use  :  SkylakeX
   Copyright (c) 2011-2014, The OpenBLAS Project


NOTE: MaxCore=3000 MB was set to SCF,MP2,MDCI,CIPSI,MRCI and CIS
      => If you want to overwrite this, your respective input block should be placed after the MaxCore statement
Your calculation utilizes the atom-pairwise dispersion correction
with the Becke-Johnson damping scheme (D3BJ)


Warning: RI is on but no J-basis has been assigned. Assigning Def2/J (nothing to worry about!)
================================================================================

----- Orbital basis set information -----
Your calculation utilizes the basis: def2-SV(P)
   F. Weigend and R. Ahlrichs, Phys. Chem. Chem. Phys. 7, 3297 (2005).

----- AuxJ basis set information -----
Your calculation utilizes the auxiliary basis: def2/J
   F. Weigend, Phys. Chem. Chem. Phys. 8, 1057 (2006).

================================================================================
                                        WARNINGS
                       Please study these warnings very carefully!
================================================================================


WARNING: Geometry Optimization
  ===> : Switching off AutoStart
         For restart on a previous wavefunction, please use MOREAD

================================================================================
                                       INPUT FILE
================================================================================
NAME = cs_rporg_064_red_opt_01.inp
|  1> !PBE0 def2-SV(p) Opt Freq d3 TightSCF SlowConv RIJCOSX defgrid2
|  2>  
|  3> %pal
|  4> nprocs 4
|  5> end
|  6>  
|  7> %scf
|  8> MaxIter 1500
|  9> end
| 10>  
| 11> %maxcore 3000
| 12>  
| 13> 
| 14>  
| 15> * xyz 0 1
| 16> C    -0.6933307    1.3795604    0.0097225 
| 17> C    -1.8960215    0.6909084    0.0128020 
| 18> C    -1.8960582   -0.6908180   -0.0128029 
| 19> C    -0.6934030   -1.3795328   -0.0097290 
| 20> C     0.5190588   -0.7044837    0.0086532 
| 21> N     1.7348753   -1.3921770   -0.0319405 
| 22> H     2.4595702   -0.9636194    0.5263907 
| 23> H     1.6398774   -2.3776881    0.1672626 
| 24> C     0.5190971    0.7044476   -0.0086661 
| 25> N     1.7349439    1.3920777    0.0319191 
| 26> H     2.4596410    0.9634337   -0.5263406 
| 27> H     1.6400167    2.3775823   -0.1673452 
| 28> H    -0.6903030   -2.4611487   -0.0152744 
| 29> H    -2.8276181   -1.2376484   -0.0238160 
| 30> H    -2.8275528    1.2377874    0.0238244 
| 31> H    -0.6901733    2.4611758    0.0152676
| 32> *
| 33> 
| 34>                          ****END OF INPUT****
================================================================================

                       *****************************
                       * Geometry Optimization Run *
                       *****************************

Geometry optimization settings:
Update method            Update   .... BFGS
Choice of coordinates    CoordSys .... (2022) Redundant Internals
Initial Hessian          InHess   .... Almloef's Model
Max. no of cycles        MaxIter  .... 50

Convergence Tolerances:
Energy Change            TolE     ....  5.0000e-06 Eh
Max. Gradient            TolMAXG  ....  3.0000e-04 Eh/bohr
RMS Gradient             TolRMSG  ....  1.0000e-04 Eh/bohr
Max. Displacement        TolMAXD  ....  4.0000e-03 bohr
RMS Displacement         TolRMSD  ....  2.0000e-03 bohr
Strict Convergence                .... False

------------------------------------------------------------------------------
                        ORCA OPTIMIZATION COORDINATE SETUP
------------------------------------------------------------------------------

The optimization will be done in redundant internal coordinates (2022)
Making redundant internal coordinates   ...  (2022 redundants) done
Evaluating the initial hessian          ...  (Almloef) done
Evaluating the coordinates              ...  done
Calculating the B-matrix                .... done
Calculating the G-matrix                .... done
Diagonalizing the G-matrix              .... done
The first mode is                       ....   30
The number of degrees of freedom        ....   42

    -----------------------------------------------------------------
                    Redundant Internal Coordinates


    -----------------------------------------------------------------
         Definition                    Initial Value    Approx d2E/dq
    -----------------------------------------------------------------
      1. B(C   1,C   0)                  1.3859         0.634280   
      2. B(C   2,C   1)                  1.3820         0.643517   
      3. B(C   3,C   2)                  1.3859         0.634280   
      4. B(C   4,C   3)                  1.3878         0.629780   
      5. B(N   5,C   4)                  1.3974         0.544552   
      6. B(H   6,N   5)                  1.0102         0.432332   
      7. B(H   7,N   5)                  1.0099         0.432835   
      8. B(C   8,C   4)                  1.4090         0.582593   
      9. B(C   8,C   0)                  1.3878         0.629777   
     10. B(N   9,C   8)                  1.3974         0.544562   
     11. B(H  10,N   9)                  1.0102         0.432334   
     12. B(H  11,N   9)                  1.0099         0.432836   
     13. B(H  12,C   3)                  1.0816         0.371338   
     14. B(H  13,C   2)                  1.0803         0.373226   
     15. B(H  14,C   1)                  1.0803         0.373226   
     16. B(H  15,C   0)                  1.0816         0.371339   
     17. A(C   1,C   0,C   8)          121.0935         0.437080   
     18. A(C   8,C   0,H  15)          118.9442         0.355694   
     19. A(C   1,C   0,H  15)          119.9611         0.356124   
     20. A(C   2,C   1,H  14)          120.4197         0.357308   
     21. A(C   0,C   1,H  14)          119.7884         0.356431   
     22. A(C   0,C   1,C   2)          119.7882         0.438784   
     23. A(C   1,C   2,C   3)          119.7882         0.438784   
     24. A(C   3,C   2,H  13)          119.7884         0.356431   
     25. A(C   1,C   2,H  13)          120.4197         0.357308   
     26. A(C   2,C   3,C   4)          121.0935         0.437080   
     27. A(C   4,C   3,H  12)          118.9443         0.355694   
     28. A(C   2,C   3,H  12)          119.9611         0.356124   
     29. A(N   5,C   4,C   8)          119.4523         0.416674   
     30. A(C   3,C   4,C   8)          119.0929         0.430447   
     31. A(C   3,C   4,N   5)          121.3556         0.422501   
     32. A(H   6,N   5,H   7)          111.8654         0.303229   
     33. A(C   4,N   5,H   7)          113.1196         0.350881   
     34. A(C   4,N   5,H   6)          113.5350         0.350812   
     35. A(C   4,C   8,N   9)          119.4526         0.416675   
     36. A(C   0,C   8,N   9)          121.3555         0.422502   
     37. A(C   0,C   8,C   4)          119.0928         0.430447   
     38. A(C   8,N   9,H  11)          113.1204         0.350883   
     39. A(C   8,N   9,H  10)          113.5352         0.350814   
     40. A(H  10,N   9,H  11)          111.8661         0.303230   
     41. D(H  14,C   1,C   0,C   8)   -179.7910         0.027919   
     42. D(C   2,C   1,C   0,H  15)    179.1162         0.027919   
     43. D(H  14,C   1,C   0,H  15)     -0.1883         0.027919   
     44. D(C   2,C   1,C   0,C   8)     -0.4864         0.027919   
     45. D(C   3,C   2,C   1,H  14)   -179.1911         0.028793   
     46. D(H  13,C   2,C   1,C   0)   -179.1914         0.028793   
     47. D(C   3,C   2,C   1,C   0)      1.5088         0.028793   
     48. D(H  13,C   2,C   1,H  14)      0.1087         0.028793   
     49. D(H  12,C   3,C   2,H  13)     -0.1880         0.027919   
     50. D(H  12,C   3,C   2,C   1)    179.1163         0.027919   
     51. D(C   4,C   3,C   2,H  13)   -179.7907         0.027919   
     52. D(C   4,C   3,C   2,C   1)     -0.4864         0.027919   
     53. D(C   8,C   4,C   3,C   2)     -1.5377         0.027499   
     54. D(N   5,C   4,C   3,H  12)      2.4964         0.027499   
     55. D(N   5,C   4,C   3,C   2)   -177.8969         0.027499   
     56. D(C   8,C   4,C   3,H  12)    178.8556         0.027499   
     57. D(H   7,N   5,C   4,C   8)    168.6309         0.023610   
     58. D(H   7,N   5,C   4,C   3)    -15.0227         0.023610   
     59. D(H   6,N   5,C   4,C   8)     39.7546         0.023610   
     60. D(H   6,N   5,C   4,C   3)   -143.8990         0.023610   
     61. D(N   9,C   8,C   4,N   5)     -4.6194         0.023329   
     62. D(C   0,C   8,C   4,N   5)    178.9509         0.023329   
     63. D(C   0,C   8,C   4,C   3)      2.5214         0.023329   
     64. D(N   9,C   8,C   0,H  15)      2.4963         0.027498   
     65. D(N   9,C   8,C   0,C   1)   -177.8971         0.027498   
     66. D(N   9,C   8,C   4,C   3)    178.9510         0.023329   
     67. D(C   4,C   8,C   0,H  15)    178.8556         0.027498   
     68. D(C   4,C   8,C   0,C   1)     -1.5377         0.027498   
     69. D(H  11,N   9,C   8,C   0)    -15.0267         0.023611   
     70. D(H  10,N   9,C   8,C   4)     39.7487         0.023611   
     71. D(H  10,N   9,C   8,C   0)   -143.9048         0.023611   
     72. D(H  11,N   9,C   8,C   4)    168.6269         0.023611   
    -----------------------------------------------------------------

Number of atoms                         .... 16
Number of degrees of freedom            .... 72


         *************************************************************
         *                GEOMETRY OPTIMIZATION CYCLE   1            *
         *************************************************************
---------------------------------
CARTESIAN COORDINATES (ANGSTROEM)
---------------------------------
  C     -0.693331    1.379560    0.009723
  C     -1.896021    0.690908    0.012802
  C     -1.896058   -0.690818   -0.012803
  C     -0.693403   -1.379533   -0.009729
  C      0.519059   -0.704484    0.008653
  N      1.734875   -1.392177   -0.031940
  H      2.459570   -0.963619    0.526391
  H      1.639877   -2.377688    0.167263
  C      0.519097    0.704448   -0.008666
  N      1.734944    1.392078    0.031919
  H      2.459641    0.963434   -0.526341
  H      1.640017    2.377582   -0.167345
  H     -0.690303   -2.461149   -0.015274
  H     -2.827618   -1.237648   -0.023816
  H     -2.827553    1.237787    0.023824
  H     -0.690173    2.461176    0.015268

----------------------------
CARTESIAN COORDINATES (A.U.)
----------------------------
  NO LB      ZA    FRAG     MASS         X           Y           Z
   0 C     6.0000    0    12.011   -1.310205    2.606991    0.018373
   1 C     6.0000    0    12.011   -3.582961    1.305628    0.024192
   2 C     6.0000    0    12.011   -3.583031   -1.305457   -0.024194
   3 C     6.0000    0    12.011   -1.310342   -2.606939   -0.018385
   4 C     6.0000    0    12.011    0.980879   -1.331281    0.016352
   5 N     7.0000    0    14.007    3.278439   -2.630833   -0.060359
   6 H     1.0000    0     1.008    4.647914   -1.820977    0.994734
   7 H     1.0000    0     1.008    3.098919   -4.493179    0.316081
   8 C     6.0000    0    12.011    0.980951    1.331213   -0.016377
   9 N     7.0000    0    14.007    3.278569    2.630646    0.060318
  10 H     1.0000    0     1.008    4.648048    1.820626   -0.994640
  11 H     1.0000    0     1.008    3.099182    4.492979   -0.316237
  12 H     1.0000    0     1.008   -1.304484   -4.650897   -0.028864
  13 H     1.0000    0     1.008   -5.343424   -2.338817   -0.045006
  14 H     1.0000    0     1.008   -5.343300    2.339079    0.045022
  15 H     1.0000    0     1.008   -1.304239    4.650948    0.028852

--------------------------------
INTERNAL COORDINATES (ANGSTROEM)
--------------------------------
 C      0   0   0     0.000000000000     0.00000000     0.00000000
 C      1   0   0     1.385899065888     0.00000000     0.00000000
 C      2   1   0     1.381963623511   119.78822945     0.00000000
 C      3   2   1     1.385899366724   119.78817544     1.50878195
 C      4   3   2     1.387837457755   121.09345659   359.51355708
 N      5   4   3     1.397418936832   121.35560551   182.10308329
 H      6   5   4     1.010236627478   113.53503569   216.10099400
 H      6   5   4     1.009920097967   113.11963691   344.97728101
 C      1   2   3     1.387838824773   121.09346209   359.51359176
 N      9   1   2     1.397413952254   121.35549349   182.10294962
 H     10   9   1     1.010235347891   113.53515429   216.09518754
 H     10   9   1     1.009919180517   113.12043227   344.97334709
 H      4   3   2     1.081634557785   119.96106935   179.11626470
 H      3   2   1     1.080253961818   120.41970107   180.80859674
 H      2   1   3     1.080253996439   119.78842823   180.69542416
 H      1   2   3     1.081634222289   119.96112404   179.11624688

---------------------------
INTERNAL COORDINATES (A.U.)
---------------------------
 C      0   0   0     0.000000000000     0.00000000     0.00000000
 C      1   0   0     2.618969683785     0.00000000     0.00000000
 C      2   1   0     2.611532775477   119.78822945     0.00000000
 C      3   2   1     2.618970252284   119.78817544     1.50878195
 C      4   3   2     2.622632713554   121.09345659   359.51355708
 N      5   4   3     2.640739084968   121.35560551   182.10308329
 H      6   5   4     1.909070556389   113.53503569   216.10099400
 H      6   5   4     1.908472402300   113.11963691   344.97728101
 C      1   2   3     2.622635296844   121.09346209   359.51359176
 N      9   1   2     2.640729665481   121.35549349   182.10294962
 H     10   9   1     1.909068138321   113.53515429   216.09518754
 H     10   9   1     1.908470668571   113.12043227   344.97334709
 H      4   3   2     2.043993091198   119.96106935   179.11626470
 H      3   2   1     2.041384142920   120.41970107   180.80859674
 H      2   1   3     2.041384208344   119.78842823   180.69542416
 H      1   2   3     2.043992457202   119.96112404   179.11624688

---------------------
BASIS SET INFORMATION
---------------------
There are 3 groups of distinct atoms

 Group   1 Type C   : 7s4p1d contracted to 3s2p1d pattern {511/31/1}
 Group   2 Type N   : 7s4p1d contracted to 3s2p1d pattern {511/31/1}
 Group   3 Type H   : 4s contracted to 2s pattern {31}

Atom   0C    basis set group =>   1
Atom   1C    basis set group =>   1
Atom   2C    basis set group =>   1
Atom   3C    basis set group =>   1
Atom   4C    basis set group =>   1
Atom   5N    basis set group =>   2
Atom   6H    basis set group =>   3
Atom   7H    basis set group =>   3
Atom   8C    basis set group =>   1
Atom   9N    basis set group =>   2
Atom  10H    basis set group =>   3
Atom  11H    basis set group =>   3
Atom  12H    basis set group =>   3
Atom  13H    basis set group =>   3
Atom  14H    basis set group =>   3
Atom  15H    basis set group =>   3
---------------------------------
AUXILIARY/J BASIS SET INFORMATION
---------------------------------
There are 3 groups of distinct atoms

 Group   1 Type C   : 12s5p4d2f1g contracted to 6s4p3d1f1g pattern {711111/2111/211/2/1}
 Group   2 Type N   : 12s5p4d2f1g contracted to 6s4p3d1f1g pattern {711111/2111/211/2/1}
 Group   3 Type H   : 5s2p1d contracted to 3s1p1d pattern {311/2/1}

Atom   0C    basis set group =>   1
Atom   1C    basis set group =>   1
Atom   2C    basis set group =>   1
Atom   3C    basis set group =>   1
Atom   4C    basis set group =>   1
Atom   5N    basis set group =>   2
Atom   6H    basis set group =>   3
Atom   7H    basis set group =>   3
Atom   8C    basis set group =>   1
Atom   9N    basis set group =>   2
Atom  10H    basis set group =>   3
Atom  11H    basis set group =>   3
Atom  12H    basis set group =>   3
Atom  13H    basis set group =>   3
Atom  14H    basis set group =>   3
Atom  15H    basis set group =>   3


           ************************************************************
           *        Program running with 4 parallel MPI-processes     *
           *              working on a common directory               *
           ************************************************************
------------------------------------------------------------------------------
                             ORCA STARTUP CALCULATIONS
                           -- RI-GTO INTEGRALS CHOSEN --
------------------------------------------------------------------------------
------------------------------------------------------------------------------
                   ___                                                        
                  /   \      - P O W E R E D   B Y -                         
                 /     \                                                     
                 |  |  |   _    _      __       _____    __    __             
                 |  |  |  | |  | |    /  \     |  _  \  |  |  /  |          
                  \  \/   | |  | |   /    \    | | | |  |  | /  /          
                 / \  \   | |__| |  /  /\  \   | |_| |  |  |/  /          
                |  |  |   |  __  | /  /__\  \  |    /   |      \           
                |  |  |   | |  | | |   __   |  |    \   |  |\   \          
                \     /   | |  | | |  |  |  |  | |\  \  |  | \   \       
                 \___/    |_|  |_| |__|  |__|  |_| \__\ |__|  \__/        
                                                                              
                      - O R C A' S   B I G   F R I E N D -                    
                                      &                                       
                       - I N T E G R A L  F E E D E R -                       
                                                                              
 v1 FN, 2020, v2 2021, v3 2022-2024                                           
------------------------------------------------------------------------------


----------------------
SHARK INTEGRAL PACKAGE
----------------------

Number of atoms                             ...     16
Number of basis functions                   ...    128
Number of shells                            ...     64
Maximum angular momentum                    ...      2
Integral batch strategy                     ... SHARK/LIBINT Hybrid
RI-J (if used) integral strategy            ... SPLIT-RIJ (Revised 2003 algorithm where possible)
Printlevel                                  ...      1
Contraction scheme used                     ... SEGMENTED contraction
Prescreening option                         ... SCHWARTZ
   Thresh                                   ... 2.500e-11
   Tcut                                     ... 2.500e-12
   Tpresel                                  ... 2.500e-12 
Coulomb Range Separation                    ... NOT USED
Exchange Range Separation                   ... NOT USED
Multipole approximations                    ... NOT USED
Finite Nucleus Model                        ... NOT USED
CABS basis                                  ... NOT available
Auxiliary Coulomb fitting basis             ... AVAILABLE
   # of basis functions in Aux-J            ...    480
   # of shells in Aux-J                     ...    160
   Maximum angular momentum in Aux-J        ...      4
Auxiliary J/K fitting basis                 ... NOT available
Auxiliary Correlation fitting basis         ... NOT available
Auxiliary 'external' fitting basis          ... NOT available

Checking pre-screening integrals            ... done (  0.0 sec) Dimension = 64
Check shell pair data                       ... done (  0.0 sec)
Shell pair information
Shell pair cut-off parameter TPreSel        ...   2.5e-12
Total number of shell pairs                 ...      2080
Shell pairs after pre-screening             ...      2016
Total number of primitive shell pairs       ...      8384
Primitive shell pairs kept                  ...      5947
          la=0 lb=0:    780 shell pairs
          la=1 lb=0:    630 shell pairs
          la=1 lb=1:    136 shell pairs
          la=2 lb=0:    306 shell pairs
          la=2 lb=1:    128 shell pairs
          la=2 lb=2:     36 shell pairs

Calculating one electron integrals          ... done (  0.0 sec)
Calculating RI/J V-Matrix + Cholesky decomp.... done (  0.1 sec)
Calculating Nuclear repulsion               ... done (  0.0 sec) ENN=    352.403203768015 Eh

Diagonalization of the overlap matrix:
Smallest eigenvalue                        ... 2.047e-04
Time for diagonalization                   ...    0.003 sec
Threshold for overlap eigenvalues          ... 1.000e-07
Number of eigenvalues below threshold      ... 0
Time for construction of square roots      ...    0.023 sec
Total time needed                          ...    0.058 sec

-------------------
DFT GRID GENERATION
-------------------

General Integration Accuracy     IntAcc      ... 4.388
Radial Grid Type                 RadialGrid  ... OptM3 with GC (2021)
Angular Grid (max. ang.)         AngularGrid ... 4 (Lebedev-302)
Angular grid pruning method      GridPruning ... 4 (adaptive)
Weight generation scheme         WeightScheme... mBecke (2022)
Basis function cutoff            BFCut       ... 1.0000e-11
Integration weight cutoff        WCut        ... 1.0000e-14
Partially contracted basis set               ... off
Rotationally invariant grid construction     ... off
Angular grids for H and He will be reduced by one unit

Total number of grid points                  ...    73824
Total number of batches                      ...     1164
Average number of points per batch           ...       63
Average number of grid points per atom       ...     4614

--------------------
COSX GRID GENERATION
--------------------

GRIDX 1
-------
General Integration Accuracy     IntAcc      ... 3.816
Radial Grid Type                 RadialGrid  ... OptM3 with GC (2021)
Angular Grid (max. ang.)         AngularGrid ... 1 (Lebedev-50)
Angular grid pruning method      GridPruning ... 4 (adaptive)
Weight generation scheme         WeightScheme... mBecke (2022)
Basis function cutoff            BFCut       ... 1.0000e-11
Integration weight cutoff        WCut        ... 1.0000e-14
Partially contracted basis set               ... on
Rotationally invariant grid construction     ... off
Angular grids for H and He will be reduced by one unit

Total number of grid points                  ...     9466
Total number of batches                      ...       84
Average number of points per batch           ...      112
Average number of grid points per atom       ...      592
UseSFitting                                  ... on

GRIDX 2
-------
General Integration Accuracy     IntAcc      ... 4.020
Radial Grid Type                 RadialGrid  ... OptM3 with GC (2021)
Angular Grid (max. ang.)         AngularGrid ... 2 (Lebedev-110)
Angular grid pruning method      GridPruning ... 4 (adaptive)
Weight generation scheme         WeightScheme... mBecke (2022)
Basis function cutoff            BFCut       ... 1.0000e-11
Integration weight cutoff        WCut        ... 1.0000e-14
Partially contracted basis set               ... on
Rotationally invariant grid construction     ... off
Angular grids for H and He will be reduced by one unit

Total number of grid points                  ...    20454
Total number of batches                      ...      168
Average number of points per batch           ...      121
Average number of grid points per atom       ...     1278
UseSFitting                                  ... on

GRIDX 3
-------
General Integration Accuracy     IntAcc      ... 4.338
Radial Grid Type                 RadialGrid  ... OptM3 with GC (2021)
Angular Grid (max. ang.)         AngularGrid ... 3 (Lebedev-194)
Angular grid pruning method      GridPruning ... 4 (adaptive)
Weight generation scheme         WeightScheme... mBecke (2022)
Basis function cutoff            BFCut       ... 1.0000e-11
Integration weight cutoff        WCut        ... 1.0000e-14
Partially contracted basis set               ... on
Rotationally invariant grid construction     ... off
Angular grids for H and He will be reduced by one unit

Total number of grid points                  ...    44934
Total number of batches                      ...      360
Average number of points per batch           ...      124
Average number of grid points per atom       ...     2808
UseSFitting                                  ... on
Initializing property integral containers    ... done (  0.1 sec)

SHARK setup successfully completed in   2.2 seconds

Maximum memory used throughout the entire STARTUP-calculation: 19.9 MB


           ************************************************************
           *        Program running with 4 parallel MPI-processes     *
           *              working on a common directory               *
           ************************************************************
-------------------------------------------------------------------------------
                                 ORCA GUESS
                   Start orbitals & Density for SCF / CASSCF
-------------------------------------------------------------------------------

------------
SCF SETTINGS
------------
Hamiltonian:
 Density Functional     Method          .... DFT(GTOs)
 Exchange Functional    Exchange        .... PBE
   PBE kappa parameter   XKappa         ....  0.804000
   PBE mue parameter    XMuePBE         ....  0.219520
 Correlation Functional Correlation     .... PBE
   PBE beta parameter  CBetaPBE         ....  0.066725
 LDA part of GGA corr.  LDAOpt          .... PW91-LDA
 Gradients option       PostSCFGGA      .... off
 Hybrid DFT is turned on
   Fraction HF Exchange ScalHFX         ....  0.250000
   Scaling of DF-GGA-X  ScalDFX         ....  0.750000
   Scaling of DF-GGA-C  ScalDFC         ....  1.000000
   Scaling of DF-LDA-C  ScalLDAC        ....  1.000000
   Perturbative correction              ....  0.000000
   NL short-range parameter             ....  6.900000
 RI-approximation to the Coulomb term is turned on
   Number of AuxJ basis functions       .... 480
   RIJ-COSX (HFX calculated with COS-X)).... on


General Settings:
 Integral files         IntName         .... cs_rporg_064_red_opt_01
 Hartree-Fock type      HFTyp           .... RHF
 Total Charge           Charge          ....    0
 Multiplicity           Mult            ....    1
 Number of Electrons    NEL             ....   58
 Basis Dimension        Dim             ....  128
 Nuclear Repulsion      ENuc            ....    352.4032037680 Eh

Convergence Acceleration:
 AO-DIIS                CNVDIIS         .... on
   Start iteration      DIISMaxIt       ....     0
   Startup error        DIISStart       ....  0.200000
   # of expansion vecs  DIISMaxEq       ....     5
   Bias factor          DIISBfac        ....   1.050
   Max. coefficient     DIISMaxC        ....  10.000
 MO-DIIS                CNVKDIIS        .... off
 Trust-Rad. Augm. Hess. CNVTRAH         .... auto
   Auto Start mean grad. ratio tolernc. ....  1.125000
   Auto Start start iteration           ....    50
   Auto Start num. interpolation iter.  ....    10
   Max. Number of Micro iterations      ....    24
   Max. Number of Macro iterations      .... Maxiter - #DIIS iter
   Number of Davidson start vectors     ....     2
   Converg. threshold    (grad. norm)   ....   1.000e-05
   Grad. Scal. Fac. for Micro threshold ....   0.100
   Minimum threshold for Micro iter.    ....   1.000e-02
   NR start threshold (gradient norm)   ....   1.000e-04
   Initial trust radius                 ....   0.400
   Minimum AH scaling param. (alpha)    ....   1.000
   Maximum AH scaling param. (alpha)    .... 1000.000
   Quad. conv. algorithm                .... NR
   White noise on init. David. guess    .... on
   Maximum white noise                  ....   0.010
   Pseudo random numbers                .... off
   Inactive MOs                         .... canonical
   Orbital update algorithm             .... Taylor
   Preconditioner                       .... Diag
   Full preconditioner red. dimension   ....   250
 SOSCF                  CNVSOSCF        .... on
   Start iteration      SOSCFMaxIt      ....   150
   Startup grad/error   SOSCFStart      ....  0.001000
   Hessian update       SOSCFHessUp     .... L-BFGS
 Level Shifting         CNVShift        .... on
   Level shift para.    LevelShift      ....    0.2500
   Turn off err/grad.   ShiftErr        ....    0.0000
 Zerner damping         CNVZerner       .... off
 Static damping         CNVDamp         .... on
   Fraction old density DampFac         ....    0.8500
   Max. Damping (<1)    DampMax         ....    0.9800
   Min. Damping (>=0)   DampMin         ....    0.0000
   Turn off err/grad.   DampErr         ....    0.0300

SCF Procedure:
 Maximum # iterations   MaxIter         ....  1500
 SCF integral mode      SCFMode         .... Direct
   Integral package                     .... SHARK and LIBINT hybrid scheme
 Reset frequency        DirectResetFreq ....    20
 Integral Threshold     Thresh          ....  2.500e-11 Eh
 Primitive CutOff       TCut            ....  2.500e-12 Eh

Convergence Tolerance:
 Convergence Check Mode ConvCheckMode   .... Total+1el-Energy
 Convergence forced     ConvForced      .... 0
 Energy Change          TolE            ....  1.000e-08 Eh
 1-El. energy change                    ....  1.000e-05 Eh
 Orbital Gradient       TolG            ....  1.000e-05
 Orbital Rotation angle TolX            ....  1.000e-05
 DIIS Error             TolErr          ....  5.000e-07

------------------------------
INITIAL GUESS: MODEL POTENTIAL
------------------------------
Loading Hartree-Fock densities                     ... done
Calculating cut-offs                               ... done
Initializing the effective Hamiltonian             ... done
Setting up the integral package (SHARK)            ... done
Starting the Coulomb interaction                   ... done (   0.1 sec)
Making the grid                                    ... done (   0.2 sec)
Mapping shells                                     ... done
Starting the XC term evaluation                    ... done (   0.1 sec)
  promolecular density results
     # of electrons  =     57.994331316
     EX              =    -46.167521714
     EC              =     -1.924569543
     EX+EC           =    -48.092091257
Transforming the Hamiltonian                       ... done (   0.0 sec)
Diagonalizing the Hamiltonian                      ... done (   0.0 sec)
Back transforming the eigenvectors                 ... done (   0.0 sec)
Now organizing SCF variables                       ... done
                      ------------------
                      INITIAL GUESS DONE (   0.6 sec)
                      ------------------
             **** ENERGY FILE WAS UPDATED (cs_rporg_064_red_opt_01.en.tmp) ****
Finished Guess after   1.3 sec
Maximum memory used throughout the entire GUESS-calculation: 10.8 MB


           ************************************************************
           *        Program running with 4 parallel MPI-processes     *
           *              working on a common directory               *
           ************************************************************

-------------------------------------------------------------------------------------------
                                      ORCA LEAN-SCF
                              memory conserving SCF solver
-------------------------------------------------------------------------------------------

----------------------------------------D-I-I-S--------------------------------------------
Iteration    Energy (Eh)           Delta-E    RMSDP     MaxDP     DIISErr   Damp  Time(sec)
-------------------------------------------------------------------------------------------
               ***  Starting incremental Fock matrix formation  ***
    1    -342.0544121370004973     0.00e+00  2.70e-03  3.85e-02  2.11e-01  0.850   1.9
    2    -342.1129987974916844    -5.86e-02  2.55e-03  3.27e-02  1.59e-01  0.850   1.4
                               ***Turning on AO-DIIS***
    3    -342.1529783808668412    -4.00e-02  1.61e-03  1.88e-02  1.11e-01  0.850   3.0
    4    -342.1795310871037259    -2.66e-02  1.17e-03  1.31e-02  8.83e-02  0.850   3.2
    5    -342.1989245341030141    -1.94e-02  9.24e-04  1.01e-02  7.35e-02  0.850   1.8
    6    -342.2140758590192604    -1.52e-02  7.69e-04  8.39e-03  6.18e-02  0.850   1.6
    7    -342.2263204638458660    -1.22e-02  6.56e-04  7.24e-03  5.18e-02  0.850   1.5
    8    -342.2363444848263612    -1.00e-02  5.63e-04  6.28e-03  4.33e-02  0.850   1.6
    9    -342.2445868228764425    -8.24e-03  4.81e-04  5.38e-03  3.63e-02  0.850   1.4
   10    -342.2513904543889680    -6.80e-03  4.07e-04  4.54e-03  3.05e-02  0.850   1.6
   11    -342.2570294065013172    -5.64e-03  3.43e-04  3.84e-03  2.56e-02  0.850   1.8
   12    -342.2617209269666887    -4.69e-03  1.93e-03  2.17e-02  2.15e-02  0.000   1.6
   13    -342.2866873196342681    -2.50e-02  6.25e-05  1.27e-03  1.90e-03  0.000   1.6
                              *** Initializing SOSCF ***
---------------------------------------S-O-S-C-F--------------------------------------
Iteration    Energy (Eh)           Delta-E    RMSDP     MaxDP     MaxGrad    Time(sec)
--------------------------------------------------------------------------------------
   14    -342.2867026046374690    -1.53e-05  2.09e-05  2.38e-04  3.14e-04     1.7
               *** Restarting incremental Fock matrix formation ***
   15    -342.2867731393121744    -7.05e-05  6.22e-05  1.06e-03  5.03e-05     1.8
   16    -342.2867732075250728    -6.82e-08  1.77e-05  3.14e-04  5.60e-05     1.7
   17    -342.2867733085866462    -1.01e-07  1.25e-05  2.18e-04  1.13e-05     1.4
   18    -342.2867733107339632    -2.15e-09  2.33e-06  3.77e-05  1.10e-05     1.4
                 **** Energy Check signals convergence ****

               *****************************************************
               *                     SUCCESS                       *
               *           SCF CONVERGED AFTER  18 CYCLES          *
               *****************************************************

Recomputing exchange energy using gridx3       ... done (    1.762 sec)
Old exchange energy                            :    -11.790119765 Eh
New exchange energy                            :    -11.790169524 Eh
Exchange energy change after final integration :     -0.000049760 Eh
Total energy after final integration           :   -342.286823070 Eh
             **** ENERGY FILE WAS UPDATED (cs_rporg_064_red_opt_01.en.tmp) ****

----------------
TOTAL SCF ENERGY
----------------

Total Energy       :       -342.28682307025809 Eh           -9314.09798 eV

Components:
Nuclear Repulsion  :        352.40320376801520 Eh            9589.37869 eV
Electronic Energy  :       -694.68997707874928 Eh          -18903.47531 eV
One Electron Energy:      -1160.53061947134188 Eh          -31579.64363 eV
Two Electron Energy:        465.84064239259266 Eh           12676.16832 eV

Virial components:
Potential Energy   :       -681.64057537434451 Eh          -18548.38304 eV
Kinetic Energy     :        339.35375230408636 Eh            9234.28506 eV
Virial Ratio       :          2.00864310692384

DFT components:
N(Alpha)           :       29.000010951387 electrons
N(Beta)            :       29.000010951387 electrons
N(Total)           :       58.000021902774 electrons
E(X)               :      -35.263156865168 Eh       
E(C)               :       -1.944204230403 Eh       
E(XC)              :      -37.207361095571 Eh       

---------------
SCF CONVERGENCE
---------------

  Last Energy change         ...    2.1473e-09  Tolerance :   1.0000e-08
  Last MAX-Density change    ...    3.7743e-05  Tolerance :   1.0000e-07
  Last RMS-Density change    ...    2.3299e-06  Tolerance :   5.0000e-09
  Last DIIS Error            ...    3.1429e-04  Tolerance :   5.0000e-07
  Last Orbital Gradient      ...    1.0963e-05  Tolerance :   1.0000e-05
  Last Orbital Rotation      ...    2.3917e-05  Tolerance :   1.0000e-05


----------------
ORBITAL ENERGIES
----------------

  NO   OCC          E(Eh)            E(eV) 
   0   2.0000     -14.386236      -391.4694 
   1   2.0000     -14.386179      -391.4678 
   2   2.0000     -10.259417      -279.1729 
   3   2.0000     -10.259015      -279.1620 
   4   2.0000     -10.216143      -277.9954 
   5   2.0000     -10.216077      -277.9936 
   6   2.0000     -10.212136      -277.8864 
   7   2.0000     -10.211637      -277.8728 
   8   2.0000      -0.952707       -25.9245 
   9   2.0000      -0.908312       -24.7164 
  10   2.0000      -0.842798       -22.9337 
  11   2.0000      -0.742461       -20.2034 
  12   2.0000      -0.726827       -19.7780 
  13   2.0000      -0.629416       -17.1273 
  14   2.0000      -0.604810       -16.4577 
  15   2.0000      -0.543856       -14.7991 
  16   2.0000      -0.532826       -14.4989 
  17   2.0000      -0.507728       -13.8160 
  18   2.0000      -0.488562       -13.2945 
  19   2.0000      -0.450695       -12.2640 
  20   2.0000      -0.432579       -11.7711 
  21   2.0000      -0.431785       -11.7495 
  22   2.0000      -0.406672       -11.0661 
  23   2.0000      -0.364194        -9.9102 
  24   2.0000      -0.353243        -9.6122 
  25   2.0000      -0.326665        -8.8890 
  26   2.0000      -0.315209        -8.5773 
  27   2.0000      -0.232847        -6.3361 
  28   2.0000      -0.196266        -5.3407 
  29   0.0000       0.019337         0.5262 
  30   0.0000       0.032079         0.8729 
  31   0.0000       0.063113         1.7174 
  32   0.0000       0.087329         2.3763 
  33   0.0000       0.088026         2.3953 
  34   0.0000       0.128351         3.4926 
  35   0.0000       0.131419         3.5761 
  36   0.0000       0.157108         4.2751 
  37   0.0000       0.160645         4.3714 
  38   0.0000       0.189947         5.1687 
  39   0.0000       0.192258         5.2316 
*Only the first 10 virtual orbitals were printed.

                    ********************************
                    * MULLIKEN POPULATION ANALYSIS *
                    ********************************

-----------------------
MULLIKEN ATOMIC CHARGES
-----------------------
   0 C :   -0.187095
   1 C :   -0.085541
   2 C :   -0.085544
   3 C :   -0.187094
   4 C :    0.102942
   5 N :   -0.442630
   6 H :    0.244093
   7 H :    0.239180
   8 C :    0.102942
   9 N :   -0.442624
  10 H :    0.244092
  11 H :    0.239181
  12 H :    0.051984
  13 H :    0.077064
  14 H :    0.077065
  15 H :    0.051985
Sum of atomic charges:   -0.0000000

--------------------------------
MULLIKEN REDUCED ORBITAL CHARGES
--------------------------------
  0 C s       :     3.286720  s :     3.286720
      pz      :     1.064610  p :     2.863634
      px      :     0.981179
      py      :     0.817845
      dz2     :     0.003643  d :     0.036741
      dxz     :     0.007754
      dyz     :     0.002024
      dx2y2   :     0.013938
      dxy     :     0.009383

  1 C s       :     3.170450  s :     3.170450
      pz      :     1.026031  p :     2.876520
      px      :     0.898796
      py      :     0.951693
      dz2     :     0.003540  d :     0.038571
      dxz     :     0.003760
      dyz     :     0.006418
      dx2y2   :     0.010901
      dxy     :     0.013953

  2 C s       :     3.170450  s :     3.170450
      pz      :     1.026035  p :     2.876523
      px      :     0.898791
      py      :     0.951697
      dz2     :     0.003541  d :     0.038571
      dxz     :     0.003759
      dyz     :     0.006418
      dx2y2   :     0.010901
      dxy     :     0.013953

  3 C s       :     3.286715  s :     3.286715
      pz      :     1.064607  p :     2.863637
      px      :     0.981186
      py      :     0.817844
      dz2     :     0.003643  d :     0.036742
      dxz     :     0.007754
      dyz     :     0.002024
      dx2y2   :     0.013938
      dxy     :     0.009383

  4 C s       :     2.921674  s :     2.921674
      pz      :     1.007352  p :     2.915820
      px      :     0.844474
      py      :     1.063994
      dz2     :     0.004315  d :     0.059564
      dxz     :     0.013597
      dyz     :     0.008036
      dx2y2   :     0.017114
      dxy     :     0.016501

  5 N s       :     3.435155  s :     3.435155
      pz      :     1.666305  p :     3.983998
      px      :     1.195169
      py      :     1.122524
      dz2     :     0.002321  d :     0.023477
      dxz     :     0.006423
      dyz     :     0.003643
      dx2y2   :     0.006854
      dxy     :     0.004236

  6 H s       :     0.755907  s :     0.755907

  7 H s       :     0.760820  s :     0.760820

  8 C s       :     2.921678  s :     2.921678
      pz      :     1.007343  p :     2.915816
      px      :     0.844475
      py      :     1.063998
      dz2     :     0.004315  d :     0.059564
      dxz     :     0.013597
      dyz     :     0.008036
      dx2y2   :     0.017114
      dxy     :     0.016501

  9 N s       :     3.435148  s :     3.435148
      pz      :     1.666330  p :     3.984000
      px      :     1.195153
      py      :     1.122517
      dz2     :     0.002320  d :     0.023476
      dxz     :     0.006423
      dyz     :     0.003644
      dx2y2   :     0.006854
      dxy     :     0.004236

 10 H s       :     0.755908  s :     0.755908

 11 H s       :     0.760819  s :     0.760819

 12 H s       :     0.948016  s :     0.948016

 13 H s       :     0.922936  s :     0.922936

 14 H s       :     0.922935  s :     0.922935

 15 H s       :     0.948015  s :     0.948015



                     *******************************
                     * LOEWDIN POPULATION ANALYSIS *
                     *******************************

----------------------
LOEWDIN ATOMIC CHARGES
----------------------
   0 C :   -0.162507
   1 C :   -0.149899
   2 C :   -0.149901
   3 C :   -0.162505
   4 C :   -0.024568
   5 N :   -0.363618
   6 H :    0.225710
   7 H :    0.228004
   8 C :   -0.024565
   9 N :   -0.363615
  10 H :    0.225710
  11 H :    0.228005
  12 H :    0.122351
  13 H :    0.124523
  14 H :    0.124523
  15 H :    0.122351

-------------------------------
LOEWDIN REDUCED ORBITAL CHARGES
-------------------------------
  0 C s       :     2.886133  s :     2.886133
      pz      :     1.052036  p :     3.183862
      px      :     1.075227
      py      :     1.056599
      dz2     :     0.007498  d :     0.092512
      dxz     :     0.016515
      dyz     :     0.003078
      dx2y2   :     0.037500
      dxy     :     0.027921

  1 C s       :     2.884324  s :     2.884324
      pz      :     1.018837  p :     3.169705
      px      :     1.067160
      py      :     1.083709
      dz2     :     0.007397  d :     0.095870
      dxz     :     0.007201
      dyz     :     0.013397
      dx2y2   :     0.030779
      dxy     :     0.037095

  2 C s       :     2.884324  s :     2.884324
      pz      :     1.018840  p :     3.169708
      px      :     1.067158
      py      :     1.083709
      dz2     :     0.007397  d :     0.095870
      dxz     :     0.007200
      dyz     :     0.013398
      dx2y2   :     0.030780
      dxy     :     0.037094

  3 C s       :     2.886133  s :     2.886133
      pz      :     1.052032  p :     3.183860
      px      :     1.075227
      py      :     1.056600
      dz2     :     0.007498  d :     0.092512
      dxz     :     0.016515
      dyz     :     0.003078
      dx2y2   :     0.037501
      dxy     :     0.027920

  4 C s       :     2.830519  s :     2.830519
      pz      :     0.997608  p :     3.049264
      px      :     1.001611
      py      :     1.050045
      dz2     :     0.009730  d :     0.144785
      dxz     :     0.027334
      dyz     :     0.016225
      dx2y2   :     0.045850
      dxy     :     0.045645

  5 N s       :     3.193982  s :     3.193982
      pz      :     1.672856  p :     4.121920
      px      :     1.253216
      py      :     1.195847
      dz2     :     0.003975  d :     0.047717
      dxz     :     0.011217
      dyz     :     0.005946
      dx2y2   :     0.015699
      dxy     :     0.010880

  6 H s       :     0.774290  s :     0.774290

  7 H s       :     0.771996  s :     0.771996

  8 C s       :     2.830519  s :     2.830519
      pz      :     0.997601  p :     3.049260
      px      :     1.001606
      py      :     1.050053
      dz2     :     0.009730  d :     0.144786
      dxz     :     0.027336
      dyz     :     0.016224
      dx2y2   :     0.045851
      dxy     :     0.045644

  9 N s       :     3.193975  s :     3.193975
      pz      :     1.672877  p :     4.121923
      px      :     1.253200
      py      :     1.195846
      dz2     :     0.003974  d :     0.047716
      dxz     :     0.011216
      dyz     :     0.005947
      dx2y2   :     0.015698
      dxy     :     0.010881

 10 H s       :     0.774290  s :     0.774290

 11 H s       :     0.771995  s :     0.771995

 12 H s       :     0.877649  s :     0.877649

 13 H s       :     0.875477  s :     0.875477

 14 H s       :     0.875477  s :     0.875477

 15 H s       :     0.877649  s :     0.877649



                      *****************************
                      * MAYER POPULATION ANALYSIS *
                      *****************************

  NA   - Mulliken gross atomic population
  ZA   - Total nuclear charge
  QA   - Mulliken gross atomic charge
  VA   - Mayer's total valence
  BVA  - Mayer's bonded valence
  FA   - Mayer's free valence

  ATOM       NA         ZA         QA         VA         BVA        FA
  0 C      6.1871     6.0000    -0.1871     3.8431     3.8431     0.0000
  1 C      6.0855     6.0000    -0.0855     3.8106     3.8106     0.0000
  2 C      6.0855     6.0000    -0.0855     3.8106     3.8106    -0.0000
  3 C      6.1871     6.0000    -0.1871     3.8431     3.8431     0.0000
  4 C      5.8971     6.0000     0.1029     4.0736     4.0736    -0.0000
  5 N      7.4426     7.0000    -0.4426     3.0168     3.0168    -0.0000
  6 H      0.7559     1.0000     0.2441     0.9123     0.9123    -0.0000
  7 H      0.7608     1.0000     0.2392     0.9144     0.9144    -0.0000
  8 C      5.8971     6.0000     0.1029     4.0736     4.0736     0.0000
  9 N      7.4426     7.0000    -0.4426     3.0168     3.0168    -0.0000
 10 H      0.7559     1.0000     0.2441     0.9123     0.9123    -0.0000
 11 H      0.7608     1.0000     0.2392     0.9144     0.9144    -0.0000
 12 H      0.9480     1.0000     0.0520     0.9645     0.9645     0.0000
 13 H      0.9229     1.0000     0.0771     0.9513     0.9513    -0.0000
 14 H      0.9229     1.0000     0.0771     0.9513     0.9513     0.0000
 15 H      0.9480     1.0000     0.0520     0.9645     0.9645    -0.0000

  Mayer bond orders larger than 0.100000
B(  0-C ,  1-C ) :   1.3518 B(  0-C ,  8-C ) :   1.3836 B(  0-C , 15-H ) :   0.9710 
B(  1-C ,  2-C ) :   1.3906 B(  1-C , 14-H ) :   0.9700 B(  2-C ,  3-C ) :   1.3518 
B(  2-C , 13-H ) :   0.9700 B(  3-C ,  4-C ) :   1.3836 B(  3-C , 12-H ) :   0.9710 
B(  4-C ,  5-N ) :   1.1782 B(  4-C ,  8-C ) :   1.3467 B(  5-N ,  6-H ) :   0.8631 
B(  5-N ,  7-H ) :   0.8809 B(  8-C ,  9-N ) :   1.1782 B(  9-N , 10-H ) :   0.8631 
B(  9-N , 11-H ) :   0.8809 

-------
TIMINGS
-------

Total SCF time: 0 days 0 hours 0 min 35 sec 

Total time                  ....      35.124 sec
Sum of individual times     ....      33.844 sec  ( 96.4%)

SCF preparation             ....       0.712 sec  (  2.0%)
Fock matrix formation       ....      26.245 sec  ( 74.7%)
  Startup                   ....       1.339 sec  (  5.1% of F)
  Split-RI-J                ....       3.516 sec  ( 13.4% of F)
  Chain of spheres X        ....      11.719 sec  ( 44.7% of F)
  XC integration            ....       7.008 sec  ( 26.7% of F)
    XC Preparation          ....       0.000 sec  (  0.0% of XC)
    Basis function eval.    ....       1.719 sec  ( 24.5% of XC)
    Density eval.           ....       0.636 sec  (  9.1% of XC)
    XC-Functional eval.     ....       0.473 sec  (  6.7% of XC)
    XC-Potential eval.      ....       1.046 sec  ( 14.9% of XC)
Diagonalization             ....       0.000 sec  (  0.0%)
Density matrix formation    ....       1.936 sec  (  5.5%)
Total Energy calculation    ....       0.827 sec  (  2.4%)
Population analysis         ....       0.233 sec  (  0.7%)
Orbital Transformation      ....       0.168 sec  (  0.5%)
Orbital Orthonormalization  ....       0.000 sec  (  0.0%)
DIIS solution               ....       3.292 sec  (  9.4%)
SOSCF solution              ....       0.431 sec  (  1.2%)
Finished LeanSCF after  35.3 sec

Maximum memory used throughout the entire LEANSCF-calculation: 14.5 MB


           ************************************************************
           *        Program running with 4 parallel MPI-processes     *
           *              working on a common directory               *
           ************************************************************

------------------------------------------------------------------------------
                         ORCA PROPERTY INTEGRAL CALCULATIONS
------------------------------------------------------------------------------

GBWName                                   ... cs_rporg_064_red_opt_01.gbw
Number of atoms                           ...     16
Number of basis functions                 ...    128
Max core memory                           ...   3000 MB

Dipole integrals                          ... YES
Quadrupole integrals                      ...  NO
Linear momentum integrals                 ...  NO
Angular momentum integrals                ...  NO
Higher moments length integrals           ...  NO
Higher moments velocity integrals         ...  NO
Kinetic energy integrals                  ...  NO
GIAO right hand sides                     ...  NO
GIAO dipole derivative integrals          ...  NO
SOC integrals                             ...  NO
EPR diamagnetic integrals (GIAO)          ...  NO
EPR gauge integrals                       ...  NO
Field gradient integrals                  ...  NO (   0 nuclei)
Spin-dipole/Fermi contact integrals       ...  NO (   0 nuclei)
Contact density integrals                 ...  NO (   0 nuclei)
Nucleus-orbit integrals                   ...  NO (   0 nuclei)
Geometric perturbations                   ...  NO (  16 nuclei)

Choice of electric origin   ... Center of mass
Position of electric origin ... (  0.0007, -0.0000, -0.0000) 
Choice of magnetic origin   ... GIAO
Position of magnetic origin ... (  0.0000,  0.0000,  0.0000) 

Calculating integrals                     ... Electric Dipole (Length)     done (  0.0 sec)

Property integrals calculated in   0.1 sec

Maximum memory used throughout the entire PROPINT-calculation: 8.5 MB


-------------------------------------------------------------------------------
                          DFT DISPERSION CORRECTION                            
                                                                               
                              DFTD3 V3.1  Rev 1                                
                          USING Becke-Johnson damping                          
-------------------------------------------------------------------------------
The PBE0 functional is recognized
Active option DFTDOPT                   ...         4   

molecular C6(AA) [au] = 2702.512920 


            DFT-D V3
 parameters
 s6 scaling factor         :     1.0000 
 a1 scaling factor         :     0.4145 
 s8 scaling factor         :     1.2177 
 a2 scaling factor         :     4.8593 
 ad hoc parameters k1-k3   :    16.0000     1.3333    -4.0000 

 Edisp/kcal,au: -8.729285423580  -0.013911000317 
 E6   /kcal   :  -5.492046272 
 E8   /kcal   :  -3.237239152 
 % E8         :  37.084812725 

-------------------------   ----------------
Dispersion correction           -0.013911000
-------------------------   ----------------


-------------------------   --------------------
FINAL SINGLE POINT ENERGY      -342.300734070575
-------------------------   --------------------



           ************************************************************
           *        Program running with 4 parallel MPI-processes     *
           *              working on a common directory               *
           ************************************************************
------------------------------------------------------------------------------
                         ORCA SCF GRADIENT CALCULATION
------------------------------------------------------------------------------

Nuc. rep. gradient        (SHARK) ... done (  0.0 sec)
HCore & Overlap gradient  (SHARK) ... done (  0.0 sec)
Split-RIJ-J gradient      (SHARK) ... done (  0.4 sec)
COSX-gradient                     ... done (  6.2 sec)
XC gradient                       ... done (  1.5 sec)
Dispersion correction             ... done (  0.1 sec)

-------------------
DISPERSION GRADIENT
-------------------

   1   C   :   -0.000123907    0.000227893    0.000004978
   2   C   :   -0.000268621    0.000090047    0.000002967
   3   C   :   -0.000268627   -0.000090033   -0.000002965
   4   C   :   -0.000123919   -0.000227886   -0.000004978
   5   C   :    0.000107228   -0.000145384    0.000004578
   6   N   :    0.000230910   -0.000198981    0.000000810
   7   H   :    0.000143368   -0.000064809    0.000033212
   8   H   :    0.000090358   -0.000137845    0.000011469
   9   C   :    0.000107235    0.000145380   -0.000004579
  10   N   :    0.000230920    0.000198970   -0.000000812
  11   H   :    0.000143372    0.000064799   -0.000033208
  12   H   :    0.000090366    0.000137840   -0.000011473
  13   H   :   -0.000038925   -0.000165697   -0.000003326
  14   H   :   -0.000140422   -0.000073854   -0.000001701
  15   H   :   -0.000140418    0.000073861    0.000001702
  16   H   :   -0.000038916    0.000165699    0.000003326

Difference to translation invariance:
           :    0.0000000000    0.0000000000    0.0000000000

Difference to rotation invariance:
           :   -0.0000000000   -0.0000000000   -0.0000000000

Norm of the Dispersion gradient    ...    0.0008723174
RMS gradient                       ...    0.0001259082
MAX gradient                       ...    0.0002686266

------------------
CARTESIAN GRADIENT
------------------

   1   C   :    0.000641236    0.002806869    0.000159321
   2   C   :    0.000638477   -0.000727739    0.000371355
   3   C   :    0.000638969    0.000727967   -0.000371533
   4   C   :    0.000641563   -0.002806668   -0.000159145
   5   C   :   -0.006724923    0.003221546    0.002454394
   6   N   :    0.003924454   -0.006133664    0.004641282
   7   H   :   -0.004882246   -0.001604525   -0.005595852
   8   H   :   -0.001649357    0.004600936   -0.000877219
   9   C   :   -0.006722373   -0.003221579   -0.002454469
  10   N   :    0.003923943    0.006133779   -0.004641798
  11   H   :   -0.004882923    0.001604880    0.005596025
  12   H   :   -0.001649068   -0.004601090    0.000877530
  13   H   :   -0.000295198    0.009707786   -0.000099499
  14   H   :    0.008346875    0.005037538    0.000084942
  15   H   :    0.008346281   -0.005037983   -0.000084747
  16   H   :   -0.000295711   -0.009708054    0.000099413

Difference to translation invariance:
           :   -0.0000000000    0.0000000000   -0.0000000000

Difference to rotation invariance:
           :    0.0000177666    0.0000006342   -0.0000008812

Norm of the Cartesian gradient     ...    0.0288910723
RMS gradient                       ...    0.0041700671
MAX gradient                       ...    0.0097080536

-------
TIMINGS
-------

Total SCF gradient time     ....        8.274 sec

Densities                   ....       0.000 sec  (  0.0%)
One electron gradient       ....       0.049 sec  (  0.6%)
RI-J Coulomb gradient       ....       0.402 sec  (  4.9%)
COSX gradient               ....       6.247 sec  ( 75.5%)
XC gradient                 ....       1.508 sec  ( 18.2%)

Maximum memory used throughout the entire SCFGRAD-calculation: 28.3 MB
------------------------------------------------------------------------------
                         ORCA GEOMETRY RELAXATION STEP
------------------------------------------------------------------------------

Reading the OPT-File                    .... done
Getting information on internals        .... done
Copying old internal coords+grads       .... done
Making the new internal coordinates     .... (2022 redundants) done
Validating the new internal coordinates .... (2022 redundants) done
Calculating the B-matrix                .... done
Calculating the G,G- and P matrices     .... done
Transforming gradient to internals      .... done
Projecting the internal gradient        .... done
Number of atoms                         ....  16
Number of internal coordinates          ....  72
Current Energy                          ....  -342.300734071 Eh
Current gradient norm                   ....     0.028891072 Eh/bohr
Maximum allowed component of the step   ....  0.300
Current trust radius                    ....  0.300
Evaluating the initial hessian          ....  (Almloef) done
Projecting the Hessian                  .... done
Forming the augmented Hessian           .... done
Diagonalizing the augmented Hessian     .... done
Last element of RFO vector              ....  0.989080154
Lowest eigenvalues of augmented Hessian:
 -0.003035723  0.023610761  0.023780740  0.025030109  0.025307663
Length of the computed step             ....  0.149005709
The final length of the internal step   ....  0.149005709
Converting the step to Cartesian space:
 Initial RMS(Int)=    0.0175604912
Transforming coordinates:
 Iter   0:  RMS(Cart)=    0.0347728626 RMS(Int)=    1.0428912915
done
Storing new coordinates                 .... done

                                .--------------------.
          ----------------------|Geometry convergence|-------------------------
          Item                value                   Tolerance       Converged
          ---------------------------------------------------------------------
          RMS gradient        0.0041105181            0.0001000000      NO
          MAX gradient        0.0101109306            0.0003000000      NO
          RMS step            0.0175604912            0.0020000000      NO
          MAX step            0.0536477058            0.0040000000      NO
          ........................................................
          Max(Bonds)      0.0137      Max(Angles)    0.88
          Max(Dihed)        3.07      Max(Improp)    0.00
          ---------------------------------------------------------------------

The optimization has not yet converged - more geometry cycles are needed


    ---------------------------------------------------------------------------
                         Redundant Internal Coordinates
                            (Angstroem and degrees)

        Definition                    Value    dE/dq     Step     New-Value
    ----------------------------------------------------------------------------
     1. B(C   1,C   0)                1.3859 -0.009955  0.0084    1.3943   
     2. B(C   2,C   1)                1.3820 -0.010111  0.0085    1.3905   
     3. B(C   3,C   2)                1.3859 -0.009955  0.0084    1.3943   
     4. B(C   4,C   3)                1.3878 -0.009387  0.0077    1.3956   
     5. B(N   5,C   4)                1.3974 -0.000671  0.0006    1.3981   
     6. B(H   6,N   5)                1.0102 -0.007275  0.0088    1.0191   
     7. B(H   7,N   5)                1.0099 -0.004508  0.0055    1.0154   
     8. B(C   8,C   4)                1.4090 -0.002643  0.0022    1.4112   
     9. B(C   8,C   0)                1.3878 -0.009386  0.0077    1.3956   
    10. B(N   9,C   8)                1.3974 -0.000672  0.0006    1.3981   
    11. B(H  10,N   9)                1.0102 -0.007276  0.0088    1.0191   
    12. B(H  11,N   9)                1.0099 -0.004508  0.0055    1.0154   
    13. B(H  12,C   3)                1.0816 -0.009708  0.0137    1.0954   
    14. B(H  13,C   2)                1.0803 -0.009749  0.0137    1.0940   
    15. B(H  14,C   1)                1.0803 -0.009749  0.0137    1.0940   
    16. B(H  15,C   0)                1.0816 -0.009708  0.0137    1.0954   
    17. A(C   1,C   0,C   8)          121.09 -0.000375    0.04    121.14   
    18. A(C   8,C   0,H  15)          118.94  0.000462   -0.07    118.88   
    19. A(C   1,C   0,H  15)          119.96 -0.000086    0.02    119.98   
    20. A(C   2,C   1,H  14)          120.42 -0.000665    0.07    120.49   
    21. A(C   0,C   1,H  14)          119.79 -0.000424    0.03    119.82   
    22. A(C   0,C   1,C   2)          119.79  0.001088   -0.10    119.68   
    23. A(C   1,C   2,C   3)          119.79  0.001089   -0.10    119.68   
    24. A(C   3,C   2,H  13)          119.79 -0.000425    0.03    119.82   
    25. A(C   1,C   2,H  13)          120.42 -0.000665    0.07    120.49   
    26. A(C   2,C   3,C   4)          121.09 -0.000375    0.04    121.14   
    27. A(C   4,C   3,H  12)          118.94  0.000462   -0.07    118.88   
    28. A(C   2,C   3,H  12)          119.96 -0.000086    0.02    119.98   
    29. A(N   5,C   4,C   8)          119.45  0.006760   -0.86    118.59   
    30. A(C   3,C   4,C   8)          119.09 -0.000715    0.06    119.16   
    31. A(C   3,C   4,N   5)          121.36 -0.006084    0.88    122.24   
    32. A(H   6,N   5,H   7)          111.87  0.001952   -0.49    111.37   
    33. A(C   4,N   5,H   7)          113.12 -0.002703    0.37    113.49   
    34. A(C   4,N   5,H   6)          113.54  0.000429   -0.14    113.40   
    35. A(C   4,C   8,N   9)          119.45  0.006760   -0.86    118.59   
    36. A(C   0,C   8,N   9)          121.36 -0.006084    0.88    122.24   
    37. A(C   0,C   8,C   4)          119.09 -0.000716    0.06    119.16   
    38. A(C   8,N   9,H  11)          113.12 -0.002702    0.37    113.49   
    39. A(C   8,N   9,H  10)          113.54  0.000428   -0.14    113.40   
    40. A(H  10,N   9,H  11)          111.87  0.001952   -0.49    111.37   
    41. D(H  14,C   1,C   0,C   8)   -179.79 -0.000033    0.15   -179.65   
    42. D(C   2,C   1,C   0,H  15)    179.12  0.000130   -0.44    178.67   
    43. D(H  14,C   1,C   0,H  15)     -0.19  0.000194   -0.46     -0.65   
    44. D(C   2,C   1,C   0,C   8)     -0.49 -0.000097    0.17     -0.32   
    45. D(C   3,C   2,C   1,H  14)   -179.19  0.000127   -0.19   -179.38   
    46. D(H  13,C   2,C   1,C   0)   -179.19  0.000127   -0.19   -179.38   
    47. D(C   3,C   2,C   1,C   0)      1.51  0.000190   -0.21      1.29   
    48. D(H  13,C   2,C   1,H  14)      0.11  0.000065   -0.17     -0.06   
    49. D(H  12,C   3,C   2,H  13)     -0.19  0.000194   -0.46     -0.65   
    50. D(H  12,C   3,C   2,C   1)    179.12  0.000130   -0.44    178.67   
    51. D(C   4,C   3,C   2,H  13)   -179.79 -0.000033    0.14   -179.65   
    52. D(C   4,C   3,C   2,C   1)     -0.49 -0.000097    0.17     -0.32   
    53. D(C   8,C   4,C   3,C   2)     -1.54  0.000024   -0.08     -1.62   
    54. D(N   5,C   4,C   3,H  12)      2.50  0.000265   -0.96      1.53   
    55. D(N   5,C   4,C   3,C   2)   -177.90  0.000488   -1.56   -179.46   
    56. D(C   8,C   4,C   3,H  12)    178.86 -0.000199    0.52    179.38   
    57. D(H   7,N   5,C   4,C   8)    168.63 -0.000118    0.79    169.42   
    58. D(H   7,N   5,C   4,C   3)    -15.02 -0.000853    2.32    -12.70   
    59. D(H   6,N   5,C   4,C   8)     39.75 -0.000821    1.28     41.04   
    60. D(H   6,N   5,C   4,C   3)   -143.90 -0.001556    2.80   -141.09   
    61. D(N   9,C   8,C   4,N   5)     -4.62 -0.001828    3.07     -1.55   
    62. D(C   0,C   8,C   4,N   5)    178.95 -0.000904    1.55    180.50   
    63. D(C   0,C   8,C   4,C   3)      2.52  0.000021    0.03      2.55   
    64. D(N   9,C   8,C   0,H  15)      2.50  0.000265   -0.96      1.53   
    65. D(N   9,C   8,C   0,C   1)   -177.90  0.000488   -1.56   -179.46   
    66. D(N   9,C   8,C   4,C   3)    178.95 -0.000904    1.55    180.50   
    67. D(C   4,C   8,C   0,H  15)    178.86 -0.000199    0.52    179.38   
    68. D(C   4,C   8,C   0,C   1)     -1.54  0.000024   -0.08     -1.62   
    69. D(H  11,N   9,C   8,C   0)    -15.03 -0.000853    2.32    -12.71   
    70. D(H  10,N   9,C   8,C   4)     39.75 -0.000821    1.28     41.03   
    71. D(H  10,N   9,C   8,C   0)   -143.90 -0.001556    2.81   -141.10   
    72. D(H  11,N   9,C   8,C   4)    168.63 -0.000118    0.79    169.42   
    ----------------------------------------------------------------------------

Geometry step timings:
Preparation and reading OPT file:      0.003 s ( 9.301 %)
Internal coordinates            :      0.000 s ( 0.274 %)
B/P matrices and projection     :      0.002 s ( 5.785 %)
Hessian update/contruction      :      0.015 s (41.659 %)
Making the step                 :      0.002 s ( 4.543 %)
Converting the step to Cartesian:      0.000 s ( 0.694 %)
Storing new data                :      0.005 s (14.484 %)
Checking convergence            :      0.000 s ( 0.078 %)
Final printing                  :      0.009 s (23.088 %)
Total time                      :      0.037 s

Time for energy+gradient        :     57.100 s
Time for complete geometry iter :     59.440 s

         *************************************************************
         *                GEOMETRY OPTIMIZATION CYCLE   2            *
         *************************************************************
---------------------------------
CARTESIAN COORDINATES (ANGSTROEM)
---------------------------------
  C     -0.696436    1.385564    0.023967
  C     -1.907672    0.695011    0.018902
  C     -1.907710   -0.694920   -0.018903
  C     -0.696510   -1.385537   -0.023971
  C      0.521975   -0.705618    0.001633
  N      1.749563   -1.374490   -0.013603
  H      2.450760   -0.947151    0.589910
  H      1.669332   -2.371580    0.160746
  C      0.522014    0.705581   -0.001644
  N      1.749631    1.374389    0.013583
  H      2.450830    0.946967   -0.589868
  H      1.669466    2.371473   -0.160824
  H     -0.691007   -2.480853   -0.031647
  H     -2.850405   -1.249782   -0.033466
  H     -2.850337    1.249924    0.033470
  H     -0.690874    2.480880    0.031643

----------------------------
CARTESIAN COORDINATES (A.U.)
----------------------------
  NO LB      ZA    FRAG     MASS         X           Y           Z
   0 C     6.0000    0    12.011   -1.316074    2.618337    0.045291
   1 C     6.0000    0    12.011   -3.604977    1.313381    0.035720
   2 C     6.0000    0    12.011   -3.605049   -1.313209   -0.035721
   3 C     6.0000    0    12.011   -1.316214   -2.618286   -0.045299
   4 C     6.0000    0    12.011    0.986391   -1.333425    0.003085
   5 N     7.0000    0    14.007    3.306195   -2.597411   -0.025706
   6 H     1.0000    0     1.008    4.631264   -1.789856    1.114768
   7 H     1.0000    0     1.008    3.154581   -4.481637    0.303766
   8 C     6.0000    0    12.011    0.986463    1.333354   -0.003107
   9 N     7.0000    0    14.007    3.306324    2.597219    0.025667
  10 H     1.0000    0     1.008    4.631398    1.789509   -1.114689
  11 H     1.0000    0     1.008    3.154833    4.481435   -0.303913
  12 H     1.0000    0     1.008   -1.305813   -4.688133   -0.059804
  13 H     1.0000    0     1.008   -5.386486   -2.361746   -0.063241
  14 H     1.0000    0     1.008   -5.386357    2.362013    0.063249
  15 H     1.0000    0     1.008   -1.305562    4.688184    0.059797

--------------------------------
INTERNAL COORDINATES (ANGSTROEM)
--------------------------------
 C      0   0   0     0.000000000000     0.00000000     0.00000000
 C      1   0   0     1.394266759770     0.00000000     0.00000000
 C      2   1   0     1.390445790900   119.68424455     0.00000000
 C      3   2   1     1.394267347221   119.68413541     1.29720816
 C      4   3   2     1.395583283804   121.13633943   359.67937421
 N      5   4   3     1.398067705687   122.23203955   180.52276216
 H      6   5   4     1.019079714394   113.39634163   218.90651696
 H      6   5   4     1.015392576877   113.48767693   347.29585754
 C      1   2   3     1.395583886820   121.13632006   359.67954495
 N      9   1   2     1.398063523825   122.23189495   180.52251960
 H     10   9   1     1.019079031782   113.39653605   218.90127309
 H     10   9   1     1.015392086981   113.48823907   347.29221436
 H      4   3   2     1.095356735852   119.98001999   178.66868514
 H      3   2   1     1.093964792011   120.49082794   180.61650128
 H      2   1   3     1.093964436588   119.82147900   180.67599801
 H      1   2   3     1.095356795624   119.98008995   178.66870645

---------------------------
INTERNAL COORDINATES (A.U.)
---------------------------
 C      0   0   0     0.000000000000     0.00000000     0.00000000
 C      1   0   0     2.634782333594     0.00000000     0.00000000
 C      2   1   0     2.627561748865   119.68424455     0.00000000
 C      3   2   1     2.634783443716   119.68413541     1.29720816
 C      4   3   2     2.637270203469   121.13633943   359.67937421
 N      5   4   3     2.641965080429   122.23203955   180.52276216
 H      6   5   4     1.925781568840   113.39634163   218.90651696
 H      6   5   4     1.918813888715   113.48767693   347.29585754
 C      1   2   3     2.637271343004   121.13632006   359.67954495
 N      9   1   2     2.641957177854   122.23189495   180.52251960
 H     10   9   1     1.925780278890   113.39653605   218.90127309
 H     10   9   1     1.918812962945   113.48823907   347.29221436
 H      4   3   2     2.069924249705   119.98001999   178.66868514
 H      3   2   1     2.067293857053   120.49082794   180.61650128
 H      2   1   3     2.067293185401   119.82147900   180.67599801
 H      1   2   3     2.069924362658   119.98008995   178.66870645



           ************************************************************
           *        Program running with 4 parallel MPI-processes     *
           *              working on a common directory               *
           ************************************************************
[...]
      7      -0.026006  -0.033141  -0.000058   0.000299  -0.000034  -0.000055
      8      -0.000558  -0.000724   0.000120   0.000127   0.000025   0.000011
      9       0.001541   0.002654   0.000821   0.000736  -0.000073  -0.000146
     10      -0.024569  -0.016460   0.000069  -0.000219  -0.000285  -0.000509
     11      -0.000032  -0.000024  -0.000152  -0.000132   0.000202   0.000107
     12       0.001650   0.001118   0.000300   0.000391   0.000775   0.001240
     13       0.000803   0.000256  -0.000290   0.000829   0.000150   0.000761
     14       0.000031   0.000065  -0.000887  -0.001377  -0.000284  -0.000011
     15      -0.000225  -0.000129  -0.029865  -0.029490   0.017030   0.017705
     16      -0.000118  -0.000040   0.005179   0.006310   0.053930   0.053897
     17       0.000082   0.000008  -0.028359  -0.027937   0.009174   0.009933
     18      -0.001165  -0.000760   0.420183   0.415936  -0.216271  -0.228356
     19       0.000310   0.000137   0.262502   0.257720  -0.128153  -0.134499
     20      -0.000828  -0.000084   0.377051   0.369309  -0.204630  -0.214694
     21      -0.000963  -0.000565  -0.016723  -0.016763  -0.030304  -0.029882
     22       0.001468   0.000808  -0.331384  -0.347608  -0.620663  -0.610634
     23      -0.000453  -0.000296   0.028911   0.033039   0.078613   0.076803
     24      -0.001650   0.001118  -0.000300   0.000391  -0.000774   0.001241
     25       0.000803  -0.000256  -0.000290  -0.000828   0.000149  -0.000761
     26       0.000031  -0.000065  -0.000886   0.001377  -0.000284   0.000011
     27       0.000225  -0.000129   0.029848  -0.029508  -0.017004   0.017726
     28      -0.000118   0.000040   0.005173  -0.006311   0.053858  -0.053972
     29       0.000082  -0.000008  -0.028342   0.027953   0.009158  -0.009943
     30       0.001165  -0.000759  -0.419934   0.416173   0.215959  -0.228651
     31       0.000310  -0.000137   0.262390  -0.257908  -0.127990   0.134698
     32      -0.000828   0.000083   0.376815  -0.369508  -0.204329   0.214966
     33       0.000963  -0.000564   0.016694  -0.016753   0.030227  -0.029887
     34       0.001469  -0.000808  -0.331190   0.347798  -0.619834   0.611471
     35      -0.000453   0.000296   0.028905  -0.033068   0.078531  -0.076931
     36      -0.001530  -0.003092  -0.000743  -0.000930  -0.001026  -0.001452
     37       0.264600   0.170644  -0.000566   0.000640   0.001296   0.002017
     38       0.000038   0.000081  -0.001003  -0.000899  -0.000514  -0.000374
     39       0.564156   0.587802   0.001393   0.000423   0.000217  -0.000062
     40       0.328340   0.348163   0.000811   0.000308   0.000131  -0.000070
     41       0.006769   0.007258   0.000073   0.000320  -0.000265  -0.000029
     42      -0.564199   0.587716  -0.001392   0.000424  -0.000217  -0.000062
     43       0.328408  -0.348157   0.000811  -0.000309   0.000131   0.000069
     44       0.006770  -0.007257   0.000073  -0.000320  -0.000265   0.000029
     45       0.001544  -0.003102   0.000743  -0.000930   0.001024  -0.001453
     46       0.264627  -0.170631  -0.000566  -0.000640   0.001294  -0.002020
     47       0.000038  -0.000082  -0.001002   0.000900  -0.000514   0.000375


-----------
IR SPECTRUM
-----------

 Mode   freq       eps      Int      T**2         TX        TY        TZ
       cm**-1   L/(mol*cm) km/mol    a.u.
----------------------------------------------------------------------------
  6:    193.02   0.000032    0.16  0.000052  (-0.007211  0.000009  0.000002)
  7:    220.34   0.004419   22.33  0.006259  (-0.000007 -0.075938 -0.022182)
  8:    290.16   0.001915    9.68  0.002059  (-0.000002  0.000896  0.045369)
  9:    318.40   0.000002    0.01  0.000002  ( 0.001419 -0.000003 -0.000002)
 10:    441.70   0.000013    0.06  0.000009  (-0.000001 -0.001062 -0.002780)
 11:    456.89   0.004033   20.38  0.002755  (-0.000000 -0.025288 -0.045990)
 12:    486.30   0.000605    3.06  0.000388  ( 0.019709 -0.000006 -0.000003)
 13:    541.79   0.001087    5.50  0.000626  ( 0.000003  0.007059  0.024011)
 14:    577.64   0.002522   12.74  0.001362  (-0.036909  0.000001 -0.000000)
 15:    594.79   0.000000    0.00  0.000000  ( 0.000408 -0.000000  0.000000)
 16:    703.89   0.024521  123.92  0.010871  ( 0.000016  0.068350  0.078735)
 17:    738.92   0.029851  150.85  0.012607  (-0.112280  0.000005 -0.000005)
 18:    762.34   0.030210  152.67  0.012366  ( 0.000004 -0.024371 -0.108500)
 19:    795.04   0.035316  178.47  0.013862  (-0.117738  0.000004  0.000005)
 20:    797.09   0.007153   36.15  0.002801  (-0.052920  0.000003  0.000004)
 21:    871.43   0.003176   16.05  0.001138  ( 0.033727 -0.000002  0.000002)
 22:    876.82   0.001937    9.79  0.000690  (-0.000003 -0.012269  0.023216)
 23:    930.17   0.001371    6.93  0.000460  (-0.000000 -0.004447 -0.020979)
 24:    978.80   0.000001    0.01  0.000000  (-0.000599  0.000000  0.000000)
 25:   1070.85   0.001265    6.39  0.000369  ( 0.019201  0.000000  0.000000)
 26:   1079.75   0.000728    3.68  0.000211  ( 0.000001 -0.014496 -0.000597)
 27:   1134.35   0.000250    1.27  0.000069  ( 0.008298 -0.000001 -0.000001)
 28:   1168.50   0.000005    0.02  0.000001  (-0.001147  0.000003 -0.000000)
 29:   1170.16   0.001466    7.41  0.000391  (-0.000001 -0.019748  0.001003)
 30:   1305.10   0.002446   12.36  0.000585  ( 0.000001 -0.024180  0.000538)
 31:   1343.92   0.000079    0.40  0.000018  (-0.000020  0.001769  0.003899)
 32:   1347.31   0.015652   79.10  0.003625  (-0.060211  0.000001 -0.000001)
 33:   1434.70   0.000981    4.96  0.000213  ( 0.014604 -0.000001  0.000000)
 34:   1519.89   0.001173    5.93  0.000241  (-0.000001 -0.013410 -0.007807)
 35:   1578.13   0.023614  119.33  0.004669  ( 0.068333 -0.000001 -0.000000)
 36:   1629.74   0.009709   49.07  0.001859  (-0.000001  0.030538 -0.030438)
 37:   1659.38   0.015092   76.27  0.002838  (-0.053275  0.000001  0.000001)
 38:   1683.90   0.003057   15.45  0.000567  ( 0.023803 -0.000001  0.000000)
 39:   1714.67   0.011377   57.49  0.002071  (-0.000004 -0.043941  0.011823)
 40:   3178.97   0.004007   20.25  0.000393  ( 0.000000  0.019832 -0.000166)
 41:   3182.74   0.000783    3.95  0.000077  (-0.008759 -0.000001  0.000000)
 42:   3203.72   0.002748   13.89  0.000268  ( 0.000000 -0.016356 -0.000370)
 43:   3219.75   0.002425   12.26  0.000235  (-0.015332 -0.000000  0.000000)
 44:   3494.95   0.002209   11.17  0.000197  ( 0.000004  0.000898  0.014017)
 45:   3497.10   0.002930   14.81  0.000261  ( 0.016170 -0.000001 -0.000004)
 46:   3606.19   0.007426   37.53  0.000643  (-0.000004 -0.025085 -0.003650)
 47:   3608.42   0.000253    1.28  0.000022  (-0.004681  0.000017  0.000002)

* The epsilon (eps) is given for a Dirac delta lineshape.
** The dipole moment derivative (T) already includes vibrational overlap.

The first frequency considered to be a vibration is 6
The total number of vibrations considered is 42


--------------------------
THERMOCHEMISTRY AT 298.15K
--------------------------

Temperature         ...   298.15 K
Pressure            ...     1.00 atm
Total Mass          ...   108.14 AMU
Quasi RRHO          ...     True
Cut-Off Frequency   ...     1.00 cm^-1

Throughout the following assumptions are being made:
  (1) The electronic state is orbitally nondegenerate
  (2) There are no thermally accessible electronically excited states
  (3) Hindered rotations indicated by low frequency modes are not
      treated as such but are treated as vibrations and this may
      cause some error
  (4) All equations used are the standard statistical mechanics
      equations for an ideal gas
  (5) All vibrations are strictly harmonic

freq.     193.02  E(vib)   ...       0.36 
freq.     220.34  E(vib)   ...       0.33 
freq.     290.16  E(vib)   ...       0.27 
freq.     318.40  E(vib)   ...       0.25 
freq.     441.70  E(vib)   ...       0.17 
freq.     456.89  E(vib)   ...       0.16 
freq.     486.30  E(vib)   ...       0.15 
freq.     541.79  E(vib)   ...       0.12 
freq.     577.64  E(vib)   ...       0.11 
freq.     594.79  E(vib)   ...       0.10 
freq.     703.89  E(vib)   ...       0.07 
freq.     738.92  E(vib)   ...       0.06 
freq.     762.34  E(vib)   ...       0.06 
freq.     795.04  E(vib)   ...       0.05 
freq.     797.09  E(vib)   ...       0.05 
freq.     871.43  E(vib)   ...       0.04 
freq.     876.82  E(vib)   ...       0.04 
freq.     930.17  E(vib)   ...       0.03 
freq.     978.80  E(vib)   ...       0.03 
freq.    1070.85  E(vib)   ...       0.02 
freq.    1079.75  E(vib)   ...       0.02 
freq.    1134.35  E(vib)   ...       0.01 
freq.    1168.50  E(vib)   ...       0.01 
freq.    1170.16  E(vib)   ...       0.01 
freq.    1305.10  E(vib)   ...       0.01 
freq.    1343.92  E(vib)   ...       0.01 
freq.    1347.31  E(vib)   ...       0.01 
freq.    1434.70  E(vib)   ...       0.00 
freq.    1519.89  E(vib)   ...       0.00 
freq.    1578.13  E(vib)   ...       0.00 
freq.    1629.74  E(vib)   ...       0.00 
freq.    1659.38  E(vib)   ...       0.00 
freq.    1683.90  E(vib)   ...       0.00 
freq.    1714.67  E(vib)   ...       0.00 
freq.    3178.97  E(vib)   ...       0.00 
freq.    3182.74  E(vib)   ...       0.00 
freq.    3203.72  E(vib)   ...       0.00 
freq.    3219.75  E(vib)   ...       0.00 
freq.    3494.95  E(vib)   ...       0.00 
freq.    3497.10  E(vib)   ...       0.00 
freq.    3606.19  E(vib)   ...       0.00 
freq.    3608.42  E(vib)   ...       0.00 

------------
INNER ENERGY
------------

The inner energy is: U= E(el) + E(ZPE) + E(vib) + E(rot) + E(trans)
    E(el)   - is the total energy from the electronic structure calculation
              = E(kin-el) + E(nuc-el) + E(el-el) + E(nuc-nuc)
    E(ZPE)  - the the zero temperature vibrational energy from the frequency calculation
    E(vib)  - the the finite temperature correction to E(ZPE) due to population
              of excited vibrational states
    E(rot)  - is the rotational thermal energy
    E(trans)- is the translational thermal energy

Summary of contributions to the inner energy U:
Electronic energy                ...   -342.30279379 Eh
Zero point energy                ...      0.13534069 Eh      84.93 kcal/mol
Thermal vibrational correction   ...      0.00405940 Eh       2.55 kcal/mol
Thermal rotational correction    ...      0.00141627 Eh       0.89 kcal/mol
Thermal translational correction ...      0.00141627 Eh       0.89 kcal/mol
-----------------------------------------------------------------------
Total thermal energy                   -342.16056116 Eh


Summary of corrections to the electronic energy:
(perhaps to be used in another calculation)
Total thermal correction                  0.00689194 Eh       4.32 kcal/mol
Non-thermal (ZPE) correction              0.13534069 Eh      84.93 kcal/mol
-----------------------------------------------------------------------
Total correction                          0.14223263 Eh      89.25 kcal/mol


--------
ENTHALPY
--------

The enthalpy is H = U + kB*T
                kB is Boltzmann's constant
Total thermal energy              ...   -342.16056116 Eh 
Thermal Enthalpy correction       ...      0.00094421 Eh       0.59 kcal/mol
-----------------------------------------------------------------------
Total Enthalpy                    ...   -342.15961695 Eh


Note: Rotational entropy computed according to Herzberg 
Infrared and Raman Spectra, Chapter V,1, Van Nostrand Reinhold, 1945 
Point Group:  C2, Symmetry Number:   2  
Rotational constants in cm-1:     0.112095     0.073765     0.044684 

Vibrational entropy computed according to the QRRHO of S. Grimme
Chem.Eur.J. 2012 18 9955 using a reference frequency of 100.0 cm-1


-------
ENTROPY
-------

The entropy contributions are T*S = T*(S(el)+S(vib)+S(rot)+S(trans))
     S(el)   - electronic entropy
     S(vib)  - vibrational entropy
     S(rot)  - rotational entropy
     S(trans)- translational entropy
The entropies will be listed as multiplied by the temperature to get
units of energy

Electronic entropy                ...      0.00000000 Eh      0.00 kcal/mol
Vibrational entropy               ...      0.00614966 Eh      3.86 kcal/mol
Rotational entropy                ...      0.01258748 Eh      7.90 kcal/mol
Translational entropy             ...      0.01898213 Eh     11.91 kcal/mol
-----------------------------------------------------------------------
Final entropy term                ...      0.03771927 Eh     23.67 kcal/mol

In case the symmetry of your molecule has not been determined correctly
or in case you have a reason to use a different symmetry number we print 
out the resulting rotational entropy values for sn=1,12:

 non-linear molecules -----------------------------------
|  sn= 1 | S(rot)=       0.01324193 Eh      8.31 kcal/mol|
|  sn= 2 | S(rot)=       0.01258748 Eh      7.90 kcal/mol|
|  sn= 3 | S(rot)=       0.01220465 Eh      7.66 kcal/mol|
|  sn= 4 | S(rot)=       0.01193302 Eh      7.49 kcal/mol|
|  sn= 5 | S(rot)=       0.01172233 Eh      7.36 kcal/mol|
|  sn= 6 | S(rot)=       0.01155019 Eh      7.25 kcal/mol|
|  sn= 7 | S(rot)=       0.01140464 Eh      7.16 kcal/mol|
|  sn= 8 | S(rot)=       0.01127857 Eh      7.08 kcal/mol|
|  sn= 9 | S(rot)=       0.01116736 Eh      7.01 kcal/mol|
|  sn=10 | S(rot)=       0.01106788 Eh      6.95 kcal/mol|
|  sn=11 | S(rot)=       0.01097789 Eh      6.89 kcal/mol|
|  sn=12 | S(rot)=       0.01089573 Eh      6.84 kcal/mol|
 linear molecules ---------------------------------------
|  Dinfh | S(rot)=       0.00826045 Eh      5.18 kcal/mol|
|  Cinfv | S(rot)=       0.00891491 Eh      5.59 kcal/mol|
 --------------------------------------------------------


-------------------
GIBBS FREE ENERGY
-------------------

The Gibbs free energy is G = H - T*S

Total enthalpy                    ...   -342.15961695 Eh 
Total entropy correction          ...     -0.03771927 Eh    -23.67 kcal/mol
-----------------------------------------------------------------------
Final Gibbs free energy         ...   -342.19733622 Eh

For completeness - the Gibbs free energy minus the electronic energy
G-E(el)                           ...      0.10545757 Eh     66.18 kcal/mol


Maximum memory used throughout the entire PROP-calculation: 40.5 MB

--------------------------------
SUGGESTED CITATIONS FOR THIS RUN
--------------------------------

Below you find a list of papers that are relevant to this ORCA run
We neither can nor want to force you to cite these papers, but we appreciate if you do
You receive ORCA, which is the product of decades of hard work by many enthusiastic individuals, for free
The only thing we kindly ask in return is that you cite our papers,
We deeply appreciate it, if you show your appreciation for ORCA by not just citing the generic ORCA reference.

Please note that relegating all ORCA citations to the supporting information does *not* help us.
SI sections are not indexed - citations you put there will not count into any citation statistics
But we need these citations in order to attract the funding resources that allow us to do what we are doing

Therefore, if you are a happy ORCA user, please consider citing a few of the papers listed below in the main body of your paper

In addition to the list printed below, the program has created the file cs_rporg_064_red_opt_01.bibtex that contains the list in bibtex format
You can import this file easily into all common literature databanks and citation aid programs


List of essential papers. We consider these as the minimum necessary citations

  1. Neese,F.
     Software update: the ORCA program system, version 5.0
     WIRES Comput. Molec. Sci., 2022 12(1)e1606
     doi.org/10.1002/wcms.1606

List of papers to cite with high priority. The work reported in these papers was absolutely
necessary for this run to complete.
Our perspective: the developers of density functionals and basis sets usually get cited in chemistry papers
Good! But without the algorithms to do something with them, the functionals or basis sets would not do anything.
Hence, in our opinion, the algorithm design and method developments papers are equally worthy of getting cited

  1. Neese,F.
     An improvement of the resolution of the identity approximation for the formation of the Coulomb matrix
     J. Comp. Chem., 2003 24(14)1740-1747
     doi.org/10.1002/jcc.10318
  2. Neese,F.; Wennmohs,F.; Hansen,A.; Becker,U.
     Efficient, approximate and parallel Hartree-Fock and hybrid DFT calculations. A 'chain-of-spheres' algorithm for the Hartree-Fock exchange
     Chem. Phys., 2009 356(1-3)98-109
     doi.org/10.1016/j.chemphys.2008.10.036
  3. Bykov,D.; Petrenko,T.; Izsak,R.; Kossmann,S.; Becker,U.; Valeev,E.; Neese,F.
     Efficient implementation of the analytic second derivatives of Hartree-Fock and hybrid DFT energies: a detailed analysis of different approximations
     Molec. Phys., 2015 113 1961-1977
     doi.org/10.1080/00268976.2015.1025114
  4. Helmich-Paris,B.; de Souza,B.; Neese,F.; Izsák,R.
     An improved chain of spheres for exchange algorithm
     J. Chem. Phys., 2021 155 104109
     doi.org/doi: 10.1063/5.0058766.
  5. Neese,F.
     The SHARK Integral Generation and Digestion System
     J. Comp. Chem., 2022  1-16
     doi.org/10.1002/jcc.26942
  6. Grimme,S.; Antony,J.; Ehrlich,S.; Krieg,H.
     A consistent and accurate ab initio parametrization of density functional dispersion correction (DFT-D) for the 94 elements H-Pu
     J. Chem. Phys., 2010 132 154104-XXXX
     doi.org/10.1063/1.3382344
  7. Grimme,S.; Ehrlich,S.; Goerigk,L.
     Effect of the damping function in dispersion corrected density functional theory
     J. Comput. Chem., 2011 32(7)1456-1465
     doi.org/10.1002/jcc.21759

List of suggested additional citations. These are papers that are important in the 'surrounding' of 
of this run, or papers that preceded the highly important papers. If you like your results we are grateful for a citation.

  1. Izsak,R.; Neese,F.
     An overlap fitted chain of spheres exchange method
     J. Chem. Phys., 2011 135 144105
     doi.org/10.1063/1.3646921
  2. Izsak,R.; Hansen,A.; Neese,F.
     The resolution of identity and chain of spheres approximations for the LPNO-CCSD singles Fock term
     Molec. Phys., 2012 110 2413-2417
     doi.org/10.1080/00268976.2012.687466
  3. Neese,F.
     The ORCA program system
     WIRES Comput. Molec. Sci., 2012 2(1)73-78
     doi.org/10.1002/wcms.81
  4. Izsak,R.; Neese,F.; Klopper,W.
     Robust fitting techniques in the chain of spheres approximation to the Fock exchange: The role of the complementary space
     J. Chem. Phys., 2013 139 
     doi.org/10.1063/1.4819264
  5. Neese,F.
     Software update: the ORCA program system, version 4.0
     WIRES Comput. Molec. Sci., 2018 8(1)1-6
     doi.org/10.1002/wcms.1327
  6. Neese,F.; Wennmohs,F.; Becker,U.; Riplinger,C.
     The ORCA quantum chemistry program package
     J. Chem. Phys., 2020 152 Art. No. L224108
     doi.org/10.1063/5.0004608

List of optional additional citations

  1. Neese,F.
     Approximate second-order SCF convergence for spin unrestricted wavefunctions
     Chem. Phys. Lett., 2000 325(1-3)93-98
     doi.org/10.1016/s0009-2614(00)00662-x

Timings for individual modules:

Sum of individual times          ...      388.343 sec (=   6.472 min)
Startup calculation              ...       24.061 sec (=   0.401 min)   6.2 %
SCF iterations                   ...      129.101 sec (=   2.152 min)  33.2 %
Property integrals               ...       38.668 sec (=   0.644 min)  10.0 %
SCF Response                     ...       58.079 sec (=   0.968 min)  15.0 %
Property calculations            ...       87.627 sec (=   1.460 min)  22.6 %
SCF Gradient evaluation          ...       50.233 sec (=   0.837 min)  12.9 %
Geometry relaxation              ...        0.574 sec (=   0.010 min)   0.1 %
                             ****ORCA TERMINATED NORMALLY****
TOTAL RUN TIME: 0 days 0 hours 6 minutes 48 seconds 151 msec
