
                                 *****************
                                 * O   R   C   A *
                                 *****************

                                            #,                                       
                                            ###                                      
                                            ####                                     
                                            #####                                    
                                            ######                                   
                                           ########,                                 
                                     ,,################,,,,,                         
                               ,,#################################,,                 
                          ,,##########################################,,             
                       ,#########################################, ''#####,          
                    ,#############################################,,   '####,        
                  ,##################################################,,,,####,       
                ,###########''''           ''''###############################       
              ,#####''   ,,,,##########,,,,          '''####'''          '####       
            ,##' ,,,,###########################,,,                        '##       
           ' ,,###''''                  '''############,,,                           
         ,,##''                                '''############,,,,        ,,,,,,###''
      ,#''                                            '''#######################'''  
     '                                                          ''''####''''         
             ,#######,   #######,   ,#######,      ##                                
            ,#'     '#,  ##    ##  ,#'     '#,    #''#        ,####,   ,####,        
            ##       ##  ##   ,#'  ##            #'  '#       #'       #'  '#        
            ##       ##  #######   ##           ,######,      #####,   #    #        
            '#,     ,#'  ##    ##  '#,     ,#' ,#      #,     #,   #   #,  ,#        
             '#######'   ##     ##  '#######'  #'      '#     '####' # '####'        



                #########################################################
                #                        -***-                          #
                #          Department of theory and spectroscopy        #
                #                                                       #
                #                      Frank Neese                      #
                #                                                       #
                #     Directorship, Architecture, Infrastructure        #
                #                    SHARK, DRIVERS                     #
                #        Core code/Algorithms in most modules           #
                #                                                       #
                #        Max Planck Institute fuer Kohlenforschung      #
                #                Kaiser Wilhelm Platz 1                 #
                #                 D-45470 Muelheim/Ruhr                 #
                #                      Germany                          #
                #                                                       #
                #                  All rights reserved                  #
                #                        -***-                          #
                #########################################################


                         Program Version 6.0.0  -   RELEASE  -


 With contributions from (in alphabetic order):
   Daniel Aravena         : Magnetic Suceptibility
   Michael Atanasov       : Ab Initio Ligand Field Theory (pilot matlab implementation)
   Alexander A. Auer      : GIAO ZORA, VPT2 properties, NMR spectrum
   Ute Becker             : All parallelization in ORCA, NUMFREQ, NUMCALC
   Giovanni Bistoni       : ED, misc. LED, open-shell LED, HFLD
   Martin Brehm           : Molecular dynamics
   Dmytro Bykov           : pre 5.0 version of the SCF Hessian
   Marcos Casanova-Páez   : Triplet and SCS-CIS(D). UHF-(DLPNO)-IP/EA/STEOM-CCSD. UHF-CVS-IP/STEOM-CCSD
   Vijay G. Chilkuri      : MRCI spin determinant printing, contributions to CSF-ICE
   Pauline Colinet        : FMM embedding
   Dipayan Datta          : RHF DLPNO-CCSD density
   Achintya Kumar Dutta   : EOM-CC, STEOM-CC
   Nicolas Foglia         : Exact transition moments, OPA infrastructure, MCD improvements
   Dmitry Ganyushin       : Spin-Orbit,Spin-Spin,Magnetic field MRCI
   Miquel Garcia          : C-PCM and meta-GGA Hessian, CCSD/C-PCM, Gaussian charge scheme
   Tiago L. C. Gouveia    : GS-ROHF, GS-ROCIS
   Yang Guo               : DLPNO-NEVPT2, F12-NEVPT2, CIM, IAO-localization
   Andreas Hansen         : Spin unrestricted coupled pair/coupled cluster methods
   Ingolf Harden          : AUTO-CI MPn and infrastructure 
   Benjamin Helmich-Paris : MC-RPA, TRAH-(SCF,CASSCF), AVAS, COSX integrals, SCF dyn. polar.
   Lee Huntington         : MR-EOM, pCC
   Robert Izsak           : Overlap fitted RIJCOSX, COSX-SCS-MP3, EOM
   Riya Kayal             : Wick's Theorem for AUTO-CI, AUTO-CI UHF-CCSDT
   Emily Kempfer          : AUTO-CI, RHF CISDT and CCSDT
   Christian Kollmar      : KDIIS, OOCD, Brueckner-CCSD(T), CCSD density, CASPT2, CASPT2-K, improved NEVPT2
   Axel Koslowski         : Symmetry handling
   Simone Kossmann        : Meta GGA functionals, TD-DFT gradient, OOMP2, (MP2 Hessian; deprecated post 5.0)
   Lucas Lang             : DCDCAS
   Marvin Lechner         : AUTO-CI (C++ implementation), FIC-MRCC
   Spencer Leger          : CASSCF response
   Dagmar Lenk            : GEPOL surface, SMD, ORCA-2-JSON
   Dimitrios Liakos       : Extrapolation schemes; Compound Job, initial MDCI parallelization
   Dimitrios Manganas     : Further ROCIS development; embedding schemes. LFT, Crystal Embedding
   Dimitrios Pantazis     : SARC Basis sets
   Anastasios Papadopoulos: AUTO-CI, single reference methods and gradients
   Taras Petrenko         : pre 6.0 DFT Hessian and TD-DFT gradient, (ASA, deprecated), ECA, 1-Electron XAS/XES, NRVS
   Peter Pinski           : DLPNO-MP2, DLPNO-MP2 Gradient
   Christoph Reimann      : Effective Core Potentials
   Marius Retegan         : Local ZFS, SOC
   Christoph Riplinger    : Optimizer, TS searches, QM/MM, DLPNO-CCSD(T), (RO)-DLPNO pert. Triples
   Michael Roemelt        : Original ROCIS implementation
   Masaaki Saitow         : Open-shell DLPNO-CCSD energy and density
   Barbara Sandhoefer     : DKH picture change effects
   Kantharuban Sivalingam : CASSCF convergence/infrastructure, NEVPT2 and variants, FIC-MRCI
   Bernardo de Souza      : ESD, SOC TD-DFT
   Georgi Stoychev        : AutoAux, RI-MP2 NMR, DLPNO-MP2 response, X2C
   Van Anh Tran           : RI-MP2 g-tensors
   Willem Van den Heuvel  : Paramagnetic NMR
   Zikuan Wang            : NOTCH, Electric field optimization 
   Frank Wennmohs         : Technical directorship and infrastructure
   Hang Xu                : AUTO-CI-Response properties 


 We gratefully acknowledge several colleagues who have allowed us to
 interface, adapt or use parts of their codes:
   Stefan Grimme, W. Hujo, H. Kruse, P. Pracht,  : VdW corrections, initial TS optimization,
                  C. Bannwarth, S. Ehlert,         DFT functionals, gCP, sTDA/sTD-DF
                  L. Wittmann, M. Mueller
   Ed Valeev, F. Pavosevic, A. Kumar             : LibInt (2-el integral package), F12 methods
   Garnet Chan, S. Sharma, J. Yang, R. Olivares  : DMRG
   Ulf Ekstrom                                   : XCFun DFT Library
   Mihaly Kallay                                 : mrcc  (arbitrary order and MRCC methods)
   Frank Weinhold                                : gennbo (NPA and NBO analysis)
   Simon Mueller                                 : openCOSMO-RS
   Christopher J. Cramer and Donald G. Truhlar   : smd solvation model
   Lars Goerigk                                  : TD-DFT with DH, B97 family of functionals
   V. Asgeirsson, H. Jonsson                     : NEB implementation
   FAccTs GmbH                                   : IRC, NEB, NEB-TS, DLPNO-Multilevel, CI-OPT
                                                   MM, QMMM, 2- and 3-layer-ONIOM, Crystal-QMMM,
                                                   LR-CPCM, SF, NACMEs, symmetry and pop. for TD-DFT,
                                                   nearIR, NL-DFT gradient (VV10), updates on ESD,
                                                   ML-optimized integration grids, MBIS, APM,
                                                   GOAT, DOCKER, SOLVATOR, interface openCOSMO-RS
   S Lehtola, MJT Oliveira, MAL Marques          : LibXC Library
   Liviu Ungur et al                             : ANISO software


 Your calculation uses the libint2 library for the computation of 2-el integrals
 For citations please refer to: http://libint.valeyev.net

 Your ORCA version has been built with support for libXC version: 6.2.2
 For citations please refer to: https://libxc.gitlab.io

 This ORCA versions uses:
   CBLAS   interface :  Fast vector & matrix operations
   LAPACKE interface :  Fast linear algebra routines
   SCALAPACK package :  Parallel linear algebra routines
   Shared memory     :  Shared parallel matrices
   BLAS/LAPACK       :  OpenBLAS 0.3.27  USE64BITINT DYNAMIC_ARCH NO_AFFINITY SkylakeX SINGLE_THREADED
        Core in use  :  SkylakeX
   Copyright (c) 2011-2014, The OpenBLAS Project


NOTE: MaxCore=3000 MB was set to SCF,MP2,MDCI,CIPSI,MRCI and CIS
      => If you want to overwrite this, your respective input block should be placed after the MaxCore statement
Your calculation utilizes the atom-pairwise dispersion correction
with the Becke-Johnson damping scheme (D3BJ)


Your calculation utilizes the SMD solvation module
Please cite in your paper:
A.V. Marenich, C.J. Cramer, D.G. Truhlar J. Phys. Chem. B, 113, (2009), 6378 

Warning: RI is on but no J-basis has been assigned. Assigning Def2/J (nothing to worry about!)
================================================================================

----- Orbital basis set information -----
Your calculation utilizes the basis: aug-cc-pVTZ 
    H, B-Ne : Obtained from the ccRepo (grant-hill.group.shef.ac.uk/ccrepo) Feb. 2017
              R. A. Kendall, T. H. Dunning, Jr., R. J. Harrison, J. Chem. Phys. 96, 6796 (1992)
         He : Obtained from the ccRepo (grant-hill.group.shef.ac.uk/ccrepo) Feb. 2017
              D. E. Woon, T. H. Dunning, Jr., J. Chem. Phys. 100, 2975 (1994)
  Li-Be, Na : Obtained from the ccRepo (grant-hill.group.shef.ac.uk/ccrepo) Feb. 2017
              B. P. Prascher, D. E. Woon, K. A. Peterson, T. H. Dunning, Jr., A. K. Wilson, Theor. Chem. Acc. 128, 69 (2011)
         Mg : Obtained from the Peterson Research Group Website (tyr0.chem.wsu.edu/~kipeters) Feb. 2017
              B. P. Prascher, D. E. Woon, K. A. Peterson, T. H. Dunning, Jr., A. K. Wilson, Theor. Chem. Acc. 128, 69 (2011)
      Al-Ar : Obtained from the ccRepo (grant-hill.group.shef.ac.uk/ccrepo) Feb. 2017
              D. E. Woon, T. H. Dunning, Jr., J. Chem. Phys. 98, 1358 (1993)
      Sc-Zn : Obtained from the ccRepo (grant-hill.group.shef.ac.uk/ccrepo) Feb. 2017
              N. B. Balabanov, K. A. Peterson, J. Chem. Phys. 123, 064107 (2005)
              N. B. Balabanov, K. A. Peterson, J. Chem. Phys. 125, 074110 (2006)
      Ga-Kr : Obtained from the ccRepo (grant-hill.group.shef.ac.uk/ccrepo) Feb. 2017
              A. K. Wilson, D. E. Woon, K. A. Peterson, T. H. Dunning, Jr., J. Chem. Phys. 110, 7667 (1999)
     Ag, Au : Obtained from the Peterson Research Group Website (tyr0.chem.wsu.edu/~kipeters) Feb. 2017
              K. A. Peterson, C. Puzzarini, Theor. Chem. Acc. 114, 283 (2005)

----- AuxJ basis set information -----
Your calculation utilizes the auxiliary basis: def2/J
   F. Weigend, Phys. Chem. Chem. Phys. 8, 1057 (2006).

================================================================================
                                        WARNINGS
                       Please study these warnings very carefully!
================================================================================


================================================================================
                                       INPUT FILE
================================================================================
NAME = cs_rporg_111_ox_solv_04.inp
|  1> !PBE0 aug-cc-pVTZ d3 TightSCF SlowConv RIJCOSX defgrid2
|  2>  
|  3> %pal
|  4> nprocs 4
|  5> end
|  6>  
|  7> %scf
|  8> MaxIter 1500
|  9> end
| 10>  
| 11> %maxcore 3000
| 12>  
| 13> !CPCM
| 14> %cpcm smd true
| 15> SMDsolvent "MeCN"
| 16> surfacetype gepol_ses
| 17> rsolv 2.19
| 18> end 
| 19>  
| 20> * xyz 0 1
| 21> C          -1.38053685940747     -1.21804540995532     -0.00011060626091
| 22> C           0.00880673788646     -1.21761505772678     -0.00009043075416
| 23> C           0.68407451418940     -0.00000826905018      0.00002079320919
| 24> C           0.00881895322689      1.21760888927779      0.00010917128456
| 25> C          -1.38052397185078      1.21805873995267      0.00009090964868
| 26> C          -2.05580079114724      0.00001020724702     -0.00001816987555
| 27> F          -3.38048726341071      0.00001804396249     -0.00003514545168
| 28> H          -1.95216629027619      2.14893818448022      0.00016183253789
| 29> H           0.58216467537740      2.14580924232628      0.00018829183514
| 30> N           2.15012174350491     -0.00002110651836      0.00004214105770
| 31> O           2.70660121926706     -1.07534719974692     -0.00006677256489
| 32> O           2.70659645313172      1.07532442371150     -0.00002414626605
| 33> H           0.58214126111558     -2.14581854067801     -0.00015767613729
| 34> H          -1.95219098160703     -2.14891564728239     -0.00019689226262
| 35> *
| 36> 
| 37>                          ****END OF INPUT****
================================================================================

                       ****************************
                       * Single Point Calculation *
                       ****************************

---------------------------------
CARTESIAN COORDINATES (ANGSTROEM)
---------------------------------
  C     -1.380537   -1.218045   -0.000111
  C      0.008807   -1.217615   -0.000090
  C      0.684075   -0.000008    0.000021
  C      0.008819    1.217609    0.000109
  C     -1.380524    1.218059    0.000091
  C     -2.055801    0.000010   -0.000018
  F     -3.380487    0.000018   -0.000035
  H     -1.952166    2.148938    0.000162
  H      0.582165    2.145809    0.000188
  N      2.150122   -0.000021    0.000042
  O      2.706601   -1.075347   -0.000067
  O      2.706596    1.075324   -0.000024
  H      0.582141   -2.145819   -0.000158
  H     -1.952191   -2.148916   -0.000197

----------------------------
CARTESIAN COORDINATES (A.U.)
----------------------------
  NO LB      ZA    FRAG     MASS         X           Y           Z
   0 C     6.0000    0    12.011   -2.608837   -2.301772   -0.000209
   1 C     6.0000    0    12.011    0.016642   -2.300959   -0.000171
   2 C     6.0000    0    12.011    1.292713   -0.000016    0.000039
   3 C     6.0000    0    12.011    0.016665    2.300947    0.000206
   4 C     6.0000    0    12.011   -2.608812    2.301797    0.000172
   5 C     6.0000    0    12.011   -3.884900    0.000019   -0.000034
   6 F     9.0000    0    18.998   -6.388195    0.000034   -0.000066
   7 H     1.0000    0     1.008   -3.689060    4.060905    0.000306
   8 H     1.0000    0     1.008    1.100132    4.054992    0.000356
   9 N     7.0000    0    14.007    4.063141   -0.000040    0.000080
  10 O     8.0000    0    15.999    5.114735   -2.032112   -0.000126
  11 O     8.0000    0    15.999    5.114726    2.032069   -0.000046
  12 H     1.0000    0     1.008    1.100088   -4.055009   -0.000298
  13 H     1.0000    0     1.008   -3.689106   -4.060862   -0.000372

--------------------------------
INTERNAL COORDINATES (ANGSTROEM)
--------------------------------
 C      0   0   0     0.000000000000     0.00000000     0.00000000
 C      1   0   0     1.389343664092     0.00000000     0.00000000
 C      2   1   0     1.392319242816   119.02988792     0.00000000
 C      3   2   1     1.392322385325   121.97636579     0.00000000
 C      4   3   2     1.389342998026   119.03004539     0.00000000
 C      1   2   3     1.392709902547   118.98529922     0.00000000
 F      6   1   2     1.324686472395   119.00338568   180.00011009
 H      5   4   3     1.092387973885   121.57215681   179.99974841
 H      4   3   2     1.091000100260   119.28504341   180.00040090
 N      3   2   1     1.466047229527   119.01163872   179.99999548
 O     10   3   2     1.210783062974   117.36199162     0.00000000
 O     10   3   2     1.210798131909   117.36036527   179.99126536
 H      2   1   3     1.090996877086   121.68512847   179.99989078
 H      1   2   3     1.092386306036   121.57213307   179.99997222

---------------------------
INTERNAL COORDINATES (A.U.)
---------------------------
 C      0   0   0     0.000000000000     0.00000000     0.00000000
 C      1   0   0     2.625479031032     0.00000000     0.00000000
 C      2   1   0     2.631102059911   119.02988792     0.00000000
 C      3   2   1     2.631107998392   121.97636579     0.00000000
 C      4   3   2     2.625477772349   119.03004539     0.00000000
 C      1   2   3     2.631840299813   118.98529922     0.00000000
 F      6   1   2     2.503294646138   119.00338568   180.00011009
 H      5   4   3     2.064314102632   121.57215681   179.99974841
 H      4   3   2     2.061691401572   119.28504341   180.00040090
 N      3   2   1     2.770427763200   119.01163872   179.99999548
 O     10   3   2     2.288048396611   117.36199162     0.00000000
 O     10   3   2     2.288076872771   117.36036527   179.99126536
 H      2   1   3     2.061685310656   121.68512847   179.99989078
 H      1   2   3     2.064310950853   121.57213307   179.99997222

---------------------
BASIS SET INFORMATION
---------------------
There are 5 groups of distinct atoms

 Group   1 Type C   : 19s6p3d2f contracted to 5s4p3d2f pattern {88111/3111/111/11}
 Group   2 Type F   : 19s6p3d2f contracted to 5s4p3d2f pattern {88111/3111/111/11}
 Group   3 Type H   : 6s3p2d contracted to 4s3p2d pattern {3111/111/11}
 Group   4 Type N   : 19s6p3d2f contracted to 5s4p3d2f pattern {88111/3111/111/11}
 Group   5 Type O   : 19s6p3d2f contracted to 5s4p3d2f pattern {88111/3111/111/11}

Atom   0C    basis set group =>   1
Atom   1C    basis set group =>   1
Atom   2C    basis set group =>   1
Atom   3C    basis set group =>   1
Atom   4C    basis set group =>   1
Atom   5C    basis set group =>   1
Atom   6F    basis set group =>   2
Atom   7H    basis set group =>   3
Atom   8H    basis set group =>   3
Atom   9N    basis set group =>   4
Atom  10O    basis set group =>   5
Atom  11O    basis set group =>   5
Atom  12H    basis set group =>   3
Atom  13H    basis set group =>   3
---------------------------------
AUXILIARY/J BASIS SET INFORMATION
---------------------------------
There are 5 groups of distinct atoms

 Group   1 Type C   : 12s5p4d2f1g contracted to 6s4p3d1f1g pattern {711111/2111/211/2/1}
 Group   2 Type F   : 12s5p4d2f1g contracted to 6s4p3d1f1g pattern {711111/2111/211/2/1}
 Group   3 Type H   : 5s2p1d contracted to 3s1p1d pattern {311/2/1}
 Group   4 Type N   : 12s5p4d2f1g contracted to 6s4p3d1f1g pattern {711111/2111/211/2/1}
 Group   5 Type O   : 12s5p4d2f1g contracted to 6s4p3d1f1g pattern {711111/2111/211/2/1}

Atom   0C    basis set group =>   1
Atom   1C    basis set group =>   1
Atom   2C    basis set group =>   1
Atom   3C    basis set group =>   1
Atom   4C    basis set group =>   1
Atom   5C    basis set group =>   1
Atom   6F    basis set group =>   2
Atom   7H    basis set group =>   3
Atom   8H    basis set group =>   3
Atom   9N    basis set group =>   4
Atom  10O    basis set group =>   5
Atom  11O    basis set group =>   5
Atom  12H    basis set group =>   3
Atom  13H    basis set group =>   3


           ************************************************************
           *        Program running with 4 parallel MPI-processes     *
           *              working on a common directory               *
           ************************************************************
------------------------------------------------------------------------------
                             ORCA STARTUP CALCULATIONS
                           -- RI-GTO INTEGRALS CHOSEN --
------------------------------------------------------------------------------
------------------------------------------------------------------------------
                   ___                                                        
                  /   \      - P O W E R E D   B Y -                         
                 /     \                                                     
                 |  |  |   _    _      __       _____    __    __             
                 |  |  |  | |  | |    /  \     |  _  \  |  |  /  |          
                  \  \/   | |  | |   /    \    | | | |  |  | /  /          
                 / \  \   | |__| |  /  /\  \   | |_| |  |  |/  /          
                |  |  |   |  __  | /  /__\  \  |    /   |      \           
                |  |  |   | |  | | |   __   |  |    \   |  |\   \          
                \     /   | |  | | |  |  |  |  | |\  \  |  | \   \       
                 \___/    |_|  |_| |__|  |__|  |_| \__\ |__|  \__/        
                                                                              
                      - O R C A' S   B I G   F R I E N D -                    
                                      &                                       
                       - I N T E G R A L  F E E D E R -                       
                                                                              
 v1 FN, 2020, v2 2021, v3 2022-2024                                           
------------------------------------------------------------------------------


----------------------
SHARK INTEGRAL PACKAGE
----------------------

Number of atoms                             ...     14
Number of basis functions                   ...    612
Number of shells                            ...    236
Maximum angular momentum                    ...      3
Integral batch strategy                     ... SHARK/LIBINT Hybrid
RI-J (if used) integral strategy            ... SPLIT-RIJ (Revised 2003 algorithm where possible)
Printlevel                                  ...      1
Contraction scheme used                     ... PARTIAL GENERAL contraction
Prescreening option                         ... SCHWARTZ
   Thresh                                   ... 2.500e-11
   Tcut                                     ... 2.500e-12
   Tpresel                                  ... 2.500e-12 
Coulomb Range Separation                    ... NOT USED
Exchange Range Separation                   ... NOT USED
Multipole approximations                    ... NOT USED
Finite Nucleus Model                        ... NOT USED
CABS basis                                  ... NOT available
Auxiliary Coulomb fitting basis             ... AVAILABLE
   # of basis functions in Aux-J            ...    534
   # of shells in Aux-J                     ...    170
   Maximum angular momentum in Aux-J        ...      4
Auxiliary J/K fitting basis                 ... NOT available
Auxiliary Correlation fitting basis         ... NOT available
Auxiliary 'external' fitting basis          ... NOT available

Checking pre-screening integrals            ... done (  0.0 sec) Dimension = 236
Save PGC pre-screening integrals            ... done (  0.0 sec) Dimension = 236
Calculate PGC overlap integrals             ... done (  0.1 sec) Dimension = 176
Calculating pre-screening integrals (ORCA)  ... done (  0.2 sec) Dimension = 176
Check shell pair data                       ... done (  0.0 sec)
Shell pair information
Shell pair cut-off parameter TPreSel        ...   2.5e-12
Total number of shell pairs                 ...     27966
Shell pairs after pre-screening             ...     22692
Total number of primitive shell pairs       ...     35022
Primitive shell pairs kept                  ...     26784
          la=0 lb=0:   5111 shell pairs
          la=1 lb=0:   5640 shell pairs
          la=1 lb=1:   1318 shell pairs
          la=2 lb=0:   4048 shell pairs
          la=2 lb=1:   1866 shell pairs
          la=2 lb=2:    698 shell pairs
          la=3 lb=0:   2115 shell pairs
          la=3 lb=1:    984 shell pairs
          la=3 lb=2:    716 shell pairs
          la=3 lb=3:    196 shell pairs

Calculating one electron integrals          ... done (  0.0 sec)
Calculating RI/J V-Matrix + Cholesky decomp.... done (  0.1 sec)
Calculating Nuclear repulsion               ... done (  0.0 sec) ENN=    495.632370193998 Eh

Diagonalization of the overlap matrix:
Smallest eigenvalue                        ... 8.455e-07
Time for diagonalization                   ...    0.046 sec
Threshold for overlap eigenvalues          ... 1.000e-07
Number of eigenvalues below threshold      ... 0

IMPORTANT:
Smallest eigenvalue of S below the DiffSThresh (1.000e-06) while
Thresh>1e-12 and/or TCut>1e-13! In order to avoid SCF convergence issues,
Thresh will be set to at least 1e-12 and TCut to at least 1e-13.
This can be turned off by adding %SCF DiffSThresh -1 END to the input.

Time for construction of square roots      ...    0.044 sec
Total time needed                          ...    0.113 sec

-------------------
DFT GRID GENERATION
-------------------

General Integration Accuracy     IntAcc      ... 4.388
Radial Grid Type                 RadialGrid  ... OptM3 with GC (2021)
Angular Grid (max. ang.)         AngularGrid ... 4 (Lebedev-302)
Angular grid pruning method      GridPruning ... 4 (adaptive)
Weight generation scheme         WeightScheme... mBecke (2022)
Basis function cutoff            BFCut       ... 1.0000e-11
Integration weight cutoff        WCut        ... 1.0000e-14
Partially contracted basis set               ... off
Rotationally invariant grid construction     ... off
Angular grids for H and He will be reduced by one unit
Diffuse basis detected: some atoms will have their outermost
                        angular grid increased by 1.

Total number of grid points                  ...    76748
Total number of batches                      ...     1206
Average number of points per batch           ...       63
Average number of grid points per atom       ...     5482

---------------------
SHARK GRID GENERATION
---------------------

General Integration Accuracy     IntAcc      ... 4.388
Radial Grid Type                 RadialGrid  ... OptM3 with GC (2021)
Angular Grid (max. ang.)         AngularGrid ... 4 (Lebedev-302)
Angular grid pruning method      GridPruning ... 4 (adaptive)
Weight generation scheme         WeightScheme... mBecke (2022)
Basis function cutoff            BFCut       ... 1.0000e-11
Integration weight cutoff        WCut        ... 1.0000e-14
Partially contracted basis set               ... off
Rotationally invariant grid construction     ... off
Angular grids for H and He will be reduced by one unit
Diffuse basis detected: some atoms will have their outermost
                        angular grid increased by 1.
Steep s-basis detected: some atoms will have their radial
                        grid points doubled.

Total number of grid points                  ...   140456
Total number of batches                      ...     2201
Average number of points per batch           ...       63
Average number of grid points per atom       ...    10033

--------------------
COSX GRID GENERATION
--------------------

GRIDX 1
-------
General Integration Accuracy     IntAcc      ... 3.816
Radial Grid Type                 RadialGrid  ... OptM3 with GC (2021)
Angular Grid (max. ang.)         AngularGrid ... 1 (Lebedev-50)
Angular grid pruning method      GridPruning ... 4 (adaptive)
Weight generation scheme         WeightScheme... mBecke (2022)
Basis function cutoff            BFCut       ... 1.0000e-11
Integration weight cutoff        WCut        ... 1.0000e-14
Partially contracted basis set               ... on
Rotationally invariant grid construction     ... off
Angular grids for H and He will be reduced by one unit
Diffuse basis detected: some atoms will have their outermost
                        angular grid increased by 1.

Total number of grid points                  ...     9671
Total number of batches                      ...       80
Average number of points per batch           ...      120
Average number of grid points per atom       ...      691
UseSFitting                                  ... on

GRIDX 2
-------
General Integration Accuracy     IntAcc      ... 4.020
Radial Grid Type                 RadialGrid  ... OptM3 with GC (2021)
Angular Grid (max. ang.)         AngularGrid ... 2 (Lebedev-110)
Angular grid pruning method      GridPruning ... 4 (adaptive)
Weight generation scheme         WeightScheme... mBecke (2022)
Basis function cutoff            BFCut       ... 1.0000e-11
Integration weight cutoff        WCut        ... 1.0000e-14
Partially contracted basis set               ... on
Rotationally invariant grid construction     ... off
Angular grids for H and He will be reduced by one unit
Diffuse basis detected: some atoms will have their outermost
                        angular grid increased by 1.

Total number of grid points                  ...    24720
Total number of batches                      ...      201
Average number of points per batch           ...      122
Average number of grid points per atom       ...     1766
UseSFitting                                  ... on

GRIDX 3
-------
General Integration Accuracy     IntAcc      ... 4.338
Radial Grid Type                 RadialGrid  ... OptM3 with GC (2021)
Angular Grid (max. ang.)         AngularGrid ... 3 (Lebedev-194)
Angular grid pruning method      GridPruning ... 4 (adaptive)
Weight generation scheme         WeightScheme... mBecke (2022)
Basis function cutoff            BFCut       ... 1.0000e-11
Integration weight cutoff        WCut        ... 1.0000e-14
Partially contracted basis set               ... on
Rotationally invariant grid construction     ... off
Angular grids for H and He will be reduced by one unit
Diffuse basis detected: some atoms will have their outermost
                        angular grid increased by 1.

Total number of grid points                  ...    54293
Total number of batches                      ...      431
Average number of points per batch           ...      125
Average number of grid points per atom       ...     3878
UseSFitting                                  ... on
Initializing property integral containers    ... done (  0.1 sec)

SHARK setup successfully completed in   6.5 seconds

Maximum memory used throughout the entire STARTUP-calculation: 63.9 MB


           ************************************************************
           *        Program running with 4 parallel MPI-processes     *
           *              working on a common directory               *
           ************************************************************
-------------------------------------------------------------------------------
                                 ORCA GUESS
                   Start orbitals & Density for SCF / CASSCF
-------------------------------------------------------------------------------

------------
SCF SETTINGS
------------
Hamiltonian:
 Density Functional     Method          .... DFT(GTOs)
 Exchange Functional    Exchange        .... PBE
   PBE kappa parameter   XKappa         ....  0.804000
   PBE mue parameter    XMuePBE         ....  0.219520
 Correlation Functional Correlation     .... PBE
   PBE beta parameter  CBetaPBE         ....  0.066725
 LDA part of GGA corr.  LDAOpt          .... PW91-LDA
 Gradients option       PostSCFGGA      .... off
 Hybrid DFT is turned on
   Fraction HF Exchange ScalHFX         ....  0.250000
   Scaling of DF-GGA-X  ScalDFX         ....  0.750000
   Scaling of DF-GGA-C  ScalDFC         ....  1.000000
   Scaling of DF-LDA-C  ScalLDAC        ....  1.000000
   Perturbative correction              ....  0.000000
   NL short-range parameter             ....  6.900000
 RI-approximation to the Coulomb term is turned on
   Number of AuxJ basis functions       .... 534
   RIJ-COSX (HFX calculated with COS-X)).... on


General Settings:
 Integral files         IntName         .... cs_rporg_111_ox_solv_04
 Hartree-Fock type      HFTyp           .... RHF
 Total Charge           Charge          ....    0
 Multiplicity           Mult            ....    1
 Number of Electrons    NEL             ....   72
 Basis Dimension        Dim             ....  552
 Nuclear Repulsion      ENuc            ....    495.6323701940 Eh

Convergence Acceleration:
 AO-DIIS                CNVDIIS         .... on
   Start iteration      DIISMaxIt       ....     0
   Startup error        DIISStart       ....  0.200000
   # of expansion vecs  DIISMaxEq       ....     5
   Bias factor          DIISBfac        ....   1.050
   Max. coefficient     DIISMaxC        ....  10.000
 MO-DIIS                CNVKDIIS        .... off
 Trust-Rad. Augm. Hess. CNVTRAH         .... auto
   Auto Start mean grad. ratio tolernc. ....  1.125000
   Auto Start start iteration           ....    50
   Auto Start num. interpolation iter.  ....    10
   Max. Number of Micro iterations      ....    24
   Max. Number of Macro iterations      .... Maxiter - #DIIS iter
   Number of Davidson start vectors     ....     2
   Converg. threshold    (grad. norm)   ....   1.000e-05
   Grad. Scal. Fac. for Micro threshold ....   0.100
   Minimum threshold for Micro iter.    ....   1.000e-02
   NR start threshold (gradient norm)   ....   1.000e-04
   Initial trust radius                 ....   0.400
   Minimum AH scaling param. (alpha)    ....   1.000
   Maximum AH scaling param. (alpha)    .... 1000.000
   Quad. conv. algorithm                .... NR
   White noise on init. David. guess    .... on
   Maximum white noise                  ....   0.010
   Pseudo random numbers                .... off
   Inactive MOs                         .... canonical
   Orbital update algorithm             .... Taylor
   Preconditioner                       .... Diag
   Full preconditioner red. dimension   ....   250
 SOSCF                  CNVSOSCF        .... on
   Start iteration      SOSCFMaxIt      ....   150
   Startup grad/error   SOSCFStart      ....  0.001000
   Hessian update       SOSCFHessUp     .... L-BFGS
 Level Shifting         CNVShift        .... on
   Level shift para.    LevelShift      ....    0.2500
   Turn off err/grad.   ShiftErr        ....    0.0000
 Zerner damping         CNVZerner       .... off
 Static damping         CNVDamp         .... on
   Fraction old density DampFac         ....    0.8500
   Max. Damping (<1)    DampMax         ....    0.9800
   Min. Damping (>=0)   DampMin         ....    0.0000
   Turn off err/grad.   DampErr         ....    0.0300

SCF Procedure:
 Maximum # iterations   MaxIter         ....  1500
 SCF integral mode      SCFMode         .... Direct
   Integral package                     .... SHARK and LIBINT hybrid scheme
 Reset frequency        DirectResetFreq ....    20
 Integral Threshold     Thresh          ....  1.000e-12 Eh
 Primitive CutOff       TCut            ....  1.000e-13 Eh

Convergence Tolerance:
 Convergence Check Mode ConvCheckMode   .... Total+1el-Energy
 Convergence forced     ConvForced      .... 0
 Energy Change          TolE            ....  1.000e-08 Eh
 1-El. energy change                    ....  1.000e-05 Eh
 Orbital Gradient       TolG            ....  1.000e-05
 Orbital Rotation angle TolX            ....  1.000e-05
 DIIS Error             TolErr          ....  5.000e-07

------------------------------
INITIAL GUESS: MODEL POTENTIAL
------------------------------
Loading Hartree-Fock densities                     ... done
Calculating cut-offs                               ... done
Initializing the effective Hamiltonian             ... done
Setting up the integral package (SHARK)            ... done
Starting the Coulomb interaction                   ... done (   0.3 sec)
Making the grid                                    ... done (   0.3 sec)
Mapping shells                                     ... done
Starting the XC term evaluation                    ... done (   0.4 sec)
  promolecular density results
     # of electrons  =     71.999112145
     EX              =    -64.718428287
     EC              =     -2.448154352
     EX+EC           =    -67.166582640
Transforming the Hamiltonian                       ... done (   0.0 sec)
Diagonalizing the Hamiltonian                      ... done (   0.0 sec)
Back transforming the eigenvectors                 ... done (   0.0 sec)
Now organizing SCF variables                       ... done
                      ------------------
                      INITIAL GUESS DONE (   1.3 sec)
                      ------------------
             **** ENERGY FILE WAS UPDATED (cs_rporg_111_ox_solv_04.en.tmp) ****
Finished Guess after   2.1 sec
Maximum memory used throughout the entire GUESS-calculation: 43.8 MB


           ************************************************************
           *        Program running with 4 parallel MPI-processes     *
           *              working on a common directory               *
           ************************************************************

-------------------------------------------------------------------------------------------
                                      ORCA LEAN-SCF
                              memory conserving SCF solver
-------------------------------------------------------------------------------------------

--------------------
CPCM SOLVATION MODEL
--------------------
CPCM parameters:
  Epsilon                                         ...      35.6880
  Refrac                                          ...       1.3442
  Rsolv                                           ...       2.1900
  Surface type                                    ...    GEPOL SES
  Discretization scheme                           ... Constant num. charges
  Epsilon function type                           ...         CPCM
Solvent:                                          ... ACETONITRILE
SMD-CDS solvent descriptors:
  Soln                                            ...       1.3442
  Soln25                                          ...       1.3416
  Sola                                            ...       0.0700
  Solb                                            ...       0.3200
  Solg                                            ...      41.2500
  Solc                                            ...       0.0000
  Solh                                            ...       0.0000
Radii:
  Scheme                                          ... Element-dependent radii
  Radius for C  used is    3.4960 Bohr (=   1.8500 Ang.)
  Radius for F  used is    3.2692 Bohr (=   1.7300 Ang.)
  Radius for H  used is    2.2677 Bohr (=   1.2000 Ang.)
  Radius for N  used is    3.5716 Bohr (=   1.8900 Ang.)
  Radius for O  used is    4.0969 Bohr (=   2.1680 Ang.)
Calculating surface                               ...        done! (  0.0s)
Cavity surface points                             ...          469
Cavity Volume                                     ...    1090.1983
Cavity Surface-area                               ...     604.2724
Calculating surface distance matrix               ...        done! (  0.0s)
Performing Cholesky decomposition & store         ...        done! (  0.0s)
Overall time for CPCM initialization              ...                 0.1s

----------------------------------------D-I-I-S--------------------------------------------
Iteration    Energy (Eh)           Delta-E    RMSDP     MaxDP     DIISErr   Damp  Time(sec)
-------------------------------------------------------------------------------------------
               ***  Starting incremental Fock matrix formation  ***
    1    -535.4024903080367039     0.00e+00  9.57e-04  4.23e-02  2.03e-01  0.850  13.7
    2    -535.4626194030222450    -6.01e-02  9.60e-04  4.45e-02  1.45e-01  0.850   8.4
                               ***Turning on AO-DIIS***
    3    -535.4993864523928551    -3.68e-02  6.18e-04  2.76e-02  9.68e-02  0.850   7.7
    4    -535.5225127980138495    -2.31e-02  4.58e-04  2.25e-02  7.77e-02  0.850   7.4
    5    -535.5392653200588029    -1.68e-02  3.68e-04  1.85e-02  6.56e-02  0.850   7.3
    6    -535.5526246247368363    -1.34e-02  3.07e-04  1.56e-02  5.57e-02  0.850   7.2
    7    -535.5636903197544143    -1.11e-02  2.60e-04  1.33e-02  4.67e-02  0.850   7.2
    8    -535.5728785301143944    -9.19e-03  2.21e-04  1.13e-02  3.86e-02  0.850   7.2
    9    -535.5803986060334410    -7.52e-03  1.88e-04  9.63e-03  3.23e-02  0.850   7.2
   10    -535.5865928589591931    -6.19e-03  1.60e-04  8.23e-03  2.73e-02  0.850   7.2
   11    -535.5917443122532404    -5.15e-03  9.08e-04  4.67e-02  2.30e-02  0.000   7.2
   12    -535.6191836431430602    -2.74e-02  3.07e-05  1.46e-03  1.94e-03  0.000   7.4
                              *** Initializing SOSCF ***
---------------------------------------S-O-S-C-F--------------------------------------
Iteration    Energy (Eh)           Delta-E    RMSDP     MaxDP     MaxGrad    Time(sec)
--------------------------------------------------------------------------------------
   13    -535.6191995532183228    -1.59e-05  8.97e-06  6.69e-04  2.33e-04     7.2
               *** Restarting incremental Fock matrix formation ***
   14    -535.6191879747407256     1.16e-05  1.33e-04  5.05e-03  1.35e-04    13.6
   15    -535.6191877445260161     2.30e-07  1.17e-05  5.04e-04  2.49e-04    11.9
   16    -535.6191882166035612    -4.72e-07  9.68e-06  3.61e-04  8.05e-06    11.1
   17    -535.6191882097316466     6.87e-09  8.48e-07  4.15e-05  1.22e-05    10.8
                 **** Energy Check signals convergence ****

               *****************************************************
               *                     SUCCESS                       *
               *           SCF CONVERGED AFTER  17 CYCLES          *
               *****************************************************

Recomputing exchange energy using gridx3       ... done (   21.546 sec)
Old exchange energy                            :    -16.377255231 Eh
New exchange energy                            :    -16.377282150 Eh
Exchange energy change after final integration :     -0.000026919 Eh
Total energy after final integration           :   -535.619215129 Eh

SMD CDS free energy correction energy :                -0.64107     Kcal/mol
Total Energy after SMD CDS correction =              -535.620236745 Eh
             **** ENERGY FILE WAS UPDATED (cs_rporg_111_ox_solv_04.en.tmp) ****

----------------
TOTAL SCF ENERGY
----------------

Total Energy       :       -535.62023674482043 Eh          -14574.96762 eV

Components:
Nuclear Repulsion  :        495.63237019399850 Eh           13486.84245 eV
Electronic Energy  :      -1031.24006822675119 Eh          -28061.46887 eV
One Electron Energy:      -1714.20441669229331 Eh          -46645.87361 eV
Two Electron Energy:        682.96434846554200 Eh           18584.40473 eV
CPCM Dielectric    :         -0.01149017697888 Eh              -0.31266 eV
SMD CDS (Gcds)     :         -0.00102161622571 Eh              -0.02780 eV

Virial components:
Potential Energy   :      -1068.25632437907279 Eh          -29068.73241 eV
Kinetic Energy     :        532.63608763425248 Eh           14493.76479 eV
Virial Ratio       :          2.00560260406654

DFT components:
N(Alpha)           :       36.000015888357 electrons
N(Beta)            :       36.000015888357 electrons
N(Total)           :       72.000031776714 electrons
E(X)               :      -49.126439237393 Eh       
E(C)               :       -2.449824661814 Eh       
E(XC)              :      -51.576263899208 Eh       

CPCM Solvation Model Properties:
Surface-charge          :         -0.02107913356196
Corrected charge        :          0.00000000000000
Outlying charge corr.   :          0.00003158628249 Eh               0.00086 eV
Free-energy (cav+disp)  :         -0.00102161622571 Eh              -0.02780 eV

---------------
SCF CONVERGENCE
---------------

  Last Energy change         ...   -6.8719e-09  Tolerance :   1.0000e-08
  Last MAX-Density change    ...    4.1543e-05  Tolerance :   1.0000e-07
  Last RMS-Density change    ...    8.4817e-07  Tolerance :   5.0000e-09
  Last DIIS Error            ...    2.3254e-04  Tolerance :   5.0000e-07
  Last Orbital Gradient      ...    1.2239e-05  Tolerance :   1.0000e-05
  Last Orbital Rotation      ...    1.2523e-05  Tolerance :   1.0000e-05


----------------
ORBITAL ENERGIES
----------------

  NO   OCC          E(Eh)            E(eV) 
   0   2.0000     -24.809768      -675.1081 
   1   2.0000     -19.251676      -523.8647 
   2   2.0000     -19.251668      -523.8645 
   3   2.0000     -14.635584      -398.2545 
   4   2.0000     -10.337231      -281.2904 
   5   2.0000     -10.292519      -280.0737 
   6   2.0000     -10.262480      -279.2563 
   7   2.0000     -10.262477      -279.2562 
   8   2.0000     -10.253345      -279.0077 
   9   2.0000     -10.253339      -279.0075 
  10   2.0000      -1.290991       -35.1297 
  11   2.0000      -1.285316       -34.9752 
  12   2.0000      -1.106433       -30.1076 
  13   2.0000      -0.922091       -25.0914 
  14   2.0000      -0.836253       -22.7556 
  15   2.0000      -0.801261       -21.8034 
  16   2.0000      -0.727442       -19.7947 
  17   2.0000      -0.666549       -18.1377 
  18   2.0000      -0.630139       -17.1470 
  19   2.0000      -0.591142       -16.0858 
  20   2.0000      -0.579077       -15.7575 
  21   2.0000      -0.571604       -15.5541 
  22   2.0000      -0.554669       -15.0933 
  23   2.0000      -0.525900       -14.3105 
  24   2.0000      -0.513552       -13.9745 
  25   2.0000      -0.477206       -12.9854 
  26   2.0000      -0.459866       -12.5136 
  27   2.0000      -0.448145       -12.1946 
  28   2.0000      -0.438317       -11.9272 
  29   2.0000      -0.401297       -10.9198 
  30   2.0000      -0.374575       -10.1927 
  31   2.0000      -0.344341        -9.3700 
  32   2.0000      -0.338922        -9.2225 
  33   2.0000      -0.324609        -8.8331 
  34   2.0000      -0.293683        -7.9915 
  35   2.0000      -0.285061        -7.7569 
  36   0.0000      -0.091531        -2.4907 
  37   0.0000      -0.032179        -0.8756 
  38   0.0000       0.003291         0.0896 
  39   0.0000       0.003433         0.0934 
  40   0.0000       0.018132         0.4934 
  41   0.0000       0.018828         0.5123 
  42   0.0000       0.038346         1.0434 
  43   0.0000       0.040056         1.0900 
  44   0.0000       0.048659         1.3241 
  45   0.0000       0.055736         1.5166 
  46   0.0000       0.071132         1.9356 
*Only the first 10 virtual orbitals were printed.

                    ********************************
                    * MULLIKEN POPULATION ANALYSIS *
                    ********************************

-----------------------
MULLIKEN ATOMIC CHARGES
-----------------------
   0 C :   -0.621709
   1 C :   -0.524273
   2 C :    0.273999
   3 C :   -0.526557
   4 C :   -0.622784
   5 C :    0.553101
   6 F :   -0.432942
   7 H :    0.489723
   8 H :    0.724562
   9 N :    0.856575
  10 O :   -0.691741
  11 O :   -0.691754
  12 H :    0.725071
  13 H :    0.488729
Sum of atomic charges:   -0.0000000

--------------------------------
MULLIKEN REDUCED ORBITAL CHARGES
--------------------------------
  0 C s       :     3.635213  s :     3.635213
      pz      :     0.959202  p :     2.858466
      px      :     0.990049
      py      :     0.909215
      dz2     :    -0.004603  d :     0.141211
      dxz     :     0.023633
      dyz     :     0.014857
      dx2y2   :     0.090569
      dxy     :     0.016755
      f0      :     0.000812  f :    -0.013181
      f+1     :    -0.000386
      f-1     :     0.001016
      f+2     :     0.001226
      f-2     :    -0.002209
      f+3     :     0.000669
      f-3     :    -0.014309

  1 C s       :     3.837078  s :     3.837078
      pz      :     0.903197  p :     2.623915
      px      :     0.662648
      py      :     1.058070
      dz2     :    -0.004483  d :     0.080957
      dxz     :     0.018622
      dyz     :     0.002014
      dx2y2   :     0.001372
      dxy     :     0.063432
      f0      :     0.001397  f :    -0.017678
      f+1     :     0.000929
      f-1     :     0.000578
      f+2     :     0.001901
      f-2     :    -0.000953
      f+3     :    -0.000466
      f-3     :    -0.021065

  2 C s       :     3.258835  s :     3.258835
      pz      :     1.019484  p :     2.630103
      px      :     0.494187
      py      :     1.116433
      dz2     :    -0.015961  d :    -0.109837
      dxz     :     0.007472
      dyz     :     0.015122
      dx2y2   :    -0.017158
      dxy     :    -0.099313
      f0      :     0.003558  f :    -0.053100
      f+1     :    -0.002259
      f-1     :     0.000515
      f+2     :     0.002732
      f-2     :    -0.000520
      f+3     :    -0.004799
      f-3     :    -0.052326

  3 C s       :     3.837071  s :     3.837071
      pz      :     0.903185  p :     2.624770
      px      :     0.663518
      py      :     1.058067
      dz2     :    -0.004393  d :     0.081953
      dxz     :     0.018598
      dyz     :     0.002008
      dx2y2   :     0.002371
      dxy     :     0.063370
      f0      :     0.001397  f :    -0.017238
      f+1     :     0.000952
      f-1     :     0.000569
      f+2     :     0.001898
      f-2     :    -0.000955
      f+3     :    -0.000410
      f-3     :    -0.020688

  4 C s       :     3.634513  s :     3.634513
      pz      :     0.959206  p :     2.859601
      px      :     0.991140
      py      :     0.909256
      dz2     :    -0.004538  d :     0.141811
      dxz     :     0.023674
      dyz     :     0.014861
      dx2y2   :     0.090983
      dxy     :     0.016829
      f0      :     0.000812  f :    -0.013142
      f+1     :    -0.000386
      f-1     :     0.001015
      f+2     :     0.001223
      f-2     :    -0.002209
      f+3     :     0.000670
      f-3     :    -0.014267

  5 C s       :     3.158840  s :     3.158840
      pz      :     0.904813  p :     2.068719
      px      :     0.449814
      py      :     0.714092
      dz2     :    -0.004054  d :     0.213393
      dxz     :     0.035108
      dyz     :     0.027576
      dx2y2   :     0.154135
      dxy     :     0.000626
      f0      :     0.002104  f :     0.005946
      f+1     :    -0.001139
      f-1     :    -0.000286
      f+2     :     0.006285
      f-2     :     0.001563
      f+3     :    -0.005760
      f-3     :     0.003180

  6 F s       :     4.040560  s :     4.040560
      pz      :     1.910222  p :     5.350630
      px      :     1.462876
      py      :     1.977532
      dz2     :     0.001898  d :     0.037902
      dxz     :     0.015832
      dyz     :     0.000199
      dx2y2   :     0.006531
      dxy     :     0.013443
      f0      :     0.000507  f :     0.003850
      f+1     :     0.000338
      f-1     :     0.000088
      f+2     :     0.000764
      f-2     :     0.000039
      f+3     :     0.000737
      f-3     :     0.001378

  7 H s       :     0.509718  s :     0.509718
      pz      :     0.013725  p :    -0.003799
      px      :    -0.010973
      py      :    -0.006551
      dz2     :    -0.000987  d :     0.004358
      dxz     :     0.001271
      dyz     :     0.003030
      dx2y2   :    -0.000040
      dxy     :     0.001084

  8 H s       :     0.316509  s :     0.316509
      pz      :     0.007042  p :    -0.042452
      px      :    -0.012596
      py      :    -0.036898
      dz2     :    -0.000671  d :     0.001381
      dxz     :     0.001145
      dyz     :     0.002698
      dx2y2   :     0.000103
      dxy     :    -0.001894

  9 N s       :     3.307610  s :     3.307610
      pz      :     1.079446  p :     2.777996
      px      :     0.888198
      py      :     0.810351
      dz2     :    -0.018949  d :     0.047667
      dxz     :     0.038965
      dyz     :     0.035692
      dx2y2   :     0.048371
      dxy     :    -0.056412
      f0      :     0.001211  f :     0.010153
      f+1     :     0.000767
      f-1     :     0.001030
      f+2     :     0.004786
      f-2     :     0.003855
      f+3     :    -0.000585
      f-3     :    -0.000913

 10 O s       :     4.060174  s :     4.060174
      pz      :     1.462605  p :     4.567379
      px      :     1.794242
      py      :     1.310532
      dz2     :     0.004919  d :     0.056676
      dxz     :     0.006080
      dyz     :     0.017596
      dx2y2   :     0.013179
      dxy     :     0.014902
      f0      :     0.000858  f :     0.007511
      f+1     :     0.000300
      f-1     :     0.000238
      f+2     :     0.000724
      f-2     :     0.001106
      f+3     :     0.002126
      f-3     :     0.002160

 11 O s       :     4.060128  s :     4.060128
      pz      :     1.462629  p :     4.567427
      px      :     1.794244
      py      :     1.310553
      dz2     :     0.004916  d :     0.056687
      dxz     :     0.006079
      dyz     :     0.017595
      dx2y2   :     0.013175
      dxy     :     0.014921
      f0      :     0.000858  f :     0.007512
      f+1     :     0.000299
      f-1     :     0.000237
      f+2     :     0.000724
      f-2     :     0.001106
      f+3     :     0.002128
      f-3     :     0.002161

 12 H s       :     0.315920  s :     0.315920
      pz      :     0.007040  p :    -0.042353
      px      :    -0.012498
      py      :    -0.036895
      dz2     :    -0.000668  d :     0.001362
      dxz     :     0.001142
      dyz     :     0.002698
      dx2y2   :     0.000083
      dxy     :    -0.001893

 13 H s       :     0.510547  s :     0.510547
      pz      :     0.013728  p :    -0.003637
      px      :    -0.010960
      py      :    -0.006405
      dz2     :    -0.000984  d :     0.004361
      dxz     :     0.001273
      dyz     :     0.003031
      dx2y2   :    -0.000038
      dxy     :     0.001079



                     *******************************
                     * LOEWDIN POPULATION ANALYSIS *
                     *******************************

----------------------
LOEWDIN ATOMIC CHARGES
----------------------
   0 C :    0.212087
   1 C :    0.196683
   2 C :   -0.244741
   3 C :    0.196678
   4 C :    0.212083
   5 C :   -0.539182
   6 F :    0.567375
   7 H :   -0.157080
   8 H :   -0.180584
   9 N :   -0.759353
  10 O :    0.416854
  11 O :    0.416844
  12 H :   -0.180582
  13 H :   -0.157084

-------------------------------
LOEWDIN REDUCED ORBITAL CHARGES
-------------------------------
  0 C s       :     2.494697  s :     2.494697
      pz      :     0.616268  p :     2.300948
      px      :     0.845684
      py      :     0.838997
      dz2     :     0.067841  d :     0.653534
      dxz     :     0.092308
      dyz     :     0.060928
      dx2y2   :     0.186329
      dxy     :     0.246128
      f0      :     0.021988  f :     0.338733
      f+1     :     0.029009
      f-1     :     0.024144
      f+2     :     0.048998
      f-2     :     0.027072
      f+3     :     0.060480
      f-3     :     0.127042

  1 C s       :     2.487288  s :     2.487288
      pz      :     0.575019  p :     2.266603
      px      :     0.851081
      py      :     0.840503
      dz2     :     0.070363  d :     0.699108
      dxz     :     0.112448
      dyz     :     0.064939
      dx2y2   :     0.205506
      dxy     :     0.245852
      f0      :     0.022280  f :     0.350319
      f+1     :     0.029656
      f-1     :     0.022933
      f+2     :     0.051759
      f-2     :     0.029615
      f+3     :     0.064406
      f-3     :     0.129669

  2 C s       :     2.466357  s :     2.466357
      pz      :     0.668266  p :     2.263649
      px      :     0.709893
      py      :     0.885490
      dz2     :     0.099259  d :     0.958075
      dxz     :     0.108550
      dyz     :     0.134795
      dx2y2   :     0.343609
      dxy     :     0.271863
      f0      :     0.035319  f :     0.556660
      f+1     :     0.045100
      f-1     :     0.036633
      f+2     :     0.048961
      f-2     :     0.073590
      f+3     :     0.091780
      f-3     :     0.225276

  3 C s       :     2.487289  s :     2.487289
      pz      :     0.575020  p :     2.266603
      px      :     0.851082
      py      :     0.840501
      dz2     :     0.070363  d :     0.699110
      dxz     :     0.112447
      dyz     :     0.064939
      dx2y2   :     0.205507
      dxy     :     0.245854
      f0      :     0.022280  f :     0.350320
      f+1     :     0.029656
      f-1     :     0.022933
      f+2     :     0.051760
      f-2     :     0.029613
      f+3     :     0.064407
      f-3     :     0.129670

  4 C s       :     2.494696  s :     2.494696
      pz      :     0.616267  p :     2.300950
      px      :     0.845686
      py      :     0.838997
      dz2     :     0.067841  d :     0.653537
      dxz     :     0.092309
      dyz     :     0.060927
      dx2y2   :     0.186331
      dxy     :     0.246129
      f0      :     0.021988  f :     0.338734
      f+1     :     0.029009
      f-1     :     0.024144
      f+2     :     0.048997
      f-2     :     0.027072
      f+3     :     0.060480
      f-3     :     0.127042

  5 C s       :     2.488383  s :     2.488383
      pz      :     0.627717  p :     2.224142
      px      :     0.679587
      py      :     0.916838
      dz2     :     0.105021  d :     1.115438
      dxz     :     0.187044
      dyz     :     0.128473
      dx2y2   :     0.385745
      dxy     :     0.309155
      f0      :     0.043351  f :     0.711219
      f+1     :     0.060129
      f-1     :     0.036149
      f+2     :     0.105507
      f-2     :     0.058854
      f+3     :     0.132121
      f-3     :     0.275109

  6 F s       :     3.391761  s :     3.391761
      pz      :     1.657178  p :     4.842570
      px      :     1.503759
      py      :     1.681633
      dz2     :     0.016055  d :     0.167071
      dxz     :     0.048450
      dyz     :     0.001510
      dx2y2   :     0.039440
      dxy     :     0.061616
      f0      :     0.002962  f :     0.031223
      f+1     :     0.003339
      f-1     :     0.000770
      f+2     :     0.006144
      f-2     :     0.000331
      f+3     :     0.005891
      f-3     :     0.011786

  7 H s       :     0.653297  s :     0.653297
      pz      :     0.077152  p :     0.291012
      px      :     0.090936
      py      :     0.122924
      dz2     :     0.022583  d :     0.212771
      dxz     :     0.019098
      dyz     :     0.044263
      dx2y2   :     0.073818
      dxy     :     0.053009

  8 H s       :     0.642946  s :     0.642946
      pz      :     0.071956  p :     0.308909
      px      :     0.114089
      py      :     0.122864
      dz2     :     0.026862  d :     0.228729
      dxz     :     0.020386
      dyz     :     0.042207
      dx2y2   :     0.081454
      dxy     :     0.057820

  9 N s       :     2.674351  s :     2.674351
      pz      :     0.808526  p :     2.862035
      px      :     1.014054
      py      :     1.039455
      dz2     :     0.118422  d :     1.539972
      dxz     :     0.137666
      dyz     :     0.320112
      dx2y2   :     0.496830
      dxy     :     0.466943
      f0      :     0.027136  f :     0.682994
      f+1     :     0.028141
      f-1     :     0.051440
      f+2     :     0.053251
      f-2     :     0.102946
      f+3     :     0.134188
      f-3     :     0.285893

 10 O s       :     3.221777  s :     3.221777
      pz      :     1.199935  p :     3.953716
      px      :     1.452267
      py      :     1.301514
      dz2     :     0.036626  d :     0.293440
      dxz     :     0.014735
      dyz     :     0.058626
      dx2y2   :     0.094187
      dxy     :     0.089266
      f0      :     0.011044  f :     0.114212
      f+1     :     0.005133
      f-1     :     0.011546
      f+2     :     0.010743
      f-2     :     0.012907
      f+3     :     0.022089
      f-3     :     0.040749

 11 O s       :     3.221785  s :     3.221785
      pz      :     1.199947  p :     3.953727
      px      :     1.452276
      py      :     1.301504
      dz2     :     0.036626  d :     0.293435
      dxz     :     0.014735
      dyz     :     0.058624
      dx2y2   :     0.094186
      dxy     :     0.089265
      f0      :     0.011044  f :     0.114209
      f+1     :     0.005133
      f-1     :     0.011546
      f+2     :     0.010744
      f-2     :     0.012907
      f+3     :     0.022088
      f-3     :     0.040747

 12 H s       :     0.642946  s :     0.642946
      pz      :     0.071956  p :     0.308908
      px      :     0.114087
      py      :     0.122864
      dz2     :     0.026862  d :     0.228728
      dxz     :     0.020386
      dyz     :     0.042208
      dx2y2   :     0.081453
      dxy     :     0.057820

 13 H s       :     0.653300  s :     0.653300
      pz      :     0.077153  p :     0.291013
      px      :     0.090937
      py      :     0.122923
      dz2     :     0.022583  d :     0.212771
      dxz     :     0.019099
      dyz     :     0.044263
      dx2y2   :     0.073818
      dxy     :     0.053008



                      *****************************
                      * MAYER POPULATION ANALYSIS *
                      *****************************

  NA   - Mulliken gross atomic population
  ZA   - Total nuclear charge
  QA   - Mulliken gross atomic charge
  VA   - Mayer's total valence
  BVA  - Mayer's bonded valence
  FA   - Mayer's free valence

  ATOM       NA         ZA         QA         VA         BVA        FA
  0 C      6.6217     6.0000    -0.6217     3.3742     3.3742    -0.0000
  1 C      6.5243     6.0000    -0.5243     2.4934     2.4934    -0.0000
  2 C      5.7260     6.0000     0.2740     3.4592     3.4592    -0.0000
  3 C      6.5266     6.0000    -0.5266     2.4983     2.4983    -0.0000
  4 C      6.6228     6.0000    -0.6228     3.3798     3.3798    -0.0000
  5 C      5.4469     6.0000     0.5531     2.9583     2.9583    -0.0000
  6 F      9.4329     9.0000    -0.4329     1.0287     1.0287    -0.0000
  7 H      0.5103     1.0000     0.4897     0.7578     0.7578    -0.0000
  8 H      0.2754     1.0000     0.7246     0.1617     0.1617     0.0000
  9 N      6.1434     7.0000     0.8566     2.6201     2.6201    -0.0000
 10 O      8.6917     8.0000    -0.6917     1.2236     1.2236    -0.0000
 11 O      8.6918     8.0000    -0.6918     1.2236     1.2236    -0.0000
 12 H      0.2749     1.0000     0.7251     0.1601     0.1601     0.0000
 13 H      0.5113     1.0000     0.4887     0.7591     0.7591    -0.0000

  Mayer bond orders larger than 0.100000
B(  0-C ,  1-C ) :   1.3905 B(  0-C ,  2-C ) :  -0.3177 B(  0-C ,  4-C ) :   0.1600 
B(  0-C ,  5-C ) :   1.3974 B(  0-C ,  6-F ) :   0.2233 B(  0-C , 13-H ) :   0.5065 
B(  1-C ,  2-C ) :   1.0729 B(  1-C ,  3-C ) :   0.1111 B(  1-C ,  9-N ) :  -0.1915 
B(  1-C , 12-H ) :   0.1563 B(  2-C ,  3-C ) :   1.0742 B(  2-C ,  4-C ) :  -0.3177 
B(  2-C ,  9-N ) :   1.1415 B(  2-C , 10-O ) :   0.3527 B(  2-C , 11-O ) :   0.3537 
B(  3-C ,  4-C ) :   1.3920 B(  3-C ,  8-H ) :   0.1567 B(  3-C ,  9-N ) :  -0.1883 
B(  4-C ,  5-C ) :   1.3972 B(  4-C ,  6-F ) :   0.2264 B(  4-C ,  7-H ) :   0.5061 
B(  5-C ,  6-F ) :   0.1888 B(  6-F ,  7-H ) :   0.1547 B(  6-F , 13-H ) :   0.1556 
B(  9-N , 10-O ) :   0.8907 B(  9-N , 11-O ) :   0.8914 B( 10-O , 11-O ) :   0.1695 


-------
TIMINGS
-------

Total SCF time: 0 days 0 hours 2 min 52 sec 

Total time                  ....     172.856 sec
Sum of individual times     ....     172.207 sec  ( 99.6%)

SCF preparation             ....       0.858 sec  (  0.5%)
Fock matrix formation       ....     163.711 sec  ( 94.7%)
  Startup                   ....       0.808 sec  (  0.5% of F)
  Split-RI-J                ....      11.402 sec  (  7.0% of F)
  Chain of spheres X        ....     114.597 sec  ( 70.0% of F)
  XC integration            ....      30.389 sec  ( 18.6% of F)
    XC Preparation          ....       0.000 sec  (  0.0% of XC)
    Basis function eval.    ....       5.748 sec  ( 18.9% of XC)
    Density eval.           ....       6.913 sec  ( 22.7% of XC)
    XC-Functional eval.     ....       0.401 sec  (  1.3% of XC)
    XC-Potential eval.      ....      15.078 sec  ( 49.6% of XC)
  CPCM terms                ....       4.426 sec  (  2.7% of F)
Diagonalization             ....       0.000 sec  (  0.0%)
Density matrix formation    ....       1.832 sec  (  1.1%)
Total Energy calculation    ....       0.730 sec  (  0.4%)
Population analysis         ....       0.213 sec  (  0.1%)
Orbital Transformation      ....       0.344 sec  (  0.2%)
Orbital Orthonormalization  ....       0.000 sec  (  0.0%)
DIIS solution               ....       3.816 sec  (  2.2%)
SOSCF solution              ....       0.702 sec  (  0.4%)
Finished LeanSCF after 173.0 sec

Maximum memory used throughout the entire LEANSCF-calculation: 74.9 MB


-------------------------------------------------------------------------------
                          DFT DISPERSION CORRECTION                            
                                                                               
                              DFTD3 V3.1  Rev 1                                
                          USING Becke-Johnson damping                          
-------------------------------------------------------------------------------
The PBE0 functional is recognized
Active option DFTDOPT                   ...         4   

molecular C6(AA) [au] = 2559.550596 


            DFT-D V3
 parameters
 s6 scaling factor         :     1.0000 
 a1 scaling factor         :     0.4145 
 s8 scaling factor         :     1.2177 
 a2 scaling factor         :     4.8593 
 ad hoc parameters k1-k3   :    16.0000     1.3333    -4.0000 

 Edisp/kcal,au: -7.958913798759  -0.012683335119 
 E6   /kcal   :  -4.936676460 
 E8   /kcal   :  -3.022237339 
 % E8         :  37.972987466 

-------------------------   ----------------
Dispersion correction           -0.012683335
-------------------------   ----------------


-------------------------   --------------------
FINAL SINGLE POINT ENERGY      -535.632920079939
-------------------------   --------------------



           ************************************************************
           *        Program running with 4 parallel MPI-processes     *
           *              working on a common directory               *
           ************************************************************

------------------------------------------------------------------------------
                              ORCA PROPERTY CALCULATIONS
------------------------------------------------------------------------------

GBWName                                 ... cs_rporg_111_ox_solv_04.gbw
Number of atoms                         ...     14
Number of basis functions               ...    612
Max core memory                         ...   3000 MB

Electric properties:
Dipole moment                           ... YES
Quadrupole moment                       ...  NO
Static polarizability (Dipole/Dipole)   ...  NO
Static polarizability (Dipole/Quad.)    ...  NO
Static polarizability (Quad./Quad.)     ...  NO
Static polarizability (Velocity)        ...  NO

Atomic electric properties:
Dipole moment                           ...  NO
Quadrupole moment                       ...  NO
Static polarizability                   ...  NO

Choice of electric origin               ... Center of mass
Position of electric origin             ...     0.004163    -0.000003    -0.000020

General magnetic properties:
Magnetizability                         ...  NO

EPR properties:
g-Tensor (aka g-matrix)                 ...  NO
Zero-Field splitting spin-orbit         ...  NO
Zero-field splitting spin-spin          ...  NO
Hyperfine couplings                     ...  NO (   0 nuclei)
Quadrupole couplings                    ...  NO (   0 nuclei)
Contact density                         ...  NO (   0 nuclei)

NMR properties:
Chemical shifts                         ...  NO (   0 nuclei)
Spin-rotation constants                 ...  NO (   0 nuclei)
Spin-spin couplings                     ...  NO (   0 nuclei,    0 pairs)

Choice of magnetic origin               ... GIAO
Position of magnetic origin             ...     0.000000     0.000000     0.000000

Properties with geometric perturbations:
SCF Hessian                             ...  NO
IR spectrum                             ...  NO
VCD spectrum                            ...  NO
X-ray spectroscopy properties:
SCF XES/XAS/RIXS spectra                ...  NO


-------------
DIPOLE MOMENT
-------------

Method             : SCF
Type of density    : Electron Density
Multiplicity       :   1
Irrep              :   0
Energy             :  -535.6202367448204313 Eh
Relativity type    : 
Basis              : AO
                                X                 Y                 Z
Electronic contribution:     -2.289127892      -0.000031132       0.000148152
Nuclear contribution   :      0.647078379      -0.000000805       0.000058033
                        -----------------------------------------
Total Dipole Moment    :     -1.642049513      -0.000031937       0.000206185
                        -----------------------------------------
Magnitude (a.u.)       :      1.642049526
Magnitude (Debye)      :      4.173758201



--------------------
Rotational spectrum 
--------------------
 
Rotational constants in cm-1:             0.132896             0.026895             0.022368 
Rotational constants in MHz :          3984.136470           806.287592           670.579423 

Dipole components along the rotational axes: 
x,y,z [a.u.] :    -1.642050    -0.000042     0.000208 
x,y,z [Debye]:    -4.173758    -0.000106     0.000528 

 

Dipole moment calculation done in   0.0 sec 

Maximum memory used throughout the entire PROP-calculation: 43.9 MB

--------------------------------
SUGGESTED CITATIONS FOR THIS RUN
--------------------------------

Below you find a list of papers that are relevant to this ORCA run
We neither can nor want to force you to cite these papers, but we appreciate if you do
You receive ORCA, which is the product of decades of hard work by many enthusiastic individuals, for free
The only thing we kindly ask in return is that you cite our papers,
We deeply appreciate it, if you show your appreciation for ORCA by not just citing the generic ORCA reference.

Please note that relegating all ORCA citations to the supporting information does *not* help us.
SI sections are not indexed - citations you put there will not count into any citation statistics
But we need these citations in order to attract the funding resources that allow us to do what we are doing

Therefore, if you are a happy ORCA user, please consider citing a few of the papers listed below in the main body of your paper

In addition to the list printed below, the program has created the file cs_rporg_111_ox_solv_04.bibtex that contains the list in bibtex format
You can import this file easily into all common literature databanks and citation aid programs


List of essential papers. We consider these as the minimum necessary citations

  1. Neese,F.
     Software update: the ORCA program system, version 5.0
     WIRES Comput. Molec. Sci., 2022 12(1)e1606
     doi.org/10.1002/wcms.1606

List of papers to cite with high priority. The work reported in these papers was absolutely
necessary for this run to complete.
Our perspective: the developers of density functionals and basis sets usually get cited in chemistry papers
Good! But without the algorithms to do something with them, the functionals or basis sets would not do anything.
Hence, in our opinion, the algorithm design and method developments papers are equally worthy of getting cited

  1. Neese,F.
     An improvement of the resolution of the identity approximation for the formation of the Coulomb matrix
     J. Comp. Chem., 2003 24(14)1740-1747
     doi.org/10.1002/jcc.10318
  2. Neese,F.; Wennmohs,F.; Hansen,A.; Becker,U.
     Efficient, approximate and parallel Hartree-Fock and hybrid DFT calculations. A 'chain-of-spheres' algorithm for the Hartree-Fock exchange
     Chem. Phys., 2009 356(1-3)98-109
     doi.org/10.1016/j.chemphys.2008.10.036
  3. Garcia-Rates,M.; Neese,F.
     Effect of the Solute Cavity on the Solvation Energy and its Derivatives within the Framework of the Gaussian Charge Scheme
     J. Comput. Chem., 2020 41 922-939
     doi.org/10.1002/jcc.26139
  4. Helmich-Paris,B.; de Souza,B.; Neese,F.; Izsák,R.
     An improved chain of spheres for exchange algorithm
     J. Chem. Phys., 2021 155 104109
     doi.org/doi: 10.1063/5.0058766.
  5. Neese,F.
     The SHARK Integral Generation and Digestion System
     J. Comp. Chem., 2022  1-16
     doi.org/10.1002/jcc.26942
  6. Grimme,S.; Antony,J.; Ehrlich,S.; Krieg,H.
     A consistent and accurate ab initio parametrization of density functional dispersion correction (DFT-D) for the 94 elements H-Pu
     J. Chem. Phys., 2010 132 154104-XXXX
     doi.org/10.1063/1.3382344
  7. Grimme,S.; Ehrlich,S.; Goerigk,L.
     Effect of the damping function in dispersion corrected density functional theory
     J. Comput. Chem., 2011 32(7)1456-1465
     doi.org/10.1002/jcc.21759

List of suggested additional citations. These are papers that are important in the 'surrounding' of 
of this run, or papers that preceded the highly important papers. If you like your results we are grateful for a citation.

  1. Izsak,R.; Neese,F.
     An overlap fitted chain of spheres exchange method
     J. Chem. Phys., 2011 135 144105
     doi.org/10.1063/1.3646921
  2. Izsak,R.; Hansen,A.; Neese,F.
     The resolution of identity and chain of spheres approximations for the LPNO-CCSD singles Fock term
     Molec. Phys., 2012 110 2413-2417
     doi.org/10.1080/00268976.2012.687466
  3. Neese,F.
     The ORCA program system
     WIRES Comput. Molec. Sci., 2012 2(1)73-78
     doi.org/10.1002/wcms.81
  4. Izsak,R.; Neese,F.; Klopper,W.
     Robust fitting techniques in the chain of spheres approximation to the Fock exchange: The role of the complementary space
     J. Chem. Phys., 2013 139 
     doi.org/10.1063/1.4819264
  5. Neese,F.
     Software update: the ORCA program system, version 4.0
     WIRES Comput. Molec. Sci., 2018 8(1)1-6
     doi.org/10.1002/wcms.1327
  6. Neese,F.; Wennmohs,F.; Becker,U.; Riplinger,C.
     The ORCA quantum chemistry program package
     J. Chem. Phys., 2020 152 Art. No. L224108
     doi.org/10.1063/5.0004608

List of optional additional citations

  1. Neese,F.
     Approximate second-order SCF convergence for spin unrestricted wavefunctions
     Chem. Phys. Lett., 2000 325(1-3)93-98
     doi.org/10.1016/s0009-2614(00)00662-x

Timings for individual modules:

Sum of individual times          ...      188.594 sec (=   3.143 min)
Startup calculation              ...        9.095 sec (=   0.152 min)   4.8 %
SCF iterations                   ...      177.671 sec (=   2.961 min)  94.2 %
Property calculations            ...        1.828 sec (=   0.030 min)   1.0 %
                             ****ORCA TERMINATED NORMALLY****
TOTAL RUN TIME: 0 days 0 hours 3 minutes 12 seconds 103 msec
