 vasp.6.4.2 20Jul23 (build Sep 06 2024 14:39:43) complex                        
  
 executed on             LinuxIFC date 2025.09.14  16:37:16
 running   90 mpi-ranks, on    6 nodes
 distrk:  each k-point on   90 cores,    1 groups
 distr:  one band on NCORE=  15 cores,    6 groups


--------------------------------------------------------------------------------------------------------


 INCAR:
   SYSTEM = 001
   ISTART = 1
   ICHARG = 2
   INIWAV = 1
   NELM = 100
   ALGO = fast   	
   ISPIN = 2
   EDIFF = 1E-05
   ISMEAR = 0
   SIGMA = 0.05
   PREC = accurate
   ENCUT = 500
   LREAL = auto  	
   LWAVE = .TRUE.
   LCHARG = .FALSE.
   LAECHG = .FALSE.
   LVHAR = .FALSE.
   LVTOT = .FALSE.
   EDIFFG = -0.02
   IBRION = 2
   NSW = 500
   ISIF = 2
   POTIM = 0.5
   IVDW = 11
   LPLANE = .TRUE.
   NCORE = 15
   LSCALU = .FALSE.
   NSIM = 4
   LSOL = .TRUE.
   EB_K = 35.6880
   LAMBDA_D_K = 3.04
   NELECT = 47

 POTCAR:    PAW_PBE C 08Apr2002                   
 POTCAR:    PAW_PBE H 15Jun2001                   
 -----------------------------------------------------------------------------
|                                                                             |
|           W    W    AA    RRRRR   N    N  II  N    N   GGGG   !!!           |
|           W    W   A  A   R    R  NN   N  II  NN   N  G    G  !!!           |
|           W    W  A    A  R    R  N N  N  II  N N  N  G       !!!           |
|           W WW W  AAAAAA  RRRRR   N  N N  II  N  N N  G  GGG   !            |
|           WW  WW  A    A  R   R   N   NN  II  N   NN  G    G                |
|           W    W  A    A  R    R  N    N  II  N    N   GGGG   !!!           |
|                                                                             |
|     You use a magnetic or noncollinear calculation, but did not specify     |
|     the initial magnetic moment with the MAGMOM tag. Note that a            |
|     default of 1 will be used for all atoms. This ferromagnetic setup       |
|     may break the symmetry of the crystal, in particular it may rule        |
|     out finding an antiferromagnetic solution. Thence, we recommend         |
|     setting the initial magnetic moment manually or verifying carefully     |
|     that this magnetic setup is desired.                                    |
|                                                                             |
 -----------------------------------------------------------------------------

 POTCAR:    PAW_PBE C 08Apr2002                   
   SHA256 =  253f7b50bb8d59471dbedb8285d89021f4a42ed1a2c5d38a03a736e69125dd95 C/POTCAR              
   COPYR  = (c) Copyright 08Apr2002 Georg Kresse                                                    
   COPYR  = This file is part of the software VASP. Any use, copying, and all other rights are regul
   COPYR  = If you do not have a valid VASP license, you may not use, copy or distribute this file. 
   VRHFIN =C: s2p2                                                                                  
   LEXCH  = PE                                                                                      
   EATOM  =   147.1560 eV,   10.8157 Ry                                                             
                                                                                                    
   TITEL  = PAW_PBE C 08Apr2002                                                                     
   LULTRA =        F    use ultrasoft PP ?                                                          
   IUNSCR =        1    unscreen: 0-lin 1-nonlin 2-no                                               
   RPACOR =    1.200    partial core radius                                                         
   POMASS =   12.011; ZVAL   =    4.000    mass and valenz                                          
   RCORE  =    1.500    outmost cutoff radius                                                       
   RWIGS  =    1.630; RWIGS  =    0.863    wigner-seitz radius (au A)                               
   ENMAX  =  400.000; ENMIN  =  300.000 eV                                                          
   ICORE  =        2    local potential                                                             
   LCOR   =        T    correct aug charges                                                         
   LPAW   =        T    paw PP                                                                      
   EAUG   =  644.873                                                                                
   DEXC   =    0.000                                                                                
   RMAX   =    1.529    core radius for proj-oper                                                   
   RAUG   =    1.300    factor for augmentation sphere                                              
   RDEP   =    1.501    radius for radial grids                                                     
   RDEPT  =    1.300    core radius for aug-charge                                                  
                                                                                                    
   Atomic configuration                                                                             
    4 entries                                                                                       
     n  l   j            E        occ.                                                              
     1  0  0.50      -273.3789   2.0000                                                             
     2  0  0.50       -13.7508   2.0000                                                             
     2  1  0.50        -5.2854   2.0000                                                             
     3  2  1.50        -5.4423   0.0000                                                             
   Description                                                                                      
     l       E           TYP  RCUT    TYP  RCUT                                                     
     0    -13.7508458     23  1.200                                                                 
     0     -8.2022199     23  1.200                                                                 
     1     -5.2854383     23  1.500                                                                 
     1     34.0145650     23  1.500                                                                 
     2     -5.4423304      7  1.500                                                                 
  local pseudopotential read in
  partial core-charges read in
  partial kinetic energy density read in
  atomic valenz-charges read in
  non local Contribution for L=           0  read in
    real space projection operators read in
  non local Contribution for L=           0  read in
    real space projection operators read in
  non local Contribution for L=           1  read in
    real space projection operators read in
  non local Contribution for L=           1  read in
    real space projection operators read in
    PAW grid and wavefunctions read in
 
   number of l-projection  operators is LMAX  =           4
   number of lm-projection operators is LMMAX =           8
 
 POTCAR:    PAW_PBE H 15Jun2001                   
   SHA256 =  030f79b5d3ab3cf0e668861823c8fb652ff669f3e15e46930bd03bfd63a607b6 H/POTCAR              
   COPYR  = (c) Copyright 15Jun2001 Georg Kresse                                                    
   COPYR  = This file is part of the software VASP. Any use, copying, and all other rights are regul
   COPYR  = If you do not have a valid VASP license, you may not use, copy or distribute this file. 
   VRHFIN =H: ultrasoft test                                                                        
   LEXCH  = PE                                                                                      
   EATOM  =    12.4884 eV,    0.9179 Ry                                                             
                                                                                                    
   TITEL  = PAW_PBE H 15Jun2001                                                                     
   LULTRA =        F    use ultrasoft PP ?                                                          
   IUNSCR =        0    unscreen: 0-lin 1-nonlin 2-no                                               
   RPACOR =    0.000    partial core radius                                                         
   POMASS =    1.000; ZVAL   =    1.000    mass and valenz                                          
   RCORE  =    1.100    outmost cutoff radius                                                       
   RWIGS  =    0.700; RWIGS  =    0.370    wigner-seitz radius (au A)                               
   ENMAX  =  250.000; ENMIN  =  200.000 eV                                                          
   RCLOC  =    0.701    cutoff for local pot                                                        
   LCOR   =        T    correct aug charges                                                         
   LPAW   =        T    paw PP                                                                      
   EAUG   =  400.000                                                                                
   RMAX   =    1.123    core radius for proj-oper                                                   
   RAUG   =    1.200    factor for augmentation sphere                                              
   RDEP   =    1.112    radius for radial grids                                                     
   RDEPT  =    0.926    core radius for aug-charge                                                  
                                                                                                    
   Atomic configuration                                                                             
    2 entries                                                                                       
     n  l   j            E        occ.                                                              
     1  0  0.50        -6.4927   1.0000                                                             
     2  1  0.50        -3.4015   0.0000                                                             
   Description                                                                                      
     l       E           TYP  RCUT    TYP  RCUT                                                     
     0     -6.4927494     23  1.100                                                                 
     0      6.8029130     23  1.100                                                                 
     1     -4.0817478     23  1.100                                                                 
  local pseudopotential read in
  atomic valenz-charges read in
  non local Contribution for L=           0  read in
    real space projection operators read in
  non local Contribution for L=           0  read in
    real space projection operators read in
  non local Contribution for L=           1  read in
    real space projection operators read in
    PAW grid and wavefunctions read in
 
   number of l-projection  operators is LMAX  =           3
   number of lm-projection operators is LMMAX =           5
 
 Optimization of the real space projectors (new method)

 maximal supplied QI-value         = 25.13
 optimisation between [QCUT,QGAM] = [ 11.31, 22.87] = [ 35.82,146.48] Ry 
 Optimized for a Real-space Cutoff    1.03 Angstroem

   l    n(q)    QCUT    max X(q) W(low)/X(q) W(high)/X(q)  e(spline) 
   0      7    11.310   115.676    0.20E-03    0.90E-03    0.20E-06
   0      7    11.310    87.132    0.20E-03    0.89E-03    0.19E-06
   1      6    11.310     4.429    0.16E-03    0.28E-03    0.12E-06
   1      6    11.310     2.733    0.12E-03    0.21E-03    0.99E-07
 Optimization of the real space projectors (new method)

 maximal supplied QI-value         = 34.20
 optimisation between [QCUT,QGAM] = [ 11.29, 22.57] = [ 35.68,142.71] Ry 
 Optimized for a Real-space Cutoff    1.20 Angstroem

   l    n(q)    QCUT    max X(q) W(low)/X(q) W(high)/X(q)  e(spline) 
   0      8    11.287    19.460    0.22E-03    0.50E-03    0.19E-06
   0      8    11.287    12.209    0.21E-03    0.48E-03    0.18E-06
   1      8    11.287     4.655    0.21E-03    0.11E-04    0.26E-06
  PAW_PBE C 08Apr2002                   :
 energy of atom  1       EATOM= -147.1560
 kinetic energy error for atom=    0.0076 (will be added to EATOM!!)
  PAW_PBE H 15Jun2001                   :
 energy of atom  2       EATOM=  -12.4884
 kinetic energy error for atom=    0.0020 (will be added to EATOM!!)
 
 
 POSCAR: C H
  positions in direct lattice
  velocities in cartesian coordinates
 exchange correlation table for  LEXCH =        8
   RHO(1)=    0.500       N(1)  =     2000
   RHO(2)=  100.500       N(2)  =     4000
 


--------------------------------------------------------------------------------------------------------


 ion  position               nearest neighbor table
   1  0.561  0.483  0.500-  18 1.09   2 1.39  10 1.41
   2  0.561  0.517  0.500-  17 1.09   1 1.39   3 1.41
   3  0.531  0.535  0.500-  16 1.09   2 1.41   4 1.41
   4  0.500  0.518  0.500-   5 1.41   3 1.41   9 1.46
   5  0.469  0.535  0.500-  15 1.09   6 1.41   4 1.41
   6  0.439  0.517  0.500-  14 1.09   7 1.39   5 1.41
   7  0.439  0.483  0.500-  13 1.09   6 1.39   8 1.41
   8  0.469  0.465  0.500-  12 1.09   7 1.41   9 1.41
   9  0.500  0.482  0.500-  10 1.41   8 1.41   4 1.46
  10  0.531  0.465  0.500-  11 1.09   1 1.41   9 1.41
  11  0.531  0.438  0.500-  10 1.09
  12  0.469  0.438  0.500-   8 1.09
  13  0.415  0.469  0.500-   7 1.09
  14  0.415  0.531  0.500-   6 1.09
  15  0.469  0.562  0.500-   5 1.09
  16  0.531  0.562  0.500-   3 1.09
  17  0.585  0.531  0.500-   2 1.09
  18  0.585  0.469  0.500-   1 1.09
 
  LATTYP: Found a simple cubic cell.
 ALAT       =    40.0000000000
  
  Lattice vectors:
  
 A1 = (  40.0000000000,   0.0000000000,   0.0000000000)
 A2 = (   0.0000000000,  40.0000000000,   0.0000000000)
 A3 = (   0.0000000000,   0.0000000000,  40.0000000000)


Analysis of symmetry for initial positions (statically):
=====================================================================
 Subroutine PRICEL returns:
 Original cell was already a primitive cell.
 

 Routine SETGRP: Setting up the symmetry group for a 
 simple cubic supercell.


 Subroutine GETGRP returns: Found  8 space group operations
 (whereof  8 operations were pure point group operations)
 out of a pool of 48 trial point group operations.


The static configuration has the point symmetry D_2h.


Analysis of symmetry for dynamics (positions and initial velocities):
=====================================================================
 Subroutine PRICEL returns:
 Original cell was already a primitive cell.
 

 Routine SETGRP: Setting up the symmetry group for a 
 simple cubic supercell.


 Subroutine GETGRP returns: Found  8 space group operations
 (whereof  8 operations were pure point group operations)
 out of a pool of 48 trial point group operations.


The dynamic configuration has the point symmetry D_2h.


Analysis of constrained symmetry for selective dynamics:
=====================================================================
 Subroutine PRICEL returns:
 Original cell was already a primitive cell.
 

 Routine SETGRP: Setting up the symmetry group for a 
 simple cubic supercell.


 Subroutine GETGRP returns: Found  8 space group operations
 (whereof  8 operations were pure point group operations)
 out of a pool of 48 trial point group operations.


The constrained configuration has the point symmetry D_2h.


Analysis of structural, dynamic, and magnetic symmetry:
=====================================================================
 Subroutine PRICEL returns:
 Original cell was already a primitive cell.
 

 Routine SETGRP: Setting up the symmetry group for a 
 simple cubic supercell.


 Subroutine GETGRP returns: Found  8 space group operations
 (whereof  8 operations were pure point group operations)
 out of a pool of 48 trial point group operations.


The overall configuration has the point symmetry D_2h.


 Subroutine INISYM returns: Found  8 space group operations
 (whereof  8 operations are pure point group operations),
 and found     1 'primitive' translations


----------------------------------------------------------------------------------------

                                     Primitive cell                                     

  volume of cell :   64000.0000

  direct lattice vectors                    reciprocal lattice vectors
    40.000000000  0.000000000  0.000000000     0.025000000  0.000000000  0.000000000
     0.000000000 40.000000000  0.000000000     0.000000000  0.025000000  0.000000000
     0.000000000  0.000000000 40.000000000     0.000000000  0.000000000  0.025000000

  length of vectors
    40.000000000 40.000000000 40.000000000     0.025000000  0.025000000  0.025000000

  position of ions in fractional coordinates (direct lattice)
     0.561275736  0.482583506  0.500000000
     0.561275736  0.517414494  0.500000000
     0.530903962  0.535175710  0.500000000
     0.500000000  0.518197367  0.500000000
     0.469097038  0.535176710  0.500000000
     0.438724264  0.517416494  0.500000000
     0.438724264  0.482585506  0.500000000
     0.469096038  0.464824290  0.500000000
     0.500000000  0.481802633  0.500000000
     0.530902962  0.464823290  0.500000000
     0.530976407  0.437623593  0.500000000
     0.469021593  0.437624593  0.500000000
     0.415204842  0.468878805  0.500000000
     0.415205842  0.531124195  0.500000000
     0.469023593  0.562376407  0.500000000
     0.530978407  0.562375407  0.500000000
     0.584795158  0.531121195  0.500000000
     0.584794158  0.468876805  0.500000000

  ion indices of the primitive-cell ions
   primitive index   ion index
                 1           1
                 2           2
                 3           3
                 4           4
                 5           5
                 6           6
                 7           7
                 8           8
                 9           9
                10          10
                11          11
                12          12
                13          13
                14          14
                15          15
                16          16
                17          17
                18          18

----------------------------------------------------------------------------------------

 
 
 KPOINTS: K-Point Grid                            

Automatic generation of k-mesh.
 Grid dimensions read from file:
 generate k-points for:    1    1    1

 Generating k-lattice:

  Cartesian coordinates                     Fractional coordinates (reciprocal lattice)
     0.025000000  0.000000000  0.000000000     1.000000000  0.000000000  0.000000000
     0.000000000  0.025000000  0.000000000     0.000000000  1.000000000  0.000000000
     0.000000000  0.000000000  0.025000000     0.000000000  0.000000000  1.000000000

  Length of vectors
     0.025000000  0.025000000  0.025000000

  Shift w.r.t. Gamma in fractional coordinates (k-lattice)
     0.000000000  0.000000000  0.000000000

 
 Subroutine IBZKPT returns following result:
 ===========================================
 
 Found      1 irreducible k-points:
 
 Following reciprocal coordinates:
            Coordinates               Weight
  0.000000  0.000000  0.000000      1.000000
 
 Following cartesian coordinates:
            Coordinates               Weight
  0.000000  0.000000  0.000000      1.000000
 


--------------------------------------------------------------------------------------------------------




 Dimension of arrays:
   k-points           NKPTS =      1   k-points in BZ     NKDIM =      1   number of bands    NBANDS=     42
   number of dos      NEDOS =    301   number of ions     NIONS =     18
   non local maximal  LDIM  =      4   non local SUM 2l+1 LMDIM =      8
   total plane-waves  NPLWV = ******
   max r-space proj   IRMAX =   2915   max aug-charges    IRDMAX=   4885
   dimension x,y,z NGX =   294 NGY =  294 NGZ =  294
   dimension x,y,z NGXF=   588 NGYF=  588 NGZF=  588
   support grid    NGXF=   588 NGYF=  588 NGZF=  588
   ions per type =              10   8
   NGX,Y,Z   is equivalent  to a cutoff of  12.22, 12.22, 12.22 a.u.
   NGXF,Y,Z  is equivalent  to a cutoff of  24.44, 24.44, 24.44 a.u.

 SYSTEM =  001                                     
 POSCAR =  C H                                     

 Startparameter for this run:
   NWRITE =      2    write-flag & timer
   PREC   = accura    normal or accurate (medium, high low for compatibility)
   ISTART =      1    job   : 0-new  1-cont  2-samecut
   ICHARG =      2    charge: 1-file 2-atom 10-const
   ISPIN  =      2    spin polarized calculation?
   LNONCOLLINEAR =      F non collinear calculations
   LSORBIT =      F    spin-orbit coupling
   INIWAV =      1    electr: 0-lowe 1-rand  2-diag
   LASPH  =      F    aspherical Exc in radial PAW
 Electronic Relaxation 1
   ENCUT  =  500.0 eV  36.75 Ry    6.06 a.u.  72.93 72.93 72.93*2*pi/ulx,y,z
   ENINI  =  500.0     initial cutoff
   ENAUG  =  644.9 eV  augmentation charge cutoff
   NELM   =    100;   NELMIN=  2; NELMDL=  0     # of ELM steps 
   EDIFF  = 0.1E-04   stopping-criterion for ELM
   LREAL  =      T    real-space projection
   NLSPLINE    = F    spline interpolate recip. space projectors
   LCOMPAT=      F    compatible to vasp.4.4
   GGA_COMPAT  = T    GGA compatible to vasp.4.4-vasp.4.6
   LMAXPAW     = -100 max onsite density
   LMAXMIX     =    2 max onsite mixed and CHGCAR
   VOSKOWN=      0    Vosko Wilk Nusair interpolation
   ROPT   =   -0.00025  -0.00025
 Ionic relaxation
   EDIFFG = -.2E-01   stopping-criterion for IOM
   NSW    =    500    number of steps for IOM
   NBLOCK =      1;   KBLOCK =    500    inner block; outer block 
   IBRION =      2    ionic relax: 0-MD 1-quasi-New 2-CG
   NFREE  =      1    steps in history (QN), initial steepest desc. (CG)
   ISIF   =      2    stress and relaxation
   IWAVPR =     11    prediction:  0-non 1-charg 2-wave 3-comb
   ISYM   =      2    0-nonsym 1-usesym 2-fastsym
   LCORR  =      T    Harris-Foulkes like correction to forces

   POTIM  = 0.5000    time-step for ionic-motion
   TEIN   =    0.0    initial temperature
   TEBEG  =    0.0;   TEEND  =   0.0 temperature during run
   SMASS  =  -3.00    Nose mass-parameter (am)
   estimated Nose-frequenzy (Omega)   =  0.10E-29 period in steps = 0.13E+47 mass=  -0.366E-25a.u.
   SCALEE = 1.0000    scale energy and forces
   NPACO  =    256;   APACO  = 10.0  distance and # of slots for P.C.
   PSTRESS=    0.0 pullay stress

  Mass of Ions in am
   POMASS =  12.01  1.00
  Ionic Valenz
   ZVAL   =   4.00  1.00
  Atomic Wigner-Seitz radii
   RWIGS  =  -1.00 -1.00
  virtual crystal weights 
   VCA    =   1.00  1.00
   NELECT =      47.0000    total number of electrons
   NUPDOWN=      -1.0000    fix difference up-down

 DOS related values:
   EMIN   =  10.00;   EMAX   =-10.00  energy-range for DOS
   EFERMI =   0.00;   METHOD = LEGACY      
   ISMEAR =     0;   SIGMA  =   0.05  broadening in eV -4-tet -1-fermi 0-gaus

 Electronic relaxation 2 (details)
   IALGO  =     68    algorithm
   LDIAG  =      T    sub-space diagonalisation (order eigenvalues)
   LSUBROT=      F    optimize rotation matrix (better conditioning)
   TURBO    =      0    0=normal 1=particle mesh
   IRESTART =      0    0=no restart 2=restart with 2 vectors
   NREBOOT  =      0    no. of reboots
   NMIN     =      0    reboot dimension
   EREF     =   0.00    reference energy to select bands
   IMIX   =      4    mixing-type and parameters
     AMIX     =   0.40;   BMIX     =  1.00
     AMIX_MAG =   1.60;   BMIX_MAG =  1.00
     AMIN     =   0.10
     WC   =   100.;   INIMIX=   1;  MIXPRE=   1;  MAXMIX= -45

 Intra band minimization:
   WEIMIN = 0.0010     energy-eigenvalue tresh-hold
   EBREAK =  0.60E-07  absolut break condition
   DEPER  =   0.30     relativ break condition  

   TIME   =   0.40     timestep for ELM

  volume/ion in A,a.u.               =    3555.56     23994.07
  Fermi-wavevector in a.u.,A,eV,Ry     =   0.147700  0.279113  0.296815  0.021815
  Thomas-Fermi vector in A             =   0.819491
 
 Write flags
   LWAVE        =      T    write WAVECAR
   LDOWNSAMPLE  =      F    k-point downsampling of WAVECAR
   LCHARG       =      F    write CHGCAR
   LVTOT        =      F    write LOCPOT, total local potential
   LVHAR        =      F    write LOCPOT, Hartree potential only
   LELF         =      F    write electronic localiz. function (ELF)
   LORBIT       =      0    0 simple, 1 ext, 2 COOP (PROOUT), +10 PAW based schemes


 Dipole corrections
   LMONO  =      F    monopole corrections only (constant potential shift)
   LDIPOL =      F    correct potential (dipole corrections)
   IDIPOL =      0    1-x, 2-y, 3-z, 4-all directions 
   EPSILON=  1.0000000 bulk dielectric constant

 Exchange correlation treatment:
   GGA     =    --    GGA type
   LEXCH   =     8    internal setting for exchange type
   LIBXC   =     F    Libxc                    
   VOSKOWN =     0    Vosko Wilk Nusair interpolation
   LHFCALC =     F    Hartree Fock is set to
   LHFONE  =     F    Hartree Fock one center treatment
   AEXX    =    0.0000 exact exchange contribution

 Linear response parameters
   LEPSILON=     F    determine dielectric tensor
   LRPA    =     F    only Hartree local field effects (RPA)
   LNABLA  =     F    use nabla operator in PAW spheres
   LVEL    =     F    velocity operator in full k-point grid
   CSHIFT  =0.1000    complex shift for real part using Kramers Kronig
   OMEGAMAX=  -1.0    maximum frequency
   DEG_THRESHOLD= 0.2000000E-02 threshold for treating states as degnerate
   RTIME   =   -0.100 relaxation time in fs
  (WPLASMAI=    0.000 imaginary part of plasma frequency in eV, 0.658/RTIME)
   DFIELD  = 0.0000000 0.0000000 0.0000000 field for delta impulse in time
 
  Optional k-point grid parameters
   LKPOINTS_OPT  =     F    use optional k-point grid
   KPOINTS_OPT_MODE=     1    mode for optional k-point grid
 
 Orbital magnetization related:
   ORBITALMAG=     F  switch on orbital magnetization
   LCHIMAG   =     F  perturbation theory with respect to B field
   DQ        =  0.001000  dq finite difference perturbation B field
   LLRAUG    =     F  two centre corrections for induced B field
   LBONE     =     F  B-component reconstruction in AE one-centre
   LVGVCALC  =     T  calculate vGv susceptibility
   LVGVAPPL  =     F  apply vGv susceptibility instead of pGv for G=0

 Random number generation:
   RANDOM_GENERATOR = DEFAULT
   PCG_SEED         = not used
 Solvation model:
   LSOL    =     T         switch on solvation model
   EB_K    = 35.688000     relative permittivity of the bulk solvent
   SIGMA_K =  0.600000     width of the dielectric cavity
   NC_K    =  0.002500     cutoff charge density
   TAU     =  0.000525     cavity surface tension
   LAMBDA_D_K    =  3.040000     Debye length in Angstroms
   LRHOB     =     F     write boundcharge  density
   LRHOION     =     F     write ioniccharge density



--------------------------------------------------------------------------------------------------------


 conjugate gradient relaxation of ions
   using selective dynamics as specified on POSCAR
 charge density and potential will be updated during run
 spin polarized calculation
 RMM-DIIS sequential band-by-band and
  variant of blocked Davidson during initial phase
 perform sub-space diagonalisation
    before iterative eigenvector-optimisation
 modified Broyden-mixing scheme, WC =      100.0
 initial mixing is a Kerker type mixing with AMIX =  0.4000 and BMIX =      1.0000
 Hartree-type preconditioning will be used
 using additional bands           18
 real space projection scheme for non local part
 use partial core corrections
 calculate Harris-corrections to forces 
   (improved forces if not selfconsistent)
 use gradient corrections 
 use of overlap-Matrix (Vanderbilt PP)
 Gauss-broadening in eV      SIGMA  =   0.05


--------------------------------------------------------------------------------------------------------


  energy-cutoff  :      500.00
  volume of cell :    64000.00
      direct lattice vectors                 reciprocal lattice vectors
    40.000000000  0.000000000  0.000000000     0.025000000  0.000000000  0.000000000
     0.000000000 40.000000000  0.000000000     0.000000000  0.025000000  0.000000000
     0.000000000  0.000000000 40.000000000     0.000000000  0.000000000  0.025000000

  length of vectors
    40.000000000 40.000000000 40.000000000     0.025000000  0.025000000  0.025000000


 
 old parameters found on file WAVECAR:
  energy-cutoff  :      500.00
  volume of cell :    64000.00
      direct lattice vectors                 reciprocal lattice vectors
    40.000000000  0.000000000  0.000000000     0.025000000  0.000000000  0.000000000
     0.000000000 40.000000000  0.000000000     0.000000000  0.025000000  0.000000000
     0.000000000  0.000000000 40.000000000     0.000000000  0.000000000  0.025000000

  length of vectors

 
 k-points in units of 2pi/SCALE and weight: K-Point Grid                            
   0.00000000  0.00000000  0.00000000       1.000
 
 k-points in reciprocal lattice and weights: K-Point Grid                            
   0.00000000  0.00000000  0.00000000       1.000
 
 position of ions in fractional coordinates (direct lattice) 
   0.56127574  0.48258351  0.50000000
   0.56127574  0.51741449  0.50000000
   0.53090396  0.53517571  0.50000000
   0.50000000  0.51819737  0.50000000
   0.46909704  0.53517671  0.50000000
   0.43872426  0.51741649  0.50000000
   0.43872426  0.48258551  0.50000000
   0.46909604  0.46482429  0.50000000
   0.50000000  0.48180263  0.50000000
   0.53090296  0.46482329  0.50000000
   0.53097641  0.43762359  0.50000000
   0.46902159  0.43762459  0.50000000
   0.41520484  0.46887881  0.50000000
   0.41520584  0.53112419  0.50000000
   0.46902359  0.56237641  0.50000000
   0.53097841  0.56237541  0.50000000
   0.58479516  0.53112119  0.50000000
   0.58479416  0.46887681  0.50000000
 
 position of ions in cartesian coordinates  (Angst):
  22.45102943 19.30334024 20.00000000
  22.45102943 20.69657976 20.00000000
  21.23615848 21.40702839 20.00000000
  20.00000000 20.72789469 20.00000000
  18.76388152 21.40706839 20.00000000
  17.54897057 20.69665976 20.00000000
  17.54897057 19.30342024 20.00000000
  18.76384152 18.59297161 20.00000000
  20.00000000 19.27210531 20.00000000
  21.23611848 18.59293161 20.00000000
  21.23905627 17.50494373 20.00000000
  18.76086373 17.50498373 20.00000000
  16.60819368 18.75515220 20.00000000
  16.60823368 21.24496780 20.00000000
  18.76094373 22.49505627 20.00000000
  21.23913627 22.49501627 20.00000000
  23.39180632 21.24484780 20.00000000
  23.39176632 18.75507220 20.00000000
 


--------------------------------------------------------------------------------------------------------


 k-point   1 :   0.0000 0.0000 0.0000  plane waves: 1624525

 maximum and minimum number of plane-waves per node :    108307   108296

 maximum number of plane-waves:   1624525
 maximum index in each direction: 
   IXMAX=   72   IYMAX=   72   IZMAX=   72
   IXMIN=  -72   IYMIN=  -72   IZMIN=  -72


 real space projection operators:
  total allocation   :       1991.12 KBytes
  max/ min on nodes  :        145.06        120.78


 parallel 3D FFT for wavefunctions:
    minimum data exchange during FFTs selected (reduces bandwidth)
 parallel 3D FFT for charge:
    minimum data exchange during FFTs selected (reduces bandwidth)


 total amount of memory used by VASP MPI-rank0   519378. kBytes
=======================================================================

   base      :      30000. kBytes
   nonlr-proj:       1043. kBytes
   fftplans  :     131430. kBytes
   grid      :     332629. kBytes
   one-center:         12. kBytes
   wavefun   :      24264. kBytes
 
     INWAV:  cpu time     11.4836: real time     11.4974
 Broyden mixing: mesh for mixing (old mesh)
   NGX =145   NGY =145   NGZ =145
  (NGX  =588   NGY  =588   NGZ  =588)
  gives a total of ****** points

 initial charge density was supplied:
 charge density of overlapping atoms calculated
 number of electron      48.0000000 magnetization      18.0000000
 keeping initial charge density in first step


--------------------------------------------------------------------------------------------------------


 Maximum index for non-local projection operator          225
 Maximum index for augmentation-charges          229 (set IRDMAX)


--------------------------------------------------------------------------------------------------------


 First call to EWALD:  gamma=   0.044
 Maximum number of real-space cells 3x 3x 3
 Maximum number of reciprocal cells 3x 3x 3

    FEWALD:  cpu time      0.5923: real time      0.5924


--------------------------------------- Ionic step        1  -------------------------------------------




--------------------------------------- Iteration      1(   1)  ---------------------------------------


    POTLOK:  cpu time    415.9706: real time    416.0441
    SETDIJ:  cpu time      0.0325: real time      0.0324
     EDDAV:  cpu time     36.7551: real time     36.7561
       DOS:  cpu time      0.0027: real time      0.0027
    CHARGE:  cpu time      8.8460: real time      8.8471
    MIXING:  cpu time      0.0904: real time      0.0905
    --------------------------------------------
      LOOP:  cpu time    461.6973: real time    461.7730

 eigenvalue-minimisations  :   228
 total energy-change (2. order) :-0.1042733E+03  (-0.7091215E+01)
 number of electron      47.0000004 magnetization      17.3450277
 augmentation part        1.1782527 magnetization      16.4335378

 Broyden mixing:
  rms(total) = 0.26440E+01    rms(broyden)= 0.26437E+01
  rms(prec ) = 0.26682E+01
  weight for this iteration     100.00

 Free energy of the ion-electron system (eV)
  ---------------------------------------------------
  alpha Z        PSCENC =         0.16864210
  Ewald energy   TEWEN  =      4945.13159274
  -Hartree energ DENC   =     -5957.79569485
  -exchange      EXHF   =         0.00000000
  -V(xc)+E(xc)   XCENC  =       152.31650498
  PAW double counting   =      1098.29261783    -1103.96511033
  entropy T*S    EENTRO =        -0.00000000
  eigenvalues    EBANDS =      -801.43463956
  atomic energy  EATOM  =      1571.37565575
  Solvation  Ediel_sol  =        -8.36289153
  ---------------------------------------------------
  free energy    TOTEN  =      -104.27332286 eV

  energy without entropy =     -104.27332286  energy(sigma->0) =     -104.27332286


--------------------------------------------------------------------------------------------------------




--------------------------------------- Iteration      1(   2)  ---------------------------------------


    POTLOK:  cpu time    422.6144: real time    422.6458
    SETDIJ:  cpu time      0.0304: real time      0.0303
    EDDIAG:  cpu time      4.6152: real time      4.6153
  RMM-DIIS:  cpu time      7.3199: real time      7.3202
    ORTHCH:  cpu time      1.1223: real time      1.1224
       DOS:  cpu time      0.1617: real time      0.1617
    CHARGE:  cpu time      9.3137: real time      9.3139
    MIXING:  cpu time      0.1076: real time      0.1076
    --------------------------------------------
      LOOP:  cpu time    445.2852: real time    445.3173

 eigenvalue-minimisations  :   168
 total energy-change (2. order) : 0.4722770E+02  (-0.8385250E+01)
 number of electron      47.0000003 magnetization      16.6286526
 augmentation part        1.1741942 magnetization      15.6556839

 Broyden mixing:
  rms(total) = 0.13035E+01    rms(broyden)= 0.13035E+01
  rms(prec ) = 0.13238E+01
  weight for this iteration     100.00

 eigenvalues of (default mixing * dielectric matrix)
  average eigenvalue GAMMA=   0.9468
  0.9468

 Free energy of the ion-electron system (eV)
  ---------------------------------------------------
  alpha Z        PSCENC =         0.16864210
  Ewald energy   TEWEN  =      4945.13159274
  -Hartree energ DENC   =     -6025.87043997
  -exchange      EXHF   =         0.00000000
  -V(xc)+E(xc)   XCENC  =       197.10353731
  PAW double counting   =      2042.66359068    -2049.27366290
  entropy T*S    EENTRO =        -0.00000000
  eigenvalues    EBANDS =      -708.84699830
  atomic energy  EATOM  =      1571.37565575
  Solvation  Ediel_sol  =       -29.49753635
  ---------------------------------------------------
  free energy    TOTEN  =       -57.04561893 eV

  energy without entropy =      -57.04561893  energy(sigma->0) =      -57.04561893


--------------------------------------------------------------------------------------------------------




--------------------------------------- Iteration      1(   3)  ---------------------------------------


    POTLOK:  cpu time    407.5798: real time    407.6134
    SETDIJ:  cpu time      0.0292: real time      0.0292
    EDDIAG:  cpu time      4.5488: real time      4.5489
  RMM-DIIS:  cpu time      7.4974: real time      7.4975
    ORTHCH:  cpu time      0.9729: real time      0.9729
       DOS:  cpu time      0.0031: real time      0.0031
    CHARGE:  cpu time      8.5593: real time      8.5595
    MIXING:  cpu time      0.1082: real time      0.1082
    --------------------------------------------
      LOOP:  cpu time    429.2985: real time    429.3327

 eigenvalue-minimisations  :   168
 total energy-change (2. order) :-0.3029329E+02  (-0.3156310E+01)
 number of electron      47.0000003 magnetization      15.7234559
 augmentation part        1.1446484 magnetization      14.7243368

 Broyden mixing:
  rms(total) = 0.75749E+00    rms(broyden)= 0.75744E+00
  rms(prec ) = 0.76520E+00
  weight for this iteration     100.00

 eigenvalues of (default mixing * dielectric matrix)
  average eigenvalue GAMMA=   1.1712
  0.7789  1.5636

 Free energy of the ion-electron system (eV)
  ---------------------------------------------------
  alpha Z        PSCENC =         0.16864210
  Ewald energy   TEWEN  =      4945.13159274
  -Hartree energ DENC   =     -6078.82942387
  -exchange      EXHF   =         0.00000000
  -V(xc)+E(xc)   XCENC  =       175.32858198
  PAW double counting   =      2894.73607803    -2901.88837745
  entropy T*S    EENTRO =        -0.00000000
  eigenvalues    EBANDS =      -641.74402455
  atomic energy  EATOM  =      1571.37565575
  Solvation  Ediel_sol  =       -51.61762916
  ---------------------------------------------------
  free energy    TOTEN  =       -87.33890444 eV

  energy without entropy =      -87.33890444  energy(sigma->0) =      -87.33890444


--------------------------------------------------------------------------------------------------------




--------------------------------------- Iteration      1(   4)  ---------------------------------------


    POTLOK:  cpu time    424.3001: real time    424.3240
    SETDIJ:  cpu time      0.0299: real time      0.0299
    EDDIAG:  cpu time      4.3162: real time      4.3164
  RMM-DIIS:  cpu time      7.1286: real time      7.1289
    ORTHCH:  cpu time      1.1654: real time      1.1655
       DOS:  cpu time      0.0126: real time      0.0126
    CHARGE:  cpu time      8.5514: real time      8.5516
    MIXING:  cpu time      0.1136: real time      0.1136
    --------------------------------------------
      LOOP:  cpu time    445.6178: real time    445.6424

 eigenvalue-minimisations  :   168
 total energy-change (2. order) :-0.9429514E+01  (-0.1398462E+01)
 number of electron      47.0000002 magnetization      15.0261066
 augmentation part        1.1148018 magnetization      14.0292304

 Broyden mixing:
  rms(total) = 0.48375E+00    rms(broyden)= 0.48369E+00
  rms(prec ) = 0.48837E+00
  weight for this iteration     100.00

 eigenvalues of (default mixing * dielectric matrix)
  average eigenvalue GAMMA=   1.1633
  1.7808  1.0274  0.6817

 Free energy of the ion-electron system (eV)
  ---------------------------------------------------
  alpha Z        PSCENC =         0.16864210
  Ewald energy   TEWEN  =      4945.13159274
  -Hartree energ DENC   =     -6106.74178680
  -exchange      EXHF   =         0.00000000
  -V(xc)+E(xc)   XCENC  =       170.36800154
  PAW double counting   =      3688.93234349    -3696.30388139
  entropy T*S    EENTRO =        -0.00000000
  eigenvalues    EBANDS =      -594.19413666
  atomic energy  EATOM  =      1571.37565575
  Solvation  Ediel_sol  =       -75.50484873
  ---------------------------------------------------
  free energy    TOTEN  =       -96.76841797 eV

  energy without entropy =      -96.76841797  energy(sigma->0) =      -96.76841797


--------------------------------------------------------------------------------------------------------




--------------------------------------- Iteration      1(   5)  ---------------------------------------


    POTLOK:  cpu time    412.5569: real time    412.5829
    SETDIJ:  cpu time      0.0299: real time      0.0298
    EDDIAG:  cpu time      4.3345: real time      4.3347
  RMM-DIIS:  cpu time      7.5945: real time      7.5949
    ORTHCH:  cpu time      0.9366: real time      0.9366
       DOS:  cpu time      0.3420: real time      0.3420
    CHARGE:  cpu time      8.7273: real time      8.7309
    MIXING:  cpu time      0.1139: real time      0.1139
    --------------------------------------------
      LOOP:  cpu time    434.6356: real time    434.6658

 eigenvalue-minimisations  :   170
 total energy-change (2. order) :-0.4585426E+01  (-0.2972783E+00)
 number of electron      47.0000002 magnetization      13.7920055
 augmentation part        1.1040807 magnetization      12.8012979

 Broyden mixing:
  rms(total) = 0.32888E+00    rms(broyden)= 0.32886E+00
  rms(prec ) = 0.33283E+00
  weight for this iteration     100.00

 eigenvalues of (default mixing * dielectric matrix)
  average eigenvalue GAMMA=   1.3667
  2.1580  1.8073  0.8469  0.6545

 Free energy of the ion-electron system (eV)
  ---------------------------------------------------
  alpha Z        PSCENC =         0.16864210
  Ewald energy   TEWEN  =      4945.13159274
  -Hartree energ DENC   =     -6096.74176603
  -exchange      EXHF   =         0.00000000
  -V(xc)+E(xc)   XCENC  =       166.97096943
  PAW double counting   =      3928.32381177    -3935.57391635
  entropy T*S    EENTRO =        -0.00000000
  eigenvalues    EBANDS =      -594.43824409
  atomic energy  EATOM  =      1571.37565575
  Solvation  Ediel_sol  =       -86.57058917
  ---------------------------------------------------
  free energy    TOTEN  =      -101.35384385 eV

  energy without entropy =     -101.35384385  energy(sigma->0) =     -101.35384385


--------------------------------------------------------------------------------------------------------




--------------------------------------- Iteration      1(   6)  ---------------------------------------


    POTLOK:  cpu time    407.0463: real time    407.0710
    SETDIJ:  cpu time      0.0314: real time      0.0314
    EDDIAG:  cpu time      4.1097: real time      4.1099
  RMM-DIIS:  cpu time      7.5571: real time      7.5574
    ORTHCH:  cpu time      0.9589: real time      0.9589
       DOS:  cpu time      0.2050: real time      0.2051
    CHARGE:  cpu time      8.5633: real time      8.5635
    MIXING:  cpu time      0.1230: real time      0.1230
    --------------------------------------------
      LOOP:  cpu time    428.5948: real time    428.6203

 eigenvalue-minimisations  :   168
 total energy-change (2. order) :-0.7095126E+01  (-0.2976194E+00)
 number of electron      47.0000002 magnetization      13.2319408
 augmentation part        1.0993612 magnetization      12.2535912

 Broyden mixing:
  rms(total) = 0.18448E+00    rms(broyden)= 0.18447E+00
  rms(prec ) = 0.18724E+00
  weight for this iteration     100.00

 eigenvalues of (default mixing * dielectric matrix)
  average eigenvalue GAMMA=   1.3747
  2.5657  1.7944  1.0756  0.7923  0.6455

 Free energy of the ion-electron system (eV)
  ---------------------------------------------------
  alpha Z        PSCENC =         0.16864210
  Ewald energy   TEWEN  =      4945.13159274
  -Hartree energ DENC   =     -6075.57579086
  -exchange      EXHF   =         0.00000000
  -V(xc)+E(xc)   XCENC  =       161.12446174
  PAW double counting   =      4197.69166750    -4204.72849541
  entropy T*S    EENTRO =        -0.00000000
  eigenvalues    EBANDS =      -602.69664739
  atomic energy  EATOM  =      1571.37565575
  Solvation  Ediel_sol  =      -100.94005610
  ---------------------------------------------------
  free energy    TOTEN  =      -108.44896993 eV

  energy without entropy =     -108.44896993  energy(sigma->0) =     -108.44896993


--------------------------------------------------------------------------------------------------------




--------------------------------------- Iteration      1(   7)  ---------------------------------------


    POTLOK:  cpu time    385.0612: real time    385.0827
    SETDIJ:  cpu time      0.0339: real time      0.0339
    EDDIAG:  cpu time      4.8124: real time      4.8126
  RMM-DIIS:  cpu time      7.4124: real time      7.4127
    ORTHCH:  cpu time      0.9586: real time      0.9586
       DOS:  cpu time      0.2108: real time      0.2108
    CHARGE:  cpu time      8.4923: real time      8.4944
    MIXING:  cpu time      0.1267: real time      0.1267
    --------------------------------------------
      LOOP:  cpu time    407.1084: real time    407.1325

 eigenvalue-minimisations  :   169
 total energy-change (2. order) :-0.1070281E+01  (-0.6987505E-01)
 number of electron      47.0000002 magnetization      12.1871340
 augmentation part        1.0909082 magnetization      11.2181952

 Broyden mixing:
  rms(total) = 0.16149E+00    rms(broyden)= 0.16149E+00
  rms(prec ) = 0.16415E+00
  weight for this iteration     100.00

 eigenvalues of (default mixing * dielectric matrix)
  average eigenvalue GAMMA=   1.2721
  2.5045  2.0399  0.8831  0.8831  0.6609  0.6609

 Free energy of the ion-electron system (eV)
  ---------------------------------------------------
  alpha Z        PSCENC =         0.16864210
  Ewald energy   TEWEN  =      4945.13159274
  -Hartree energ DENC   =     -6070.63192016
  -exchange      EXHF   =         0.00000000
  -V(xc)+E(xc)   XCENC  =       160.29479567
  PAW double counting   =      4218.40851202    -4225.45597280
  entropy T*S    EENTRO =        -0.00000000
  eigenvalues    EBANDS =      -603.29604617
  atomic energy  EATOM  =      1571.37565575
  Solvation  Ediel_sol  =      -105.51451005
  ---------------------------------------------------
  free energy    TOTEN  =      -109.51925091 eV

  energy without entropy =     -109.51925091  energy(sigma->0) =     -109.51925091


--------------------------------------------------------------------------------------------------------




--------------------------------------- Iteration      1(   8)  ---------------------------------------


    POTLOK:  cpu time    397.9780: real time    398.0001
    SETDIJ:  cpu time      0.0329: real time      0.0329
    EDDIAG:  cpu time      4.2983: real time      4.2985
  RMM-DIIS:  cpu time      7.7017: real time      7.7021
    ORTHCH:  cpu time      1.1297: real time      1.1297
       DOS:  cpu time      0.2251: real time      0.2251
    CHARGE:  cpu time      8.8021: real time      8.8043
    MIXING:  cpu time      0.1411: real time      0.1411
    --------------------------------------------
      LOOP:  cpu time    420.3089: real time    420.3337

 eigenvalue-minimisations  :   169
 total energy-change (2. order) :-0.1335315E+01  (-0.4095426E-01)
 number of electron      47.0000002 magnetization      10.0842744
 augmentation part        1.0916651 magnetization       9.1215845

 Broyden mixing:
  rms(total) = 0.12313E+00    rms(broyden)= 0.12313E+00
  rms(prec ) = 0.12508E+00
  weight for this iteration     100.00

 eigenvalues of (default mixing * dielectric matrix)
  average eigenvalue GAMMA=   1.6382
  4.0202  2.6079  1.6626  1.0969  0.8123  0.6562  0.6114

 Free energy of the ion-electron system (eV)
  ---------------------------------------------------
  alpha Z        PSCENC =         0.16864210
  Ewald energy   TEWEN  =      4945.13159274
  -Hartree energ DENC   =     -6054.76665285
  -exchange      EXHF   =         0.00000000
  -V(xc)+E(xc)   XCENC  =       158.84072370
  PAW double counting   =      4140.84459058    -4147.85498907
  entropy T*S    EENTRO =        -0.00000000
  eigenvalues    EBANDS =      -612.70271484
  atomic energy  EATOM  =      1571.37565575
  Solvation  Ediel_sol  =      -111.89141362
  ---------------------------------------------------
  free energy    TOTEN  =      -110.85456551 eV

  energy without entropy =     -110.85456551  energy(sigma->0) =     -110.85456551


--------------------------------------------------------------------------------------------------------




--------------------------------------- Iteration      1(   9)  ---------------------------------------


    POTLOK:  cpu time    404.1126: real time    404.1386
    SETDIJ:  cpu time      0.0304: real time      0.0304
    EDDIAG:  cpu time      4.2638: real time      4.2640
  RMM-DIIS:  cpu time      7.8754: real time      7.8757
    ORTHCH:  cpu time      1.3893: real time      1.3893
       DOS:  cpu time      0.1668: real time      0.1668
    CHARGE:  cpu time      9.3122: real time      9.3124
    MIXING:  cpu time      0.1377: real time      0.1377
    --------------------------------------------
      LOOP:  cpu time    427.2881: real time    427.3149

 eigenvalue-minimisations  :   178
 total energy-change (2. order) :-0.1639867E+01  (-0.9791260E-01)
 number of electron      47.0000002 magnetization       9.4879767
 augmentation part        1.0872855 magnetization       8.5337827

 Broyden mixing:
  rms(total) = 0.79611E-01    rms(broyden)= 0.79603E-01
  rms(prec ) = 0.80565E-01
  weight for this iteration     100.00

 eigenvalues of (default mixing * dielectric matrix)
  average eigenvalue GAMMA=   1.7074
  5.3897  2.4172  1.8934  1.0211  0.7703  0.7703  0.7706  0.6264

 Free energy of the ion-electron system (eV)
  ---------------------------------------------------
  alpha Z        PSCENC =         0.16864210
  Ewald energy   TEWEN  =      4945.13159274
  -Hartree energ DENC   =     -6030.27488628
  -exchange      EXHF   =         0.00000000
  -V(xc)+E(xc)   XCENC  =       157.12941998
  PAW double counting   =      4071.95496469    -4078.95444946
  entropy T*S    EENTRO =        -0.00000000
  eigenvalues    EBANDS =      -623.17422289
  atomic energy  EATOM  =      1571.37565575
  Solvation  Ediel_sol  =      -125.85114876
  ---------------------------------------------------
  free energy    TOTEN  =      -112.49443214 eV

  energy without entropy =     -112.49443214  energy(sigma->0) =     -112.49443214


--------------------------------------------------------------------------------------------------------




--------------------------------------- Iteration      1(  10)  ---------------------------------------


    POTLOK:  cpu time    377.0437: real time    377.0719
    SETDIJ:  cpu time      0.0271: real time      0.0271
    EDDIAG:  cpu time      4.4655: real time      4.4656
  RMM-DIIS:  cpu time      7.5416: real time      7.5419
    ORTHCH:  cpu time      1.3670: real time      1.3670
       DOS:  cpu time      0.3327: real time      0.3327
    CHARGE:  cpu time      8.7374: real time      8.7376
    MIXING:  cpu time      0.1461: real time      0.1461
    --------------------------------------------
      LOOP:  cpu time    399.6611: real time    399.6900

 eigenvalue-minimisations  :   169
 total energy-change (2. order) :-0.4487631E+00  (-0.8287305E-02)
 number of electron      47.0000002 magnetization       8.7213601
 augmentation part        1.0869307 magnetization       7.7696183

 Broyden mixing:
  rms(total) = 0.54232E-01    rms(broyden)= 0.54230E-01
  rms(prec ) = 0.54981E-01
  weight for this iteration     100.00

 eigenvalues of (default mixing * dielectric matrix)
  average eigenvalue GAMMA=   1.7478
  6.3369  2.1780  2.1780  1.2065  0.9427  0.7593  0.7593  0.6187  0.7507

 Free energy of the ion-electron system (eV)
  ---------------------------------------------------
  alpha Z        PSCENC =         0.16864210
  Ewald energy   TEWEN  =      4945.13159274
  -Hartree energ DENC   =     -6026.89705963
  -exchange      EXHF   =         0.00000000
  -V(xc)+E(xc)   XCENC  =       156.74655866
  PAW double counting   =      4091.23870442    -4098.25571754
  entropy T*S    EENTRO =        -0.00000000
  eigenvalues    EBANDS =      -622.64819339
  atomic energy  EATOM  =      1571.37565575
  Solvation  Ediel_sol  =      -129.80337833
  ---------------------------------------------------
  free energy    TOTEN  =      -112.94319523 eV

  energy without entropy =     -112.94319523  energy(sigma->0) =     -112.94319523


--------------------------------------------------------------------------------------------------------




--------------------------------------- Iteration      1(  11)  ---------------------------------------


    POTLOK:  cpu time    368.6520: real time    368.6797
    SETDIJ:  cpu time      0.0273: real time      0.0273
    EDDIAG:  cpu time      4.9256: real time      4.9258
  RMM-DIIS:  cpu time      7.9970: real time      7.9972
    ORTHCH:  cpu time      0.8358: real time      0.8358
       DOS:  cpu time      0.2563: real time      0.2563
    CHARGE:  cpu time      8.6651: real time      8.6653
    MIXING:  cpu time      0.1539: real time      0.1539
    --------------------------------------------
      LOOP:  cpu time    391.5130: real time    391.5413

 eigenvalue-minimisations  :   170
 total energy-change (2. order) :-0.3990227E+00  (-0.4394514E-02)
 number of electron      47.0000002 magnetization       7.5258806
 augmentation part        1.0863851 magnetization       6.5756466

 Broyden mixing:
  rms(total) = 0.42166E-01    rms(broyden)= 0.42165E-01
  rms(prec ) = 0.42576E-01
  weight for this iteration     100.00

 eigenvalues of (default mixing * dielectric matrix)
  average eigenvalue GAMMA=   1.8852
  7.3912  2.4249  2.4249  1.7926  0.9680  0.9680  0.7923  0.7923  0.6190  0.6790

 Free energy of the ion-electron system (eV)
  ---------------------------------------------------
  alpha Z        PSCENC =         0.16864210
  Ewald energy   TEWEN  =      4945.13159274
  -Hartree energ DENC   =     -6022.94966501
  -exchange      EXHF   =         0.00000000
  -V(xc)+E(xc)   XCENC  =       156.39134724
  PAW double counting   =      4107.23557149    -4114.26511117
  entropy T*S    EENTRO =        -0.00000000
  eigenvalues    EBANDS =      -622.18741883
  atomic energy  EATOM  =      1571.37565575
  Solvation  Ediel_sol  =      -134.24283222
  ---------------------------------------------------
  free energy    TOTEN  =      -113.34221793 eV

  energy without entropy =     -113.34221793  energy(sigma->0) =     -113.34221793


--------------------------------------------------------------------------------------------------------




--------------------------------------- Iteration      1(  12)  ---------------------------------------


    POTLOK:  cpu time    381.5956: real time    381.6185
    SETDIJ:  cpu time      0.0328: real time      0.0328
    EDDIAG:  cpu time      4.5487: real time      4.5489
  RMM-DIIS:  cpu time      7.4191: real time      7.4195
    ORTHCH:  cpu time      1.2590: real time      1.2590
       DOS:  cpu time      0.1912: real time      0.1912
    CHARGE:  cpu time      8.6565: real time      8.6567
    MIXING:  cpu time      0.1518: real time      0.1518
    --------------------------------------------
      LOOP:  cpu time    403.8547: real time    403.8783

 eigenvalue-minimisations  :   172
 total energy-change (2. order) :-0.2292965E+00  (-0.2552592E-02)
 number of electron      47.0000002 magnetization       6.8752050
 augmentation part        1.0859456 magnetization       5.9261405

 Broyden mixing:
  rms(total) = 0.31241E-01    rms(broyden)= 0.31239E-01
  rms(prec ) = 0.31376E-01
  weight for this iteration     100.00

 eigenvalues of (default mixing * dielectric matrix)
  average eigenvalue GAMMA=   1.9474
  8.2054  3.2684  2.1174  2.1174  1.1212  0.8454  0.8454  0.8177  0.8177  0.6406
  0.6253

 Free energy of the ion-electron system (eV)
  ---------------------------------------------------
  alpha Z        PSCENC =         0.16864210
  Ewald energy   TEWEN  =      4945.13159274
  -Hartree energ DENC   =     -6016.60348409
  -exchange      EXHF   =         0.00000000
  -V(xc)+E(xc)   XCENC  =       156.11338799
  PAW double counting   =      4092.18318771    -4099.22270258
  entropy T*S    EENTRO =        -0.00000000
  eigenvalues    EBANDS =      -622.88233916
  atomic energy  EATOM  =      1571.37565575
  Solvation  Ediel_sol  =      -139.83545485
  ---------------------------------------------------
  free energy    TOTEN  =      -113.57151439 eV

  energy without entropy =     -113.57151439  energy(sigma->0) =     -113.57151439


--------------------------------------------------------------------------------------------------------




--------------------------------------- Iteration      1(  13)  ---------------------------------------


    POTLOK:  cpu time    359.5021: real time    359.5249
    SETDIJ:  cpu time      0.0325: real time      0.0325
    EDDIAG:  cpu time      4.7111: real time      4.7112
  RMM-DIIS:  cpu time      7.3342: real time      7.3344
    ORTHCH:  cpu time      0.8737: real time      0.8737
       DOS:  cpu time      0.4172: real time      0.4172
    CHARGE:  cpu time      9.0885: real time      9.0887
    MIXING:  cpu time      0.1594: real time      0.1594
    --------------------------------------------
      LOOP:  cpu time    382.1186: real time    382.1421

 eigenvalue-minimisations  :   169
 total energy-change (2. order) :-0.6203579E-01  (-0.9853863E-03)
 number of electron      47.0000002 magnetization       6.0093519
 augmentation part        1.0862554 magnetization       5.0608065

 Broyden mixing:
  rms(total) = 0.26079E-01    rms(broyden)= 0.26079E-01
  rms(prec ) = 0.26130E-01
  weight for this iteration     100.00

 eigenvalues of (default mixing * dielectric matrix)
  average eigenvalue GAMMA=   2.0168
  8.8937  3.8064  2.2462  2.2462  1.4770  0.9975  0.9975  0.7521  0.7521  0.7758
  0.6285  0.6285

 Free energy of the ion-electron system (eV)
  ---------------------------------------------------
  alpha Z        PSCENC =         0.16864210
  Ewald energy   TEWEN  =      4945.13159274
  -Hartree energ DENC   =     -6013.97845083
  -exchange      EXHF   =         0.00000000
  -V(xc)+E(xc)   XCENC  =       156.01926814
  PAW double counting   =      4091.30598351    -4098.34110402
  entropy T*S    EENTRO =        -0.00000000
  eigenvalues    EBANDS =      -623.47322573
  atomic energy  EATOM  =      1571.37565575
  Solvation  Ediel_sol  =      -141.84191184
  ---------------------------------------------------
  free energy    TOTEN  =      -113.63355018 eV

  energy without entropy =     -113.63355018  energy(sigma->0) =     -113.63355018


--------------------------------------------------------------------------------------------------------




--------------------------------------- Iteration      1(  14)  ---------------------------------------


    POTLOK:  cpu time    376.5243: real time    376.5498
    SETDIJ:  cpu time      0.0303: real time      0.0303
    EDDIAG:  cpu time      5.0625: real time      5.0626
  RMM-DIIS:  cpu time      7.5428: real time      7.5431
    ORTHCH:  cpu time      1.1159: real time      1.1159
       DOS:  cpu time      0.1537: real time      0.1537
    CHARGE:  cpu time      9.2800: real time      9.2854
    MIXING:  cpu time      0.1668: real time      0.1668
    --------------------------------------------
      LOOP:  cpu time    399.8763: real time    399.9077

 eigenvalue-minimisations  :   168
 total energy-change (2. order) :-0.2721976E-01  (-0.3529647E-03)
 number of electron      47.0000002 magnetization       5.2391741
 augmentation part        1.0865808 magnetization       4.2908559

 Broyden mixing:
  rms(total) = 0.21737E-01    rms(broyden)= 0.21736E-01
  rms(prec ) = 0.21767E-01
  weight for this iteration     100.00

 eigenvalues of (default mixing * dielectric matrix)
  average eigenvalue GAMMA=   2.0557
  9.4393  4.4652  2.3230  1.9735  1.9735  1.1623  0.9297  0.9297  0.7787  0.7787
  0.7057  0.6327  0.6327

 Free energy of the ion-electron system (eV)
  ---------------------------------------------------
  alpha Z        PSCENC =         0.16864210
  Ewald energy   TEWEN  =      4945.13159274
  -Hartree energ DENC   =     -6011.94290124
  -exchange      EXHF   =         0.00000000
  -V(xc)+E(xc)   XCENC  =       155.98519623
  PAW double counting   =      4105.97634365    -4113.00312460
  entropy T*S    EENTRO =        -0.00000000
  eigenvalues    EBANDS =      -623.25596713
  atomic energy  EATOM  =      1571.37565575
  Solvation  Ediel_sol  =      -144.09620743
  ---------------------------------------------------
  free energy    TOTEN  =      -113.66076994 eV

  energy without entropy =     -113.66076994  energy(sigma->0) =     -113.66076994


--------------------------------------------------------------------------------------------------------




--------------------------------------- Iteration      1(  15)  ---------------------------------------


    POTLOK:  cpu time    351.1455: real time    351.1768
    SETDIJ:  cpu time      0.0294: real time      0.0293
    EDDIAG:  cpu time      4.8555: real time      4.8557
  RMM-DIIS:  cpu time      7.4191: real time      7.4194
    ORTHCH:  cpu time      1.1356: real time      1.1356
       DOS:  cpu time      0.3802: real time      0.3802
    CHARGE:  cpu time      8.7062: real time      8.7064
    MIXING:  cpu time      0.1736: real time      0.1736
    --------------------------------------------
      LOOP:  cpu time    373.8450: real time    373.8769

 eigenvalue-minimisations  :   170
 total energy-change (2. order) :-0.1915174E-01  (-0.1638448E-03)
 number of electron      47.0000002 magnetization       4.3554980
 augmentation part        1.0866674 magnetization       3.4073306

 Broyden mixing:
  rms(total) = 0.18004E-01    rms(broyden)= 0.18003E-01
  rms(prec ) = 0.18035E-01
  weight for this iteration     100.00

 eigenvalues of (default mixing * dielectric matrix)
  average eigenvalue GAMMA=   2.1489
 10.1351  5.3161  2.5253  2.2201  2.2201  1.3699  0.9545  0.9545  0.9148  0.7715
  0.7715  0.6891  0.6211  0.6211

 Free energy of the ion-electron system (eV)
  ---------------------------------------------------
  alpha Z        PSCENC =         0.16864210
  Ewald energy   TEWEN  =      4945.13159274
  -Hartree energ DENC   =     -6011.39463414
  -exchange      EXHF   =         0.00000000
  -V(xc)+E(xc)   XCENC  =       155.97151048
  PAW double counting   =      4107.92702178    -4114.95736784
  entropy T*S    EENTRO =        -0.00000000
  eigenvalues    EBANDS =      -622.70462843
  atomic energy  EATOM  =      1571.37565575
  Solvation  Ediel_sol  =      -145.19771412
  ---------------------------------------------------
  free energy    TOTEN  =      -113.67992168 eV

  energy without entropy =     -113.67992168  energy(sigma->0) =     -113.67992168


--------------------------------------------------------------------------------------------------------




--------------------------------------- Iteration      1(  16)  ---------------------------------------


    POTLOK:  cpu time    364.4855: real time    364.5118
    SETDIJ:  cpu time      0.0295: real time      0.0295
    EDDIAG:  cpu time      4.6696: real time      4.6698
  RMM-DIIS:  cpu time      7.1651: real time      7.1654
    ORTHCH:  cpu time      1.0541: real time      1.0541
       DOS:  cpu time      0.3505: real time      0.3505
    CHARGE:  cpu time      8.6485: real time      8.6487
    MIXING:  cpu time      0.1897: real time      0.1897
    --------------------------------------------
      LOOP:  cpu time    386.5926: real time    386.6195

 eigenvalue-minimisations  :   168
 total energy-change (2. order) :-0.1490719E-01  (-0.1469717E-03)
 number of electron      47.0000002 magnetization       3.1709009
 augmentation part        1.0866873 magnetization       2.2228188

 Broyden mixing:
  rms(total) = 0.14752E-01    rms(broyden)= 0.14752E-01
  rms(prec ) = 0.14802E-01
  weight for this iteration     100.00

 eigenvalues of (default mixing * dielectric matrix)
  average eigenvalue GAMMA=   2.2501
 10.9162  6.2025  3.2061  2.1761  2.1761  1.7368  1.1495  0.9618  0.9618  0.7791
  0.7791  0.7572  0.7057  0.6219  0.6219

 Free energy of the ion-electron system (eV)
  ---------------------------------------------------
  alpha Z        PSCENC =         0.16864210
  Ewald energy   TEWEN  =      4945.13159274
  -Hartree energ DENC   =     -6011.23296926
  -exchange      EXHF   =         0.00000000
  -V(xc)+E(xc)   XCENC  =       155.95654980
  PAW double counting   =      4104.33170202    -4111.36507099
  entropy T*S    EENTRO =        -0.00000000
  eigenvalues    EBANDS =      -622.36211797
  atomic energy  EATOM  =      1571.37565575
  Solvation  Ediel_sol  =      -145.69881307
  ---------------------------------------------------
  free energy    TOTEN  =      -113.69482888 eV

  energy without entropy =     -113.69482888  energy(sigma->0) =     -113.69482888


--------------------------------------------------------------------------------------------------------




--------------------------------------- Iteration      1(  17)  ---------------------------------------


    POTLOK:  cpu time    367.9005: real time    367.9247
    SETDIJ:  cpu time      0.0316: real time      0.0315
    EDDIAG:  cpu time      4.9948: real time      4.9950
  RMM-DIIS:  cpu time      7.2251: real time      7.2253
    ORTHCH:  cpu time      0.9365: real time      0.9365
       DOS:  cpu time      0.3287: real time      0.3287
    CHARGE:  cpu time      8.6648: real time      8.6651
    MIXING:  cpu time      0.2009: real time      0.2010
    --------------------------------------------
      LOOP:  cpu time    390.2830: real time    390.3078

 eigenvalue-minimisations  :   168
 total energy-change (2. order) :-0.1005580E-01  (-0.2942328E-03)
 number of electron      47.0000002 magnetization       2.1335102
 augmentation part        1.0867704 magnetization       1.1855510

 Broyden mixing:
  rms(total) = 0.11699E-01    rms(broyden)= 0.11699E-01
  rms(prec ) = 0.11771E-01
  weight for this iteration     100.00

 eigenvalues of (default mixing * dielectric matrix)
  average eigenvalue GAMMA=   2.4021
 12.1123  7.2122  3.9921  2.2969  2.1555  2.1555  1.3655  0.9734  0.9734  1.0081
  0.7614  0.7614  0.7237  0.6943  0.6238  0.6238

 Free energy of the ion-electron system (eV)
  ---------------------------------------------------
  alpha Z        PSCENC =         0.16864210
  Ewald energy   TEWEN  =      4945.13159274
  -Hartree energ DENC   =     -6011.28639505
  -exchange      EXHF   =         0.00000000
  -V(xc)+E(xc)   XCENC  =       155.94361275
  PAW double counting   =      4101.90799386    -4108.93658515
  entropy T*S    EENTRO =        -0.00000000
  eigenvalues    EBANDS =      -622.42021968
  atomic energy  EATOM  =      1571.37565575
  Solvation  Ediel_sol  =      -145.58918198
  ---------------------------------------------------
  free energy    TOTEN  =      -113.70488468 eV

  energy without entropy =     -113.70488468  energy(sigma->0) =     -113.70488468


--------------------------------------------------------------------------------------------------------




--------------------------------------- Iteration      1(  18)  ---------------------------------------


    POTLOK:  cpu time    362.0604: real time    362.0807
    SETDIJ:  cpu time      0.0321: real time      0.0321
    EDDIAG:  cpu time      5.1300: real time      5.1302
  RMM-DIIS:  cpu time      7.8769: real time      7.8771
    ORTHCH:  cpu time      1.3512: real time      1.3512
       DOS:  cpu time      0.1902: real time      0.1902
    CHARGE:  cpu time      9.0905: real time      9.0907
    MIXING:  cpu time      0.1969: real time      0.1969
    --------------------------------------------
      LOOP:  cpu time    385.9284: real time    385.9492

 eigenvalue-minimisations  :   170
 total energy-change (2. order) :-0.1182101E-01  (-0.3091185E-03)
 number of electron      47.0000002 magnetization       1.4465060
 augmentation part        1.0866746 magnetization       0.4986155

 Broyden mixing:
  rms(total) = 0.72661E-02    rms(broyden)= 0.72660E-02
  rms(prec ) = 0.73541E-02
  weight for this iteration     100.00

 eigenvalues of (default mixing * dielectric matrix)
  average eigenvalue GAMMA=   2.6663
 15.3117  8.4460  4.7341  2.6537  2.2445  2.2445  1.6131  1.1363  0.9657  0.9657
  0.8352  0.7665  0.7665  0.7332  0.6655  0.6228  0.6228

 Free energy of the ion-electron system (eV)
  ---------------------------------------------------
  alpha Z        PSCENC =         0.16864210
  Ewald energy   TEWEN  =      4945.13159274
  -Hartree energ DENC   =     -6011.86351353
  -exchange      EXHF   =         0.00000000
  -V(xc)+E(xc)   XCENC  =       155.94963378
  PAW double counting   =      4104.57591545    -4111.60431592
  entropy T*S    EENTRO =        -0.00000000
  eigenvalues    EBANDS =      -622.34760288
  atomic energy  EATOM  =      1571.37565575
  Solvation  Ediel_sol  =      -145.10271318
  ---------------------------------------------------
  free energy    TOTEN  =      -113.71670570 eV

  energy without entropy =     -113.71670570  energy(sigma->0) =     -113.71670570


--------------------------------------------------------------------------------------------------------




--------------------------------------- Iteration      1(  19)  ---------------------------------------


    POTLOK:  cpu time    365.5678: real time    365.5956
    SETDIJ:  cpu time      0.0305: real time      0.0305
    EDDIAG:  cpu time      4.7167: real time      4.7168
  RMM-DIIS:  cpu time      7.3764: real time      7.3767
    ORTHCH:  cpu time      1.3264: real time      1.3264
       DOS:  cpu time      0.0153: real time      0.0153
    CHARGE:  cpu time      8.9480: real time      8.9482
    MIXING:  cpu time      0.2087: real time      0.2087
    --------------------------------------------
      LOOP:  cpu time    388.1898: real time    388.2182

 eigenvalue-minimisations  :   168
 total energy-change (2. order) :-0.1622186E-01  (-0.8879462E-04)
 number of electron      47.0000002 magnetization       1.2120209
 augmentation part        1.0865241 magnetization       0.2641310

 Broyden mixing:
  rms(total) = 0.51312E-02    rms(broyden)= 0.51311E-02
  rms(prec ) = 0.52036E-02
  weight for this iteration     100.00

 eigenvalues of (default mixing * dielectric matrix)
  average eigenvalue GAMMA=   2.8843
 19.3711  9.1030  5.0948  2.8794  2.1570  2.1570  1.9890  1.2773  0.9871  0.9871
  0.9824  0.7744  0.7744  0.7745  0.6996  0.6641  0.6227  0.6227

 Free energy of the ion-electron system (eV)
  ---------------------------------------------------
  alpha Z        PSCENC =         0.16864210
  Ewald energy   TEWEN  =      4945.13159274
  -Hartree energ DENC   =     -6012.32905925
  -exchange      EXHF   =         0.00000000
  -V(xc)+E(xc)   XCENC  =       155.93598208
  PAW double counting   =      4103.19634888    -4110.22797353
  entropy T*S    EENTRO =        -0.00000000
  eigenvalues    EBANDS =      -622.52025177
  atomic energy  EATOM  =      1571.37565575
  Solvation  Ediel_sol  =      -144.46386454
  ---------------------------------------------------
  free energy    TOTEN  =      -113.73292755 eV

  energy without entropy =     -113.73292755  energy(sigma->0) =     -113.73292755


--------------------------------------------------------------------------------------------------------




--------------------------------------- Iteration      1(  20)  ---------------------------------------


    POTLOK:  cpu time    359.5899: real time    359.6138
    SETDIJ:  cpu time      0.0296: real time      0.0296
    EDDIAG:  cpu time      5.1476: real time      5.1477
  RMM-DIIS:  cpu time      7.1525: real time      7.1527
    ORTHCH:  cpu time      0.8862: real time      0.8862
       DOS:  cpu time      0.1964: real time      0.1964
    CHARGE:  cpu time      9.6418: real time      9.6420
    MIXING:  cpu time      0.2208: real time      0.2208
    --------------------------------------------
      LOOP:  cpu time    382.8647: real time    382.8893

 eigenvalue-minimisations  :   168
 total energy-change (2. order) :-0.7536035E-02  (-0.3972444E-04)
 number of electron      47.0000002 magnetization       1.0876671
 augmentation part        1.0864767 magnetization       0.1398065

 Broyden mixing:
  rms(total) = 0.26351E-02    rms(broyden)= 0.26350E-02
  rms(prec ) = 0.26865E-02
  weight for this iteration     100.00

 eigenvalues of (default mixing * dielectric matrix)
  average eigenvalue GAMMA=   3.0109
 22.4459  9.4043  5.2891  3.0123  2.2940  2.2940  2.1493  1.4351  1.1180  0.9801
  0.9801  0.8967  0.7752  0.7752  0.7576  0.6943  0.6240  0.6240  0.6572

 Free energy of the ion-electron system (eV)
  ---------------------------------------------------
  alpha Z        PSCENC =         0.16864210
  Ewald energy   TEWEN  =      4945.13159274
  -Hartree energ DENC   =     -6012.35070460
  -exchange      EXHF   =         0.00000000
  -V(xc)+E(xc)   XCENC  =       155.91470233
  PAW double counting   =      4100.91689161    -4107.94819886
  entropy T*S    EENTRO =        -0.00000000
  eigenvalues    EBANDS =      -622.81862104
  atomic energy  EATOM  =      1571.37565575
  Solvation  Ediel_sol  =      -144.13042361
  ---------------------------------------------------
  free energy    TOTEN  =      -113.74046359 eV

  energy without entropy =     -113.74046359  energy(sigma->0) =     -113.74046359


--------------------------------------------------------------------------------------------------------




--------------------------------------- Iteration      1(  21)  ---------------------------------------


    POTLOK:  cpu time    346.7421: real time    346.7635
    SETDIJ:  cpu time      0.0297: real time      0.0297
    EDDIAG:  cpu time      4.6200: real time      4.6201
  RMM-DIIS:  cpu time      7.3700: real time      7.3702
    ORTHCH:  cpu time      0.9139: real time      0.9139
       DOS:  cpu time      0.2298: real time      0.2298
    CHARGE:  cpu time     10.6143: real time     10.6145
    MIXING:  cpu time      0.2487: real time      0.2487
    --------------------------------------------
      LOOP:  cpu time    370.7682: real time    370.7903

 eigenvalue-minimisations  :   168
 total energy-change (2. order) :-0.1147443E-01  (-0.4213516E-04)
 number of electron      47.0000002 magnetization       1.0454066
 augmentation part        1.0864947 magnetization       0.0975730

 Broyden mixing:
  rms(total) = 0.17767E-02    rms(broyden)= 0.17767E-02
  rms(prec ) = 0.18078E-02
  weight for this iteration     100.00

 eigenvalues of (default mixing * dielectric matrix)
  average eigenvalue GAMMA=   3.0434
 24.1989  9.5648  5.4578  3.3661  2.4294  2.1740  2.1740  1.6722  1.1785  0.9942
  0.9942  0.9533  0.8602  0.7812  0.7812  0.7018  0.7018  0.6248  0.6248  0.6349

 Free energy of the ion-electron system (eV)
  ---------------------------------------------------
  alpha Z        PSCENC =         0.16864210
  Ewald energy   TEWEN  =      4945.13159274
  -Hartree energ DENC   =     -6012.34557567
  -exchange      EXHF   =         0.00000000
  -V(xc)+E(xc)   XCENC  =       155.89751103
  PAW double counting   =      4101.83422568    -4108.86477794
  entropy T*S    EENTRO =        -0.00000000
  eigenvalues    EBANDS =      -622.97561537
  atomic energy  EATOM  =      1571.37565575
  Solvation  Ediel_sol  =      -143.97359633
  ---------------------------------------------------
  free energy    TOTEN  =      -113.75193801 eV

  energy without entropy =     -113.75193801  energy(sigma->0) =     -113.75193801


--------------------------------------------------------------------------------------------------------




--------------------------------------- Iteration      1(  22)  ---------------------------------------


    POTLOK:  cpu time    342.4202: real time    342.4438
    SETDIJ:  cpu time      0.0310: real time      0.0310
    EDDIAG:  cpu time      4.0290: real time      4.0292
  RMM-DIIS:  cpu time      7.5715: real time      7.5718
    ORTHCH:  cpu time      0.9476: real time      0.9477
       DOS:  cpu time      0.5731: real time      0.5732
    CHARGE:  cpu time      8.9012: real time      8.9014
    MIXING:  cpu time      0.2437: real time      0.2437
    --------------------------------------------
      LOOP:  cpu time    364.7174: real time    364.7417

 eigenvalue-minimisations  :   166
 total energy-change (2. order) :-0.4723281E-02  (-0.3123768E-04)
 number of electron      47.0000002 magnetization       1.0228057
 augmentation part        1.0865403 magnetization       0.0749951

 Broyden mixing:
  rms(total) = 0.11458E-02    rms(broyden)= 0.11458E-02
  rms(prec ) = 0.11686E-02
  weight for this iteration     100.00

 eigenvalues of (default mixing * dielectric matrix)
  average eigenvalue GAMMA=   3.0438
 24.9410  9.6392  5.5487  3.6587  2.6276  2.2584  2.2584  1.9790  1.3567  1.1067
  0.9917  0.9917  0.9613  0.7761  0.7761  0.7812  0.6939  0.6939  0.6233  0.6280
  0.6280

 Free energy of the ion-electron system (eV)
  ---------------------------------------------------
  alpha Z        PSCENC =         0.16864210
  Ewald energy   TEWEN  =      4945.13159274
  -Hartree energ DENC   =     -6012.40408488
  -exchange      EXHF   =         0.00000000
  -V(xc)+E(xc)   XCENC  =       155.89543596
  PAW double counting   =      4102.93153787    -4109.96202504
  entropy T*S    EENTRO =        -0.00000000
  eigenvalues    EBANDS =      -622.94483774
  atomic energy  EATOM  =      1571.37565575
  Solvation  Ediel_sol  =      -143.94857806
  ---------------------------------------------------
  free energy    TOTEN  =      -113.75666129 eV

  energy without entropy =     -113.75666129  energy(sigma->0) =     -113.75666129


--------------------------------------------------------------------------------------------------------




--------------------------------------- Iteration      1(  23)  ---------------------------------------


    POTLOK:  cpu time    349.9090: real time    349.9349
    SETDIJ:  cpu time      0.0317: real time      0.0317
    EDDIAG:  cpu time      4.7822: real time      4.7824
  RMM-DIIS:  cpu time      8.3584: real time      8.3587
    ORTHCH:  cpu time      1.2343: real time      1.2344
       DOS:  cpu time      0.1741: real time      0.1741
    CHARGE:  cpu time      9.2979: real time      9.2981
    MIXING:  cpu time      0.2524: real time      0.2524
    --------------------------------------------
      LOOP:  cpu time    374.0400: real time    374.0667

 eigenvalue-minimisations  :   177
 total energy-change (2. order) :-0.2556467E-02  (-0.5545007E-04)
 number of electron      47.0000002 magnetization       1.0155762
 augmentation part        1.0866465 magnetization       0.0677910

 Broyden mixing:
  rms(total) = 0.85951E-03    rms(broyden)= 0.85940E-03
  rms(prec ) = 0.89219E-03
  weight for this iteration     100.00

 eigenvalues of (default mixing * dielectric matrix)
  average eigenvalue GAMMA=   3.0005
[...]
    EDDIAG:  cpu time      4.7713: real time      4.7714
  RMM-DIIS:  cpu time      5.4868: real time      5.4869
    ORTHCH:  cpu time      1.1487: real time      1.1487
       DOS:  cpu time      0.3631: real time      0.3631
    CHARGE:  cpu time      9.4439: real time      9.4441
    MIXING:  cpu time      0.1147: real time      0.1147
    --------------------------------------------
      LOOP:  cpu time    318.8035: real time    318.8241

 eigenvalue-minimisations  :   117
 total energy-change (2. order) :-0.1945502E-04  (-0.3402129E-06)
 number of electron      47.0000002 magnetization       1.0000007
 augmentation part        1.0854697 magnetization       0.0522337

 Broyden mixing:
  rms(total) = 0.19908E-03    rms(broyden)= 0.19905E-03
  rms(prec ) = 0.20494E-03
  weight for this iteration     100.00

 eigenvalues of (default mixing * dielectric matrix)
  average eigenvalue GAMMA=   1.4195
  2.0924  2.0924  0.8228  0.6704

 Free energy of the ion-electron system (eV)
  ---------------------------------------------------
  alpha Z        PSCENC =         0.16864210
  Ewald energy   TEWEN  =      4942.27612010
  -Hartree energ DENC   =     -6010.30068634
  -exchange      EXHF   =         0.00000000
  -V(xc)+E(xc)   XCENC  =       155.85638079
  PAW double counting   =      4095.65560565    -4102.68250003
  entropy T*S    EENTRO =        -0.00000000
  eigenvalues    EBANDS =      -622.33525003
  atomic energy  EATOM  =      1571.37565575
  Solvation  Ediel_sol  =      -143.77620690
  ---------------------------------------------------
  free energy    TOTEN  =      -113.76223892 eV

  energy without entropy =     -113.76223892  energy(sigma->0) =     -113.76223892


--------------------------------------------------------------------------------------------------------




--------------------------------------- Iteration      6(   6)  ---------------------------------------


    POTLOK:  cpu time    291.8372: real time    291.8577
    SETDIJ:  cpu time      0.0334: real time      0.0334
    EDDIAG:  cpu time      4.4743: real time      4.4744
  RMM-DIIS:  cpu time      5.6248: real time      5.6250
    ORTHCH:  cpu time      0.9656: real time      0.9656
       DOS:  cpu time      0.0132: real time      0.0132
    --------------------------------------------
      LOOP:  cpu time    302.9484: real time    302.9693

 eigenvalue-minimisations  :   114
 total energy-change (2. order) : 0.4957976E-05  (-0.1649014E-06)
 number of electron      47.0000002 magnetization       1.0000007
 augmentation part        1.0854697 magnetization       0.0522337

 Free energy of the ion-electron system (eV)
  ---------------------------------------------------
  alpha Z        PSCENC =         0.16864210
  Ewald energy   TEWEN  =      4942.27612010
  -Hartree energ DENC   =     -6010.31043639
  -exchange      EXHF   =         0.00000000
  -V(xc)+E(xc)   XCENC  =       155.85657818
  PAW double counting   =      4095.55073938    -4102.57761676
  entropy T*S    EENTRO =        -0.00000000
  eigenvalues    EBANDS =      -622.32646176
  atomic energy  EATOM  =      1571.37565575
  Solvation  Ediel_sol  =      -143.77545456
  ---------------------------------------------------
  free energy    TOTEN  =      -113.76223396 eV

  energy without entropy =     -113.76223396  energy(sigma->0) =     -113.76223396


--------------------------------------------------------------------------------------------------------




 average (electrostatic) potential at core
  the test charge radii are     0.6991  0.5201
  (the norm of the test charge is              1.0000)
       1 -59.8349       2 -59.8341       3 -60.1379       4 -60.0791       5 -60.1387
       6 -59.8346       7 -59.8340       8 -60.1379       9 -60.0791      10 -60.1387
      11 -42.8566      12 -42.8551      13 -42.6707      14 -42.6723      15 -42.8566
      16 -42.8551      17 -42.6708      18 -42.6726
 
 
 
 E-fermi :  -6.4182     XC(G=0):  -0.0441     alpha+bet : -0.0190

 Fermi energy:        -6.4182312125

 spin component 1

 k-point     1 :       0.0000    0.0000    0.0000
  band No.  band energies     occupation 
      1     -22.7893      1.00000
      2     -21.4398      1.00000
      3     -20.2923      1.00000
      4     -19.3077      1.00000
      5     -18.7736      1.00000
      6     -16.4906      1.00000
      7     -15.9813      1.00000
      8     -15.5220      1.00000
      9     -13.4714      1.00000
     10     -13.3368      1.00000
     11     -12.9902      1.00000
     12     -11.6982      1.00000
     13     -11.5727      1.00000
     14     -11.0661      1.00000
     15     -10.9824      1.00000
     16     -10.7915      1.00000
     17     -10.3227      1.00000
     18      -9.7981      1.00000
     19      -9.2514      1.00000
     20      -8.9510      1.00000
     21      -8.7083      1.00000
     22      -8.3931      1.00000
     23      -7.2181      1.00000
     24      -6.6863      1.00000
     25      -3.4712      0.00000
     26      -2.2499      0.00000
     27      -1.6234      0.00000
     28      -0.3491      0.00000
     29      -0.0448      0.00000
     30      -0.0097      0.00000
     31      -0.0026      0.00000
     32       0.0670      0.00000
     33       0.0772      0.00000
     34       0.0820      0.00000
     35       0.0986      0.00000
     36       0.1020      0.00000
     37       0.1037      0.00000
     38       0.1145      0.00000
     39       0.1411      0.00000
     40       0.1713      0.00000
     41       0.1714      0.00000
     42       0.1727      0.00000
 Fermi energy:        -6.4182312125

 spin component 2

 k-point     1 :       0.0000    0.0000    0.0000
  band No.  band energies     occupation 
      1     -22.6862      1.00000
      2     -21.2996      1.00000
      3     -20.1121      1.00000
      4     -19.2783      1.00000
      5     -18.5331      1.00000
      6     -16.3801      1.00000
      7     -15.9021      1.00000
      8     -15.4238      1.00000
      9     -13.4103      1.00000
     10     -13.2417      1.00000
     11     -12.9412      1.00000
     12     -11.6428      1.00000
     13     -11.5586      1.00000
     14     -11.0121      1.00000
     15     -10.9193      1.00000
     16     -10.5374      1.00000
     17     -10.2631      1.00000
     18      -9.7723      1.00000
     19      -8.9143      1.00000
     20      -8.8981      1.00000
     21      -8.6877      1.00000
     22      -7.9317      1.00000
     23      -7.1457      1.00000
     24      -6.0647      0.00000
     25      -2.9461      0.00000
     26      -2.1162      0.00000
     27      -1.2257      0.00000
     28      -0.3223      0.00000
     29      -0.0327      0.00000
     30      -0.0019      0.00000
     31       0.0008      0.00000
     32       0.0711      0.00000
     33       0.0769      0.00000
     34       0.0827      0.00000
     35       0.1005      0.00000
     36       0.1043      0.00000
     37       0.1157      0.00000
     38       0.1500      0.00000
     39       0.1712      0.00000
     40       0.1719      0.00000
     41       0.1731      0.00000
     42       0.1749      0.00000


--------------------------------------------------------------------------------------------------------


 soft charge-density along one line, spin component           1
         0         1         2         3         4         5         6         7         8         9
 total charge-density along one line
 
 soft charge-density along one line, spin component           2
         0         1         2         3         4         5         6         7         8         9
 total charge-density along one line
 
 pseudopotential strength for first ion, spin component:           1
 10.324  13.731   0.001   0.000  -0.002  -0.003  -0.000   0.007
 13.731  18.263   0.001   0.000  -0.003  -0.004  -0.000   0.009
  0.001   0.001  -4.435  -0.000  -0.001   8.674   0.000   0.002
  0.000   0.000  -0.000  -4.437  -0.000   0.000   8.682   0.000
 -0.002  -0.003  -0.001  -0.000  -4.433   0.002   0.000   8.671
 -0.003  -0.004   8.674   0.000   0.002 -19.105  -0.000  -0.005
 -0.000  -0.000   0.000   8.682   0.000  -0.000 -19.130  -0.000
  0.007   0.009   0.002   0.000   8.671  -0.005  -0.000 -19.100
 pseudopotential strength for first ion, spin component:           2
 10.315  13.720   0.001   0.000  -0.002  -0.003  -0.000   0.008
 13.720  18.247   0.001   0.000  -0.003  -0.004  -0.000   0.010
  0.001   0.001  -4.436  -0.000  -0.002   8.676   0.000   0.003
  0.000   0.000  -0.000  -4.427  -0.000   0.000   8.666   0.000
 -0.002  -0.003  -0.002  -0.000  -4.434   0.003   0.000   8.673
 -0.003  -0.004   8.676   0.000   0.003 -19.112  -0.000  -0.006
 -0.000  -0.000   0.000   8.666   0.000  -0.000 -19.106  -0.000
  0.008   0.010   0.003   0.000   8.673  -0.006  -0.000 -19.108
 total augmentation occupancy for first ion, spin component:           1
  7.778  -3.357   0.136   0.000  -0.202   0.027   0.000  -0.043
 -3.357   1.494  -0.090   0.000   0.150  -0.016   0.000   0.026
  0.136  -0.090   1.848   0.000   0.016   0.166   0.000   0.008
  0.000   0.000   0.000   1.068  -0.000   0.000   0.062   0.000
 -0.202   0.150   0.016  -0.000   1.796   0.008  -0.000   0.155
  0.027  -0.016   0.166   0.000   0.008   0.016   0.000   0.001
  0.000   0.000   0.000   0.062  -0.000   0.000   0.004   0.000
 -0.043   0.026   0.008   0.000   0.155   0.001   0.000   0.014
 total augmentation occupancy for first ion, spin component:           2
  0.009  -0.006  -0.006   0.000  -0.004  -0.001   0.000  -0.001
 -0.006   0.004   0.005  -0.000   0.005   0.001   0.000   0.001
 -0.006   0.005  -0.001   0.000  -0.003   0.000   0.000   0.000
  0.000   0.000   0.000   0.063   0.000   0.000   0.002  -0.000
 -0.004   0.005  -0.003   0.000  -0.003   0.000   0.000   0.000
 -0.001   0.001   0.000   0.000   0.000   0.000   0.000   0.000
  0.000   0.000   0.000   0.002   0.000   0.000   0.000   0.000
 -0.001   0.001   0.000  -0.000   0.000   0.000   0.000   0.000


------------------------ aborting loop because EDIFF is reached ----------------------------------------


    CHARGE:  cpu time      8.9366: real time      8.9368
    FORLOC:  cpu time      0.2475: real time      0.2476
    FORNL :  cpu time      3.3904: real time      3.3905
    STRESS:  cpu time     10.2648: real time     10.2651
    FORCOR:  cpu time     16.5842: real time     16.5846
    FORHAR:  cpu time      2.2132: real time      2.2133
    MIXING:  cpu time      0.1151: real time      0.1151
    OFIELD:  cpu time      0.0001: real time      0.0001

 ---------------------------------------------------------------------------------------------

         DFTD3 V3.0 Rev 1        
 Edisp (eV)   -0.18386

 E6    (eV) :    -0.0819
 E8    (eV) :    -0.1020
 % E8        : 55.47
    FORVDW:  cpu time      0.0107: real time      0.0125

  FORCE on cell =-STRESS in cart. coord.  units (eV):
  Direction    XX          YY          ZZ          XY          YZ          ZX
  --------------------------------------------------------------------------------------
  Alpha Z     0.16864     0.16864     0.16864
  Ewald    3103.48424  2233.80218  -395.01034    -0.02697    -0.00000     0.00000
  Hartree  3021.00788  2285.72744   703.60061    -0.00043    -0.00000    -0.00000
  E(xc)    -169.34623  -169.49028  -175.05657     0.00000     0.00000    -0.00000
  Local   -6565.41053 -4957.99396  -828.57117     0.02085     0.00000    -0.00000
  n-local   -57.52139   -59.04855   -47.18067    -0.00028    -0.00000     0.00000
  augment    -2.61387    -2.64426    -2.42714     0.00004     0.00000    -0.00000
  Kinetic   670.80310   670.62530   742.66913     0.00295     0.00000    -0.00000
  Fock        0.00000     0.00000     0.00000     0.00000     0.00000     0.00000
  vdW        -0.01979     0.01947    -0.00000     0.00000     0.00000     0.00000
  -------------------------------------------------------------------------------------
  Total       0.55205     1.16600    -1.80750    -0.00000     0.00000     0.00000
  in kB       0.01382     0.02919    -0.04525    -0.00000     0.00000     0.00000
  external pressure =       -0.00 kB  Pullay stress =        0.00 kB


 VOLUME and BASIS-vectors are now :
 -----------------------------------------------------------------------------
  energy-cutoff  :      500.00
  volume of cell :    64000.00
      direct lattice vectors                 reciprocal lattice vectors
    40.000000000  0.000000000  0.000000000     0.025000000  0.000000000  0.000000000
     0.000000000 40.000000000  0.000000000     0.000000000  0.025000000  0.000000000
     0.000000000  0.000000000 40.000000000     0.000000000  0.000000000  0.025000000

  length of vectors
    40.000000000 40.000000000 40.000000000     0.025000000  0.025000000  0.025000000


 FORCES acting on ions
    electron-ion (+dipol)            ewald-force                    non-local-force                 convergence-correction
 -----------------------------------------------------------------------------------------------
   -.194E+03 0.939E+02 -.626E-07   0.197E+03 -.945E+02 0.126E-18   -.241E+01 0.904E+00 0.000E+00   0.559E-03 -.218E-03 0.492E-11
   -.194E+03 -.938E+02 0.597E-07   0.197E+03 0.945E+02 -.630E-19   -.241E+01 -.904E+00 0.000E+00   0.559E-03 0.219E-03 0.464E-11
   -.728E+02 -.190E+03 -.657E-07   0.733E+02 0.192E+03 0.252E-17   -.223E+00 -.232E+01 0.000E+00   -.290E-03 0.835E-03 0.242E-11
   -.473E-04 -.829E+02 -.648E-07   0.205E-02 0.830E+02 0.334E-17   0.000E+00 -.365E+00 0.000E+00   0.160E-06 -.662E-03 0.955E-12
   0.728E+02 -.190E+03 -.931E-07   -.733E+02 0.192E+03 -.412E-17   0.223E+00 -.232E+01 0.000E+00   0.290E-03 0.835E-03 -.119E-11
   0.194E+03 -.939E+02 0.625E-07   -.197E+03 0.945E+02 0.344E-17   0.241E+01 -.904E+00 -.414E-24   -.559E-03 0.218E-03 -.144E-11
   0.194E+03 0.938E+02 -.598E-07   -.197E+03 -.945E+02 0.339E-17   0.241E+01 0.904E+00 0.414E-24   -.559E-03 -.219E-03 -.340E-12
   0.728E+02 0.190E+03 0.656E-07   -.733E+02 -.192E+03 -.666E-17   0.223E+00 0.232E+01 0.000E+00   0.290E-03 -.835E-03 0.126E-11
   0.489E-04 0.829E+02 0.648E-07   -.212E-02 -.830E+02 0.270E-19   0.000E+00 0.365E+00 0.872E-25   -.164E-06 0.662E-03 0.210E-11
   -.728E+02 0.190E+03 0.932E-07   0.733E+02 -.192E+03 0.164E-17   -.223E+00 0.232E+01 0.000E+00   -.290E-03 -.835E-03 0.341E-11
   -.149E+02 0.874E+02 0.226E-07   0.151E+02 -.932E+02 0.900E-19   -.643E-01 0.604E+01 -.258E-25   -.567E-04 -.532E-03 0.611E-12
   0.149E+02 0.874E+02 -.714E-08   -.151E+02 -.932E+02 -.723E-18   0.643E-01 0.604E+01 -.258E-25   0.566E-04 -.532E-03 0.320E-12
   0.770E+02 0.417E+02 0.394E-09   -.822E+02 -.446E+02 0.583E-18   0.523E+01 0.303E+01 0.646E-26   -.555E-04 -.170E-03 -.672E-13
   0.770E+02 -.417E+02 0.293E-07   -.822E+02 0.446E+02 0.250E-18   0.523E+01 -.303E+01 -.646E-26   -.555E-04 0.170E-03 -.316E-12
   0.149E+02 -.874E+02 -.226E-07   -.151E+02 0.932E+02 -.144E-18   0.643E-01 -.604E+01 0.258E-25   0.567E-04 0.532E-03 -.245E-12
   -.149E+02 -.874E+02 0.715E-08   0.151E+02 0.932E+02 -.137E-17   -.643E-01 -.604E+01 0.258E-25   -.566E-04 0.532E-03 0.328E-12
   -.770E+02 -.417E+02 -.385E-09   0.822E+02 0.446E+02 0.557E-18   -.523E+01 -.303E+01 -.485E-26   0.555E-04 0.170E-03 0.874E-12
   -.770E+02 0.417E+02 -.293E-07   0.822E+02 -.446E+02 0.129E-17   -.523E+01 0.303E+01 0.646E-26   0.555E-04 -.170E-03 0.935E-12
 -----------------------------------------------------------------------------------------------
   -.152E-02 -.236E-02 -.144E-09   -.142E-13 0.000E+00 0.416E-17   0.000E+00 0.000E+00 0.889E-25   -.178E-07 0.461E-07 0.192E-10
 
 
 POSITION                                       TOTAL-FORCE (eV/Angst)
 -----------------------------------------------------------------------------------
     22.44967     19.30324     20.00000        -0.017210     -0.006339     -0.000000
     22.44967     20.69668     20.00000        -0.017210      0.006339      0.000000
     21.23631     21.40984     20.00000        -0.000523     -0.002636      0.000000
     20.00000     20.72900     20.00000        -0.000000      0.011579      0.000000
     18.76373     21.40988     20.00000         0.000523     -0.002636      0.000000
     17.55033     20.69676     20.00000         0.017210      0.006339      0.000000
     17.55033     19.30332     20.00000         0.017210     -0.006339     -0.000000
     18.76369     18.59016     20.00000         0.000523      0.002636     -0.000000
     20.00000     19.27100     20.00000        -0.000000     -0.011579      0.000000
     21.23627     18.59012     20.00000        -0.000523      0.002636     -0.000000
     21.24247     17.49989     20.00000         0.014373      0.007754      0.000000
     18.75745     17.49993     20.00000        -0.014373      0.007754      0.000000
     16.60942     18.75622     20.00000        -0.003599      0.005277      0.000000
     16.60946     21.24390     20.00000        -0.003599     -0.005277     -0.000000
     18.75753     22.50011     20.00000        -0.014373     -0.007754     -0.000000
     21.24255     22.50007     20.00000         0.014373     -0.007754     -0.000000
     23.39058     21.24378     20.00000         0.003599     -0.005277     -0.000000
     23.39054     18.75614     20.00000         0.003599      0.005277      0.000000
 -----------------------------------------------------------------------------------
    total drift:                               -0.001524     -0.002361     -0.000000


--------------------------------------------------------------------------------------------------------



  FREE ENERGIE OF THE ION-ELECTRON SYSTEM (eV)
  ---------------------------------------------------
  free  energy   TOTEN  =      -113.94609217 eV

  energy  without entropy=     -113.94609217  energy(sigma->0) =     -113.94609217
 
 d Force = 0.2418775E-03[ 0.647E-04, 0.419E-03]  d Energy =-0.1302245E-02 0.154E-02
 d Force = 0.5853911E+00[ 0.585E+00, 0.586E+00]  d Ewald  = 0.5853909E+00 0.195E-06


--------------------------------------------------------------------------------------------------------


    POTLOK:  cpu time    281.1184: real time    281.1271


--------------------------------------------------------------------------------------------------------


 Conjugate gradient step on ions:
 trial-energy change:    0.001302  1 .order   -0.000242   -0.000419   -0.000065
  (g-gl).g = 0.555E-03      g.g   = 0.149E-02  gl.gl    = 0.228E-02
 g(Force)  = 0.149E-02   g(Stress)= 0.000E+00 ortho     =-0.344E-04
 gamma     =   0.24401
 trial     =   0.28360
 opt step  =   0.33541  (harmonic =   0.33541) maximal distance =0.00119487
 next E    =  -113.947642   (d E  =  -0.00025)


--------------------------------------------------------------------------------------------------------


  
 reached required accuracy - stopping structural energy minimisation
 writing wavefunctions
     LOOP+:  cpu time   2387.1297: real time   2388.8230
    4ORBIT:  cpu time      0.0000: real time      0.0000

 total amount of memory used by VASP MPI-rank0   519378. kBytes
=======================================================================

   base      :      30000. kBytes
   nonlr-proj:       1043. kBytes
   fftplans  :     131430. kBytes
   grid      :     332629. kBytes
   one-center:         12. kBytes
   wavefun   :      24264. kBytes
 
  
  
 General timing and accounting informations for this job:
 ========================================================
  
                  Total CPU time used (sec):    23755.789
                            User time (sec):    10124.304
                          System time (sec):    13631.484
                         Elapsed time (sec):    23760.271
  
                   Maximum memory used (kb):     1587588.
                   Average memory used (kb):          N/A
  
                          Minor page faults:     77048176
                          Major page faults:            0
                 Voluntary context switches:         5698
