
                                 *****************
                                 * O   R   C   A *
                                 *****************

                                            #,                                       
                                            ###                                      
                                            ####                                     
                                            #####                                    
                                            ######                                   
                                           ########,                                 
                                     ,,################,,,,,                         
                               ,,#################################,,                 
                          ,,##########################################,,             
                       ,#########################################, ''#####,          
                    ,#############################################,,   '####,        
                  ,##################################################,,,,####,       
                ,###########''''           ''''###############################       
              ,#####''   ,,,,##########,,,,          '''####'''          '####       
            ,##' ,,,,###########################,,,                        '##       
           ' ,,###''''                  '''############,,,                           
         ,,##''                                '''############,,,,        ,,,,,,###''
      ,#''                                            '''#######################'''  
     '                                                          ''''####''''         
             ,#######,   #######,   ,#######,      ##                                
            ,#'     '#,  ##    ##  ,#'     '#,    #''#        ,####,   ,####,        
            ##       ##  ##   ,#'  ##            #'  '#       #'       #'  '#        
            ##       ##  #######   ##           ,######,      #####,   #    #        
            '#,     ,#'  ##    ##  '#,     ,#' ,#      #,     #,   #   #,  ,#        
             '#######'   ##     ##  '#######'  #'      '#     '####' # '####'        



                #########################################################
                #                        -***-                          #
                #          Department of theory and spectroscopy        #
                #                                                       #
                #                      Frank Neese                      #
                #                                                       #
                #     Directorship, Architecture, Infrastructure        #
                #                    SHARK, DRIVERS                     #
                #        Core code/Algorithms in most modules           #
                #                                                       #
                #        Max Planck Institute fuer Kohlenforschung      #
                #                Kaiser Wilhelm Platz 1                 #
                #                 D-45470 Muelheim/Ruhr                 #
                #                      Germany                          #
                #                                                       #
                #                  All rights reserved                  #
                #                        -***-                          #
                #########################################################


                         Program Version 6.0.0  -   RELEASE  -


 With contributions from (in alphabetic order):
   Daniel Aravena         : Magnetic Suceptibility
   Michael Atanasov       : Ab Initio Ligand Field Theory (pilot matlab implementation)
   Alexander A. Auer      : GIAO ZORA, VPT2 properties, NMR spectrum
   Ute Becker             : All parallelization in ORCA, NUMFREQ, NUMCALC
   Giovanni Bistoni       : ED, misc. LED, open-shell LED, HFLD
   Martin Brehm           : Molecular dynamics
   Dmytro Bykov           : pre 5.0 version of the SCF Hessian
   Marcos Casanova-Páez   : Triplet and SCS-CIS(D). UHF-(DLPNO)-IP/EA/STEOM-CCSD. UHF-CVS-IP/STEOM-CCSD
   Vijay G. Chilkuri      : MRCI spin determinant printing, contributions to CSF-ICE
   Pauline Colinet        : FMM embedding
   Dipayan Datta          : RHF DLPNO-CCSD density
   Achintya Kumar Dutta   : EOM-CC, STEOM-CC
   Nicolas Foglia         : Exact transition moments, OPA infrastructure, MCD improvements
   Dmitry Ganyushin       : Spin-Orbit,Spin-Spin,Magnetic field MRCI
   Miquel Garcia          : C-PCM and meta-GGA Hessian, CCSD/C-PCM, Gaussian charge scheme
   Tiago L. C. Gouveia    : GS-ROHF, GS-ROCIS
   Yang Guo               : DLPNO-NEVPT2, F12-NEVPT2, CIM, IAO-localization
   Andreas Hansen         : Spin unrestricted coupled pair/coupled cluster methods
   Ingolf Harden          : AUTO-CI MPn and infrastructure 
   Benjamin Helmich-Paris : MC-RPA, TRAH-(SCF,CASSCF), AVAS, COSX integrals, SCF dyn. polar.
   Lee Huntington         : MR-EOM, pCC
   Robert Izsak           : Overlap fitted RIJCOSX, COSX-SCS-MP3, EOM
   Riya Kayal             : Wick's Theorem for AUTO-CI, AUTO-CI UHF-CCSDT
   Emily Kempfer          : AUTO-CI, RHF CISDT and CCSDT
   Christian Kollmar      : KDIIS, OOCD, Brueckner-CCSD(T), CCSD density, CASPT2, CASPT2-K, improved NEVPT2
   Axel Koslowski         : Symmetry handling
   Simone Kossmann        : Meta GGA functionals, TD-DFT gradient, OOMP2, (MP2 Hessian; deprecated post 5.0)
   Lucas Lang             : DCDCAS
   Marvin Lechner         : AUTO-CI (C++ implementation), FIC-MRCC
   Spencer Leger          : CASSCF response
   Dagmar Lenk            : GEPOL surface, SMD, ORCA-2-JSON
   Dimitrios Liakos       : Extrapolation schemes; Compound Job, initial MDCI parallelization
   Dimitrios Manganas     : Further ROCIS development; embedding schemes. LFT, Crystal Embedding
   Dimitrios Pantazis     : SARC Basis sets
   Anastasios Papadopoulos: AUTO-CI, single reference methods and gradients
   Taras Petrenko         : pre 6.0 DFT Hessian and TD-DFT gradient, (ASA, deprecated), ECA, 1-Electron XAS/XES, NRVS
   Peter Pinski           : DLPNO-MP2, DLPNO-MP2 Gradient
   Christoph Reimann      : Effective Core Potentials
   Marius Retegan         : Local ZFS, SOC
   Christoph Riplinger    : Optimizer, TS searches, QM/MM, DLPNO-CCSD(T), (RO)-DLPNO pert. Triples
   Michael Roemelt        : Original ROCIS implementation
   Masaaki Saitow         : Open-shell DLPNO-CCSD energy and density
   Barbara Sandhoefer     : DKH picture change effects
   Kantharuban Sivalingam : CASSCF convergence/infrastructure, NEVPT2 and variants, FIC-MRCI
   Bernardo de Souza      : ESD, SOC TD-DFT
   Georgi Stoychev        : AutoAux, RI-MP2 NMR, DLPNO-MP2 response, X2C
   Van Anh Tran           : RI-MP2 g-tensors
   Willem Van den Heuvel  : Paramagnetic NMR
   Zikuan Wang            : NOTCH, Electric field optimization 
   Frank Wennmohs         : Technical directorship and infrastructure
   Hang Xu                : AUTO-CI-Response properties 


 We gratefully acknowledge several colleagues who have allowed us to
 interface, adapt or use parts of their codes:
   Stefan Grimme, W. Hujo, H. Kruse, P. Pracht,  : VdW corrections, initial TS optimization,
                  C. Bannwarth, S. Ehlert,         DFT functionals, gCP, sTDA/sTD-DF
                  L. Wittmann, M. Mueller
   Ed Valeev, F. Pavosevic, A. Kumar             : LibInt (2-el integral package), F12 methods
   Garnet Chan, S. Sharma, J. Yang, R. Olivares  : DMRG
   Ulf Ekstrom                                   : XCFun DFT Library
   Mihaly Kallay                                 : mrcc  (arbitrary order and MRCC methods)
   Frank Weinhold                                : gennbo (NPA and NBO analysis)
   Simon Mueller                                 : openCOSMO-RS
   Christopher J. Cramer and Donald G. Truhlar   : smd solvation model
   Lars Goerigk                                  : TD-DFT with DH, B97 family of functionals
   V. Asgeirsson, H. Jonsson                     : NEB implementation
   FAccTs GmbH                                   : IRC, NEB, NEB-TS, DLPNO-Multilevel, CI-OPT
                                                   MM, QMMM, 2- and 3-layer-ONIOM, Crystal-QMMM,
                                                   LR-CPCM, SF, NACMEs, symmetry and pop. for TD-DFT,
                                                   nearIR, NL-DFT gradient (VV10), updates on ESD,
                                                   ML-optimized integration grids, MBIS, APM,
                                                   GOAT, DOCKER, SOLVATOR, interface openCOSMO-RS
   S Lehtola, MJT Oliveira, MAL Marques          : LibXC Library
   Liviu Ungur et al                             : ANISO software


 Your calculation uses the libint2 library for the computation of 2-el integrals
 For citations please refer to: http://libint.valeyev.net

 Your ORCA version has been built with support for libXC version: 6.2.2
 For citations please refer to: https://libxc.gitlab.io

 This ORCA versions uses:
   CBLAS   interface :  Fast vector & matrix operations
   LAPACKE interface :  Fast linear algebra routines
   SCALAPACK package :  Parallel linear algebra routines
   Shared memory     :  Shared parallel matrices
   BLAS/LAPACK       :  OpenBLAS 0.3.27  USE64BITINT DYNAMIC_ARCH NO_AFFINITY SkylakeX SINGLE_THREADED
        Core in use  :  SkylakeX
   Copyright (c) 2011-2014, The OpenBLAS Project


NOTE: MaxCore=3000 MB was set to SCF,MP2,MDCI,CIPSI,MRCI and CIS
      => If you want to overwrite this, your respective input block should be placed after the MaxCore statement
Your calculation utilizes the atom-pairwise dispersion correction
with the Becke-Johnson damping scheme (D3BJ)


Your calculation utilizes the SMD solvation module
Please cite in your paper:
A.V. Marenich, C.J. Cramer, D.G. Truhlar J. Phys. Chem. B, 113, (2009), 6378 

Warning: RI is on but no J-basis has been assigned. Assigning Def2/J (nothing to worry about!)
================================================================================

----- Orbital basis set information -----
Your calculation utilizes the basis: aug-cc-pVTZ 
    H, B-Ne : Obtained from the ccRepo (grant-hill.group.shef.ac.uk/ccrepo) Feb. 2017
              R. A. Kendall, T. H. Dunning, Jr., R. J. Harrison, J. Chem. Phys. 96, 6796 (1992)
         He : Obtained from the ccRepo (grant-hill.group.shef.ac.uk/ccrepo) Feb. 2017
              D. E. Woon, T. H. Dunning, Jr., J. Chem. Phys. 100, 2975 (1994)
  Li-Be, Na : Obtained from the ccRepo (grant-hill.group.shef.ac.uk/ccrepo) Feb. 2017
              B. P. Prascher, D. E. Woon, K. A. Peterson, T. H. Dunning, Jr., A. K. Wilson, Theor. Chem. Acc. 128, 69 (2011)
         Mg : Obtained from the Peterson Research Group Website (tyr0.chem.wsu.edu/~kipeters) Feb. 2017
              B. P. Prascher, D. E. Woon, K. A. Peterson, T. H. Dunning, Jr., A. K. Wilson, Theor. Chem. Acc. 128, 69 (2011)
      Al-Ar : Obtained from the ccRepo (grant-hill.group.shef.ac.uk/ccrepo) Feb. 2017
              D. E. Woon, T. H. Dunning, Jr., J. Chem. Phys. 98, 1358 (1993)
      Sc-Zn : Obtained from the ccRepo (grant-hill.group.shef.ac.uk/ccrepo) Feb. 2017
              N. B. Balabanov, K. A. Peterson, J. Chem. Phys. 123, 064107 (2005)
              N. B. Balabanov, K. A. Peterson, J. Chem. Phys. 125, 074110 (2006)
      Ga-Kr : Obtained from the ccRepo (grant-hill.group.shef.ac.uk/ccrepo) Feb. 2017
              A. K. Wilson, D. E. Woon, K. A. Peterson, T. H. Dunning, Jr., J. Chem. Phys. 110, 7667 (1999)
     Ag, Au : Obtained from the Peterson Research Group Website (tyr0.chem.wsu.edu/~kipeters) Feb. 2017
              K. A. Peterson, C. Puzzarini, Theor. Chem. Acc. 114, 283 (2005)

----- AuxJ basis set information -----
Your calculation utilizes the auxiliary basis: def2/J
   F. Weigend, Phys. Chem. Chem. Phys. 8, 1057 (2006).

================================================================================
                                        WARNINGS
                       Please study these warnings very carefully!
================================================================================

Using LibXC functional ID 497 : Re-regularized SCAN exchange by Furness et al
[ 1]  J. W. Furness, A. D. Kaplan, J. Ning, J. P. Perdew, and J. Sun.,  J. Phys. Chem. Lett. 11, 8208-8215 (2020)
[ 2]  J. W. Furness, A. D. Kaplan, J. Ning, J. P. Perdew, and J. Sun.,  J. Phys. Chem. Lett. 11, 9248-9248 (2020)
Using LibXC functional ID 498 : Re-regularized SCAN correlation by Furness et al
[ 1]  J. W. Furness, A. D. Kaplan, J. Ning, J. P. Perdew, and J. Sun.,  J. Phys. Chem. Lett. 11, 8208-8215 (2020)
[ 2]  J. W. Furness, A. D. Kaplan, J. Ning, J. P. Perdew, and J. Sun.,  J. Phys. Chem. Lett. 11, 9248-9248 (2020)
Using LibXC functional ID 497 : Re-regularized SCAN exchange by Furness et al
[ 1]  J. W. Furness, A. D. Kaplan, J. Ning, J. P. Perdew, and J. Sun.,  J. Phys. Chem. Lett. 11, 8208-8215 (2020)
[ 2]  J. W. Furness, A. D. Kaplan, J. Ning, J. P. Perdew, and J. Sun.,  J. Phys. Chem. Lett. 11, 9248-9248 (2020)
Using LibXC functional ID 498 : Re-regularized SCAN correlation by Furness et al
[ 1]  J. W. Furness, A. D. Kaplan, J. Ning, J. P. Perdew, and J. Sun.,  J. Phys. Chem. Lett. 11, 8208-8215 (2020)
[ 2]  J. W. Furness, A. D. Kaplan, J. Ning, J. P. Perdew, and J. Sun.,  J. Phys. Chem. Lett. 11, 9248-9248 (2020)

WARNING: your system is open-shell and RHF/RKS was chosen
  ===> : WILL SWITCH to UHF/UKS


================================================================================
                                       INPUT FILE
================================================================================
NAME = cs_rporg_142_red_solv_04.inp
|  1> !r2SCANh aug-cc-pVTZ d3 TightSCF SlowConv RIJCOSX defgrid2
|  2>  
|  3> %pal
|  4> nprocs 4
|  5> end
|  6>  
|  7> %scf
|  8> MaxIter 1500
|  9> end
| 10>  
| 11> %maxcore 3000
| 12>  
| 13> !CPCM
| 14> %cpcm smd true
| 15> SMDsolvent "MeCN"
| 16> surfacetype gepol_ses
| 17> rsolv 2.19
| 18> end 
| 19>  
| 20> * xyz -1 2
| 21> C          -0.04188476412109      1.20649591058260     -0.03059416435324
| 22> C          -1.42758997777244      1.20900092946328     -0.03204837740890
| 23> C          -2.18692767221781      0.02207756810286      0.00778089457379
| 24> C          -1.45245337452024     -1.19449457929778      0.04973241541109
| 25> C          -0.07593539048064     -1.21797796728122      0.05192894437349
| 26> C           0.70678686425334     -0.01719078736669      0.01222307749959
| 27> C           2.13722784115349     -0.10484845335572      0.01744599702996
| 28> O           2.77208408754572     -1.18919588733710      0.05436257040856
| 29> C           2.92761835814378      1.20197912887557     -0.02401472346093
| 30> H           3.99999527748817      0.94544780793909     -0.00555889368703
| 31> H           2.70732243738998      1.86415452535943      0.83824522074103
| 32> H           2.72299463114472      1.79839278568954     -0.93685074419013
| 33> H           0.47712353923980     -2.16170105523587      0.08479607463559
| 34> H          -2.00439456793065     -2.14494416213367      0.08164110604136
| 35> C          -3.68607504217989      0.02910769331193      0.00570061758528
| 36> H          -4.12174618431185     -0.45223229822142      0.90826315907933
| 37> H          -4.07802845542654      1.06256533456533     -0.02773326831382
| 38> H          -4.11993664787437     -0.50875039977053     -0.86531963898993
| 39> H          -1.95661019184379      2.17233863527966     -0.06580811854855
| 40> H           0.48615773232032      2.16549327083070     -0.06358124842653
| 41> *
| 42> 
| 43>                          ****END OF INPUT****
================================================================================

                       ****************************
                       * Single Point Calculation *
                       ****************************

---------------------------------
CARTESIAN COORDINATES (ANGSTROEM)
---------------------------------
  C     -0.041885    1.206496   -0.030594
  C     -1.427590    1.209001   -0.032048
  C     -2.186928    0.022078    0.007781
  C     -1.452453   -1.194495    0.049732
  C     -0.075935   -1.217978    0.051929
  C      0.706787   -0.017191    0.012223
  C      2.137228   -0.104848    0.017446
  O      2.772084   -1.189196    0.054363
  C      2.927618    1.201979   -0.024015
  H      3.999995    0.945448   -0.005559
  H      2.707322    1.864155    0.838245
  H      2.722995    1.798393   -0.936851
  H      0.477124   -2.161701    0.084796
  H     -2.004395   -2.144944    0.081641
  C     -3.686075    0.029108    0.005701
  H     -4.121746   -0.452232    0.908263
  H     -4.078028    1.062565   -0.027733
  H     -4.119937   -0.508750   -0.865320
  H     -1.956610    2.172339   -0.065808
  H      0.486158    2.165493   -0.063581

----------------------------
CARTESIAN COORDINATES (A.U.)
----------------------------
  NO LB      ZA    FRAG     MASS         X           Y           Z
   0 C     6.0000    0    12.011   -0.079151    2.279947   -0.057815
   1 C     6.0000    0    12.011   -2.697754    2.284681   -0.060563
   2 C     6.0000    0    12.011   -4.132694    0.041721    0.014704
   3 C     6.0000    0    12.011   -2.744739   -2.257268    0.093981
   4 C     6.0000    0    12.011   -0.143497   -2.301645    0.098131
   5 C     6.0000    0    12.011    1.335634   -0.032486    0.023098
   6 C     6.0000    0    12.011    4.038775   -0.198135    0.032968
   7 O     8.0000    0    15.999    5.238480   -2.247255    0.102730
   8 C     6.0000    0    12.011    5.532397    2.271411   -0.045381
   9 H     1.0000    0     1.008    7.558896    1.786637   -0.010505
  10 H     1.0000    0     1.008    5.116098    3.522742    1.584054
  11 H     1.0000    0     1.008    5.145714    3.398470   -1.770391
  12 H     1.0000    0     1.008    0.901633   -4.085023    0.160241
  13 H     1.0000    0     1.008   -3.787757   -4.053357    0.154279
  14 C     6.0000    0    12.011   -6.965672    0.055006    0.010773
  15 H     1.0000    0     1.008   -7.788971   -0.854595    1.716369
  16 H     1.0000    0     1.008   -7.706357    2.007957   -0.052408
  17 H     1.0000    0     1.008   -7.785552   -0.961399   -1.635217
  18 H     1.0000    0     1.008   -3.697457    4.105125   -0.124359
  19 H     1.0000    0     1.008    0.918705    4.092189   -0.120151

--------------------------------
INTERNAL COORDINATES (ANGSTROEM)
--------------------------------
 C      0   0   0     0.000000000000     0.00000000     0.00000000
 C      1   0   0     1.385708240935     0.00000000     0.00000000
 C      2   1   0     1.409598230297   122.48901209     0.00000000
 C      3   2   1     1.421710312936   116.30007146     0.00000000
 C      4   3   2     1.376720034951   122.08526592     0.00000000
 C      5   4   3     1.433917897011   122.10375855     0.00000000
 C      6   5   4     1.433133815696   119.57190553   179.96294047
 O      7   6   5     1.257065887118   123.84508687     0.05679039
 C      7   6   5     1.527820176059   117.64186446   180.07816787
 H      9   7   6     1.102787918603   107.67628194   179.54783295
 H      9   7   6     1.109278486127   112.75330293    59.76699487
 H      9   7   6     1.109436668055   112.75151363   299.26796238
 H      5   4   3     1.094334361488   121.33678009   179.97908732
 H      4   3   2     1.099550660513   118.76423133   180.00161048
 C      3   2   1     1.499165296783   122.32334055   180.01624121
 H     15   3   2     1.111807839891   112.87344537   239.87757700
 H     15   3   2     1.105793832117   111.03110051   359.85923098
 H     15   3   2     1.111846890788   112.89421591   119.84315140
 H      2   1   3     1.099555202100   118.86431198   180.01796555
 H      1   2   3     1.095259313006   118.71812220   179.95696740

---------------------------
INTERNAL COORDINATES (A.U.)
---------------------------
 C      0   0   0     0.000000000000     0.00000000     0.00000000
 C      1   0   0     2.618609076885     0.00000000     0.00000000
 C      2   1   0     2.663754614121   122.48901209     0.00000000
 C      3   2   1     2.686643133221   116.30007146     0.00000000
 C      4   3   2     2.601623829140   122.08526592     0.00000000
 C      5   4   3     2.709712123878   122.10375855     0.00000000
 C      6   5   4     2.708230424926   119.57190553   179.96294047
 O      7   6   5     2.375510258947   123.84508687     0.05679039
 C      7   6   5     2.887161714630   117.64186446   180.07816787
 H      9   7   6     2.083967149957   107.67628194   179.54783295
 H      9   7   6     2.096232545031   112.75330293    59.76699487
 H      9   7   6     2.096531465555   112.75151363   299.26796238
 H      5   4   3     2.067992242152   121.33678009   179.97908732
 H      4   3   2     2.077849618741   118.76423133   180.00161048
 C      3   2   1     2.833011840398   122.32334055   180.01624121
 H     15   3   2     2.101012330941   112.87344537   239.87757700
 H     15   3   2     2.089647503280   111.03110051   359.85923098
 H     15   3   2     2.101086126441   112.89421591   119.84315140
 H      2   1   3     2.077858201098   118.86431198   180.01796555
 H      1   2   3     2.069740147208   118.71812220   179.95696740

---------------------
BASIS SET INFORMATION
---------------------
There are 3 groups of distinct atoms

 Group   1 Type C   : 19s6p3d2f contracted to 5s4p3d2f pattern {88111/3111/111/11}
 Group   2 Type O   : 19s6p3d2f contracted to 5s4p3d2f pattern {88111/3111/111/11}
 Group   3 Type H   : 6s3p2d contracted to 4s3p2d pattern {3111/111/11}

Atom   0C    basis set group =>   1
Atom   1C    basis set group =>   1
Atom   2C    basis set group =>   1
Atom   3C    basis set group =>   1
Atom   4C    basis set group =>   1
Atom   5C    basis set group =>   1
Atom   6C    basis set group =>   1
Atom   7O    basis set group =>   2
Atom   8C    basis set group =>   1
Atom   9H    basis set group =>   3
Atom  10H    basis set group =>   3
Atom  11H    basis set group =>   3
Atom  12H    basis set group =>   3
Atom  13H    basis set group =>   3
Atom  14C    basis set group =>   1
Atom  15H    basis set group =>   3
Atom  16H    basis set group =>   3
Atom  17H    basis set group =>   3
Atom  18H    basis set group =>   3
Atom  19H    basis set group =>   3
---------------------------------
AUXILIARY/J BASIS SET INFORMATION
---------------------------------
There are 3 groups of distinct atoms

 Group   1 Type C   : 12s5p4d2f1g contracted to 6s4p3d1f1g pattern {711111/2111/211/2/1}
 Group   2 Type O   : 12s5p4d2f1g contracted to 6s4p3d1f1g pattern {711111/2111/211/2/1}
 Group   3 Type H   : 5s2p1d contracted to 3s1p1d pattern {311/2/1}

Atom   0C    basis set group =>   1
Atom   1C    basis set group =>   1
Atom   2C    basis set group =>   1
Atom   3C    basis set group =>   1
Atom   4C    basis set group =>   1
Atom   5C    basis set group =>   1
Atom   6C    basis set group =>   1
Atom   7O    basis set group =>   2
Atom   8C    basis set group =>   1
Atom   9H    basis set group =>   3
Atom  10H    basis set group =>   3
Atom  11H    basis set group =>   3
Atom  12H    basis set group =>   3
Atom  13H    basis set group =>   3
Atom  14C    basis set group =>   1
Atom  15H    basis set group =>   3
Atom  16H    basis set group =>   3
Atom  17H    basis set group =>   3
Atom  18H    basis set group =>   3
Atom  19H    basis set group =>   3


           ************************************************************
           *        Program running with 4 parallel MPI-processes     *
           *              working on a common directory               *
           ************************************************************
------------------------------------------------------------------------------
                             ORCA STARTUP CALCULATIONS
                           -- RI-GTO INTEGRALS CHOSEN --
------------------------------------------------------------------------------
------------------------------------------------------------------------------
                   ___                                                        
                  /   \      - P O W E R E D   B Y -                         
                 /     \                                                     
                 |  |  |   _    _      __       _____    __    __             
                 |  |  |  | |  | |    /  \     |  _  \  |  |  /  |          
                  \  \/   | |  | |   /    \    | | | |  |  | /  /          
                 / \  \   | |__| |  /  /\  \   | |_| |  |  |/  /          
                |  |  |   |  __  | /  /__\  \  |    /   |      \           
                |  |  |   | |  | | |   __   |  |    \   |  |\   \          
                \     /   | |  | | |  |  |  |  | |\  \  |  | \   \       
                 \___/    |_|  |_| |__|  |__|  |_| \__\ |__|  \__/        
                                                                              
                      - O R C A' S   B I G   F R I E N D -                    
                                      &                                       
                       - I N T E G R A L  F E E D E R -                       
                                                                              
 v1 FN, 2020, v2 2021, v3 2022-2024                                           
------------------------------------------------------------------------------


----------------------
SHARK INTEGRAL PACKAGE
----------------------

Number of atoms                             ...     20
Number of basis functions                   ...    750
Number of shells                            ...    290
Maximum angular momentum                    ...      3
Integral batch strategy                     ... SHARK/LIBINT Hybrid
RI-J (if used) integral strategy            ... SPLIT-RIJ (Revised 2003 algorithm where possible)
Printlevel                                  ...      1
Contraction scheme used                     ... PARTIAL GENERAL contraction
Prescreening option                         ... SCHWARTZ
   Thresh                                   ... 2.500e-11
   Tcut                                     ... 2.500e-12
   Tpresel                                  ... 2.500e-12 
Coulomb Range Separation                    ... NOT USED
Exchange Range Separation                   ... NOT USED
Multipole approximations                    ... NOT USED
Finite Nucleus Model                        ... NOT USED
CABS basis                                  ... NOT available
Auxiliary Coulomb fitting basis             ... AVAILABLE
   # of basis functions in Aux-J            ...    600
   # of shells in Aux-J                     ...    200
   Maximum angular momentum in Aux-J        ...      4
Auxiliary J/K fitting basis                 ... NOT available
Auxiliary Correlation fitting basis         ... NOT available
Auxiliary 'external' fitting basis          ... NOT available

Checking pre-screening integrals            ... done (  0.0 sec) Dimension = 290
Save PGC pre-screening integrals            ... done (  0.1 sec) Dimension = 290
Calculate PGC overlap integrals             ... done (  0.2 sec) Dimension = 230
Calculating pre-screening integrals (ORCA)  ... done (  0.3 sec) Dimension = 230
Check shell pair data                       ... done (  0.0 sec)
Shell pair information
Shell pair cut-off parameter TPreSel        ...   2.5e-12
Total number of shell pairs                 ...     42195
Shell pairs after pre-screening             ...     34626
Total number of primitive shell pairs       ...     54675
Primitive shell pairs kept                  ...     41506
          la=0 lb=0:   7872 shell pairs
          la=1 lb=0:   8884 shell pairs
          la=1 lb=1:   2285 shell pairs
          la=2 lb=0:   6206 shell pairs
          la=2 lb=1:   3183 shell pairs
          la=2 lb=2:   1142 shell pairs
          la=3 lb=0:   2609 shell pairs
          la=3 lb=1:   1311 shell pairs
          la=3 lb=2:    932 shell pairs
          la=3 lb=3:    202 shell pairs

Calculating one electron integrals          ... done (  0.1 sec)
Calculating RI/J V-Matrix + Cholesky decomp.... done (  0.1 sec)
Calculating Nuclear repulsion               ... done (  0.0 sec) ENN=    477.663969544769 Eh

Diagonalization of the overlap matrix:
Smallest eigenvalue                        ... 4.886e-07
Time for diagonalization                   ...    0.077 sec
Threshold for overlap eigenvalues          ... 1.000e-07
Number of eigenvalues below threshold      ... 0

IMPORTANT:
Smallest eigenvalue of S below the DiffSThresh (1.000e-06) while
Thresh>1e-12 and/or TCut>1e-13! In order to avoid SCF convergence issues,
Thresh will be set to at least 1e-12 and TCut to at least 1e-13.
This can be turned off by adding %SCF DiffSThresh -1 END to the input.

Time for construction of square roots      ...    0.071 sec
Total time needed                          ...    0.172 sec

-------------------
DFT GRID GENERATION
-------------------

General Integration Accuracy     IntAcc      ... 4.388
Radial Grid Type                 RadialGrid  ... OptM3 with GC (2021)
Angular Grid (max. ang.)         AngularGrid ... 4 (Lebedev-302)
Angular grid pruning method      GridPruning ... 4 (adaptive)
Weight generation scheme         WeightScheme... mBecke (2022)
Basis function cutoff            BFCut       ... 1.0000e-11
Integration weight cutoff        WCut        ... 1.0000e-14
Partially contracted basis set               ... off
Rotationally invariant grid construction     ... off
Angular grids for H and He will be reduced by one unit
Diffuse basis detected: some atoms will have their outermost
                        angular grid increased by 1.

Total number of grid points                  ...    96663
Total number of batches                      ...     1522
Average number of points per batch           ...       63
Average number of grid points per atom       ...     4833

---------------------
SHARK GRID GENERATION
---------------------

General Integration Accuracy     IntAcc      ... 4.388
Radial Grid Type                 RadialGrid  ... OptM3 with GC (2021)
Angular Grid (max. ang.)         AngularGrid ... 4 (Lebedev-302)
Angular grid pruning method      GridPruning ... 4 (adaptive)
Weight generation scheme         WeightScheme... mBecke (2022)
Basis function cutoff            BFCut       ... 1.0000e-11
Integration weight cutoff        WCut        ... 1.0000e-14
Partially contracted basis set               ... off
Rotationally invariant grid construction     ... off
Angular grids for H and He will be reduced by one unit
Diffuse basis detected: some atoms will have their outermost
                        angular grid increased by 1.
Steep s-basis detected: some atoms will have their radial
                        grid points doubled.

Total number of grid points                  ...   159662
Total number of batches                      ...     2504
Average number of points per batch           ...       63
Average number of grid points per atom       ...     7983

--------------------
COSX GRID GENERATION
--------------------

GRIDX 1
-------
General Integration Accuracy     IntAcc      ... 3.816
Radial Grid Type                 RadialGrid  ... OptM3 with GC (2021)
Angular Grid (max. ang.)         AngularGrid ... 1 (Lebedev-50)
Angular grid pruning method      GridPruning ... 4 (adaptive)
Weight generation scheme         WeightScheme... mBecke (2022)
Basis function cutoff            BFCut       ... 1.0000e-11
Integration weight cutoff        WCut        ... 1.0000e-14
Partially contracted basis set               ... on
Rotationally invariant grid construction     ... off
Angular grids for H and He will be reduced by one unit
Diffuse basis detected: some atoms will have their outermost
                        angular grid increased by 1.

Total number of grid points                  ...    12157
Total number of batches                      ...      105
Average number of points per batch           ...      115
Average number of grid points per atom       ...      608
UseSFitting                                  ... on

GRIDX 2
-------
General Integration Accuracy     IntAcc      ... 4.020
Radial Grid Type                 RadialGrid  ... OptM3 with GC (2021)
Angular Grid (max. ang.)         AngularGrid ... 2 (Lebedev-110)
Angular grid pruning method      GridPruning ... 4 (adaptive)
Weight generation scheme         WeightScheme... mBecke (2022)
Basis function cutoff            BFCut       ... 1.0000e-11
Integration weight cutoff        WCut        ... 1.0000e-14
Partially contracted basis set               ... on
Rotationally invariant grid construction     ... off
Angular grids for H and He will be reduced by one unit
Diffuse basis detected: some atoms will have their outermost
                        angular grid increased by 1.

Total number of grid points                  ...    29181
Total number of batches                      ...      238
Average number of points per batch           ...      122
Average number of grid points per atom       ...     1459
UseSFitting                                  ... on

GRIDX 3
-------
General Integration Accuracy     IntAcc      ... 4.338
Radial Grid Type                 RadialGrid  ... OptM3 with GC (2021)
Angular Grid (max. ang.)         AngularGrid ... 3 (Lebedev-194)
Angular grid pruning method      GridPruning ... 4 (adaptive)
Weight generation scheme         WeightScheme... mBecke (2022)
Basis function cutoff            BFCut       ... 1.0000e-11
Integration weight cutoff        WCut        ... 1.0000e-14
Partially contracted basis set               ... on
Rotationally invariant grid construction     ... off
Angular grids for H and He will be reduced by one unit
Diffuse basis detected: some atoms will have their outermost
                        angular grid increased by 1.

Total number of grid points                  ...    64997
Total number of batches                      ...      517
Average number of points per batch           ...      125
Average number of grid points per atom       ...     3250
UseSFitting                                  ... on
Initializing property integral containers    ... done (  0.0 sec)

SHARK setup successfully completed in   8.2 seconds

Maximum memory used throughout the entire STARTUP-calculation: 86.6 MB


           ************************************************************
           *        Program running with 4 parallel MPI-processes     *
           *              working on a common directory               *
           ************************************************************
-------------------------------------------------------------------------------
                                 ORCA GUESS
                   Start orbitals & Density for SCF / CASSCF
-------------------------------------------------------------------------------

------------
SCF SETTINGS
------------
Hamiltonian:
 Density Functional     Method          .... DFT(GTOs)
  Functional kind                       .... Exchange
  Functional name                       .... Re-regularized SCAN exchange by Furness et al
  Functional family                     .... MGGA
  Functional refs                              
    [ 0] J. W. Furness, A. D. Kaplan, J. Ning, J. P. Perdew, and J. Sun.,  J. Phys. Chem. Lett. 11, 8208-8215 (2020), doi: 10.1021/acs.jpclett.0c02405
    [ 1] J. W. Furness, A. D. Kaplan, J. Ning, J. P. Perdew, and J. Sun.,  J. Phys. Chem. Lett. 11, 9248-9248 (2020), doi: 10.1021/acs.jpclett.0c03077
  Functional external parameters        .... 6
    Parameter  0 _c1        =  6.670000e-01 : c1 parameter        
    Parameter  1 _c2        =  8.000000e-01 : c2 parameter        
    Parameter  2 _d         =  1.240000e+00 : d parameter         
    Parameter  3 _k1        =  6.500000e-02 : k1 parameter        
    Parameter  4 _eta       =  1.000000e-03 : eta parameter       
    Parameter  5 _dp2       =  3.610000e-01 : dp2 parameter       
  Functional kind                       .... Correlation
  Functional name                       .... Re-regularized SCAN correlation by Furness et al
  Functional family                     .... MGGA
  Functional refs                              
    [ 0] J. W. Furness, A. D. Kaplan, J. Ning, J. P. Perdew, and J. Sun.,  J. Phys. Chem. Lett. 11, 8208-8215 (2020), doi: 10.1021/acs.jpclett.0c02405
    [ 1] J. W. Furness, A. D. Kaplan, J. Ning, J. P. Perdew, and J. Sun.,  J. Phys. Chem. Lett. 11, 9248-9248 (2020), doi: 10.1021/acs.jpclett.0c03077
  Functional external parameters        .... 1
    Parameter  0 _eta       =  1.000000e-03 : Regularization parameter
 Gradients option       PostSCFGGA      .... off
 Hybrid DFT is turned on
   Fraction HF Exchange ScalHFX         ....  0.100000
   Scaling of DF-GGA-X  ScalDFX         ....  0.900000
   Scaling of DF-GGA-C  ScalDFC         ....  1.000000
   Scaling of DF-LDA-C  ScalLDAC        ....  1.000000
   Perturbative correction              ....  0.000000
   NL short-range parameter             .... 11.900000
 RI-approximation to the Coulomb term is turned on
   Number of AuxJ basis functions       .... 600
   RIJ-COSX (HFX calculated with COS-X)).... on


General Settings:
 Integral files         IntName         .... cs_rporg_142_red_solv_04
 Hartree-Fock type      HFTyp           .... UHF
 Total Charge           Charge          ....   -1
 Multiplicity           Mult            ....    2
 Number of Electrons    NEL             ....   73
 Basis Dimension        Dim             ....  690
 Nuclear Repulsion      ENuc            ....    477.6639695448 Eh

Convergence Acceleration:
 AO-DIIS                CNVDIIS         .... on
   Start iteration      DIISMaxIt       ....     0
   Startup error        DIISStart       ....  0.200000
   # of expansion vecs  DIISMaxEq       ....     5
   Bias factor          DIISBfac        ....   1.050
   Max. coefficient     DIISMaxC        ....  10.000
 MO-DIIS                CNVKDIIS        .... off
 Trust-Rad. Augm. Hess. CNVTRAH         .... auto
   Auto Start mean grad. ratio tolernc. ....  1.125000
   Auto Start start iteration           ....    50
   Auto Start num. interpolation iter.  ....    10
   Max. Number of Micro iterations      ....    24
   Max. Number of Macro iterations      .... Maxiter - #DIIS iter
   Number of Davidson start vectors     ....     2
   Converg. threshold    (grad. norm)   ....   1.000e-05
   Grad. Scal. Fac. for Micro threshold ....   0.100
   Minimum threshold for Micro iter.    ....   1.000e-02
   NR start threshold (gradient norm)   ....   1.000e-04
   Initial trust radius                 ....   0.400
   Minimum AH scaling param. (alpha)    ....   1.000
   Maximum AH scaling param. (alpha)    .... 1000.000
   Quad. conv. algorithm                .... NR
   White noise on init. David. guess    .... on
   Maximum white noise                  ....   0.010
   Pseudo random numbers                .... off
   Inactive MOs                         .... canonical
   Orbital update algorithm             .... Taylor
   Preconditioner                       .... Diag
   Full preconditioner red. dimension   ....   250
 SOSCF                  CNVSOSCF        .... on
   Start iteration      SOSCFMaxIt      ....   150
   Startup grad/error   SOSCFStart      ....  0.001000
   Hessian update       SOSCFHessUp     .... L-BFGS
 Level Shifting         CNVShift        .... on
   Level shift para.    LevelShift      ....    0.2500
   Turn off err/grad.   ShiftErr        ....    0.0000
 Zerner damping         CNVZerner       .... off
 Static damping         CNVDamp         .... on
   Fraction old density DampFac         ....    0.8500
   Max. Damping (<1)    DampMax         ....    0.9800
   Min. Damping (>=0)   DampMin         ....    0.0000
   Turn off err/grad.   DampErr         ....    0.0300

SCF Procedure:
 Maximum # iterations   MaxIter         ....  1500
 SCF integral mode      SCFMode         .... Direct
   Integral package                     .... SHARK and LIBINT hybrid scheme
 Reset frequency        DirectResetFreq ....    20
 Integral Threshold     Thresh          ....  1.000e-12 Eh
 Primitive CutOff       TCut            ....  1.000e-13 Eh

Convergence Tolerance:
 Convergence Check Mode ConvCheckMode   .... Total+1el-Energy
 Convergence forced     ConvForced      .... 0
 Energy Change          TolE            ....  1.000e-08 Eh
 1-El. energy change                    ....  1.000e-05 Eh
 Orbital Gradient       TolG            ....  1.000e-05
 Orbital Rotation angle TolX            ....  1.000e-05
 DIIS Error             TolErr          ....  5.000e-07

------------------------------
INITIAL GUESS: MODEL POTENTIAL
------------------------------
Loading Hartree-Fock densities                     ... done
Calculating cut-offs                               ... done
Initializing the effective Hamiltonian             ... done
Setting up the integral package (SHARK)            ... done
Starting the Coulomb interaction                   ... done (   0.5 sec)
Making the grid                                    ... done (   0.4 sec)
Mapping shells                                     ... done
Starting the XC term evaluation                    ... done (   0.7 sec)
  promolecular density results
     # of electrons  =     71.998348559
     EX              =    -57.051228892
     EC              =     -2.368117057
     EX+EC           =    -59.419345949
Transforming the Hamiltonian                       ... done (   0.0 sec)
Diagonalizing the Hamiltonian                      ... done (   0.1 sec)
Back transforming the eigenvectors                 ... done (   0.1 sec)
Now organizing SCF variables                       ... done
                      ------------------
                      INITIAL GUESS DONE (   2.0 sec)
                      ------------------
             **** ENERGY FILE WAS UPDATED (cs_rporg_142_red_solv_04.en.tmp) ****
Finished Guess after   3.1 sec
Maximum memory used throughout the entire GUESS-calculation: 62.1 MB


           ************************************************************
           *        Program running with 4 parallel MPI-processes     *
           *              working on a common directory               *
           ************************************************************

-------------------------------------------------------------------------------------------
                                      ORCA LEAN-SCF
                              memory conserving SCF solver
-------------------------------------------------------------------------------------------

--------------------
CPCM SOLVATION MODEL
--------------------
CPCM parameters:
  Epsilon                                         ...      35.6880
  Refrac                                          ...       1.3442
  Rsolv                                           ...       2.1900
  Surface type                                    ...    GEPOL SES
  Discretization scheme                           ... Constant num. charges
  Epsilon function type                           ...         CPCM
Solvent:                                          ... ACETONITRILE
SMD-CDS solvent descriptors:
  Soln                                            ...       1.3442
  Soln25                                          ...       1.3416
  Sola                                            ...       0.0700
  Solb                                            ...       0.3200
  Solg                                            ...      41.2500
  Solc                                            ...       0.0000
  Solh                                            ...       0.0000
Radii:
  Scheme                                          ... Element-dependent radii
  Radius for C  used is    3.4960 Bohr (=   1.8500 Ang.)
  Radius for O  used is    4.0969 Bohr (=   2.1680 Ang.)
  Radius for H  used is    2.2677 Bohr (=   1.2000 Ang.)
Calculating surface                               ...        done! (  0.0s)
Cavity surface points                             ...          673
Cavity Volume                                     ...    1152.1161
Cavity Surface-area                               ...     654.0333
Calculating surface distance matrix               ...        done! (  0.0s)
Performing Cholesky decomposition & store         ...        done! (  0.0s)
Overall time for CPCM initialization              ...                 0.1s

----------------------------------------D-I-I-S--------------------------------------------
Iteration    Energy (Eh)           Delta-E    RMSDP     MaxDP     DIISErr   Damp  Time(sec)
-------------------------------------------------------------------------------------------
               ***  Starting incremental Fock matrix formation  ***
    1    -423.8363137815352957     0.00e+00  8.30e-04  6.83e-02  1.68e-01  0.850  35.7
Warning: op=0 Small HOMO/LUMO gap (   0.006) - skipping pre-diagonalization
         Will do a full diagonalization
    2    -423.9272826717005955    -9.10e-02  8.92e-04  1.18e-01  1.19e-01  0.850  23.7
                               ***Turning on AO-DIIS***
    3    -423.9880403010914733    -6.08e-02  5.44e-04  3.93e-02  7.43e-02  0.850  23.0
    4    -424.0269424255076274    -3.89e-02  4.29e-04  2.72e-02  6.23e-02  0.850  22.6
    5    -424.0552533102016923    -2.83e-02  3.58e-04  2.29e-02  5.51e-02  0.850  22.6
    6    -424.0777210177939196    -2.25e-02  3.04e-04  1.92e-02  4.79e-02  0.850  21.9
    7    -424.0962182754883543    -1.85e-02  2.59e-04  1.63e-02  3.99e-02  0.850  22.0
    8    -424.1114908749149208    -1.53e-02  2.17e-04  1.40e-02  3.25e-02  0.850  21.6
    9    -424.1240309058060802    -1.25e-02  1.83e-04  1.20e-02  2.74e-02  0.850  21.4
   10    -424.1343997731934223    -1.04e-02  1.04e-03  6.76e-02  2.37e-02  0.000  21.0
   11    -424.1892977331309567    -5.49e-02  4.85e-05  3.74e-03  1.32e-03  0.000  22.7
   12    -424.1893548891694081    -5.72e-05  3.83e-05  4.11e-03  2.63e-03  0.000  19.8
                              *** Initializing SOSCF ***
---------------------------------------S-O-S-C-F--------------------------------------
Iteration    Energy (Eh)           Delta-E    RMSDP     MaxDP     MaxGrad    Time(sec)
--------------------------------------------------------------------------------------
   13    -424.1893964425411241    -4.16e-05  2.50e-05  2.48e-03  6.05e-04    17.8
               *** Restarting incremental Fock matrix formation ***
   14    -424.1894227458101341    -2.63e-05  1.83e-04  1.13e-02  8.43e-04    32.1
   15    -424.1894403835674439    -1.76e-05  1.35e-04  8.38e-03  5.53e-04    26.0
   16    -424.1894525656226733    -1.22e-05  1.24e-04  7.74e-03  2.85e-04    26.4
   17    -424.1894545670843399    -2.00e-06  1.36e-05  9.24e-04  2.48e-04    25.3
   18    -424.1894557770748406    -1.21e-06  1.89e-05  1.16e-03  7.67e-05    23.0
   19    -424.1894558991962185    -1.22e-07  7.20e-06  4.27e-04  5.47e-05    22.1
   20    -424.1894560252162591    -1.26e-07  5.01e-06  2.94e-04  2.61e-05    20.9
   21    -424.1894560268178793    -1.60e-09  2.78e-06  2.10e-04  2.19e-05    20.4
                 **** Energy Check signals convergence ****

               *****************************************************
               *                     SUCCESS                       *
               *           SCF CONVERGED AFTER  21 CYCLES          *
               *****************************************************

Recomputing exchange energy using gridx3       ... done (   33.902 sec)
Old exchange energy                            :     -5.861993300 Eh
New exchange energy                            :     -5.862000225 Eh
Exchange energy change after final integration :     -0.000006925 Eh
Total energy after final integration           :   -424.189462951 Eh

SMD CDS free energy correction energy :                -2.44179     Kcal/mol
Total Energy after SMD CDS correction =              -424.193354193 Eh
             **** ENERGY FILE WAS UPDATED (cs_rporg_142_red_solv_04.en.tmp) ****

----------------
TOTAL SCF ENERGY
----------------

Total Energy       :       -424.19335419293503 Eh          -11542.88800 eV

Components:
Nuclear Repulsion  :        477.66396954476852 Eh           12997.89741 eV
Electronic Energy  :       -901.76555691874091 Eh          -24538.28831 eV
One Electron Energy:      -1533.50808675758867 Eh          -41728.87650 eV
Two Electron Energy:        631.74252983884776 Eh           17190.58819 eV
CPCM Dielectric    :         -0.08786865284552 Eh              -2.39103 eV
SMD CDS (Gcds)     :         -0.00389124153298 Eh              -0.10589 eV

Virial components:
Potential Energy   :       -845.82509156706374 Eh          -23016.07086 eV
Kinetic Energy     :        421.63173737412876 Eh           11473.18286 eV
Virial Ratio       :          2.00607548386836

DFT components:
N(Alpha)           :       37.000001624135 electrons
N(Beta)            :       36.000015080543 electrons
N(Total)           :       73.000016704678 electrons
E(X)               :      -52.950105382948 Eh       
E(C)               :       -2.343035160483 Eh       
E(XC)              :      -55.293140543431 Eh       

CPCM Solvation Model Properties:
Surface-charge          :          0.94765130343659
Corrected charge        :          1.00000000000000
Outlying charge corr.   :          0.00018823877801 Eh               0.00512 eV
Free-energy (cav+disp)  :         -0.00389124153298 Eh              -0.10589 eV

---------------
SCF CONVERGENCE
---------------

  Last Energy change         ...    1.6016e-09  Tolerance :   1.0000e-08
  Last MAX-Density change    ...    2.0981e-04  Tolerance :   1.0000e-07
  Last RMS-Density change    ...    2.7820e-06  Tolerance :   5.0000e-09
  Last DIIS Error            ...    6.0522e-04  Tolerance :   5.0000e-07
  Last Orbital Gradient      ...    2.1875e-05  Tolerance :   1.0000e-05
  Last Orbital Rotation      ...    6.9240e-05  Tolerance :   1.0000e-05


----------------------
UHF SPIN CONTAMINATION
----------------------

Warning: in a DFT calculation there is little theoretical justification to 
         calculate <S**2> as in Hartree-Fock theory. We will do it anyways
         but you should keep in mind that the values have only limited relevance

Expectation value of <S**2>     :     0.778037
Ideal value S*(S+1) for S=0.5   :     0.750000
Deviation                       :     0.028037

----------------
ORBITAL ENERGIES
----------------
                 SPIN UP ORBITALS
  NO   OCC          E(Eh)            E(eV) 
   0   1.0000     -19.033494      -517.9277 
   1   1.0000     -10.168515      -276.6994 
   2   1.0000     -10.137186      -275.8468 
   3   1.0000     -10.136949      -275.8404 
   4   1.0000     -10.133749      -275.7533 
   5   1.0000     -10.133303      -275.7412 
   6   1.0000     -10.132245      -275.7124 
   7   1.0000     -10.129007      -275.6243 
   8   1.0000     -10.123798      -275.4826 
   9   1.0000     -10.121965      -275.4327 
  10   1.0000      -0.965423       -26.2705 
  11   1.0000      -0.828273       -22.5385 
  12   1.0000      -0.752374       -20.4731 
  13   1.0000      -0.719611       -19.5816 
  14   1.0000      -0.698466       -19.0062 
  15   1.0000      -0.657307       -17.8862 
  16   1.0000      -0.577168       -15.7055 
  17   1.0000      -0.566574       -15.4173 
  18   1.0000      -0.509998       -13.8777 
  19   1.0000      -0.451236       -12.2788 
  20   1.0000      -0.428784       -11.6678 
  21   1.0000      -0.411251       -11.1907 
  22   1.0000      -0.397850       -10.8260 
  23   1.0000      -0.393404       -10.7051 
  24   1.0000      -0.389727       -10.6050 
  25   1.0000      -0.379158       -10.3174 
  26   1.0000      -0.364885        -9.9290 
  27   1.0000      -0.341552        -9.2941 
  28   1.0000      -0.338528        -9.2118 
  29   1.0000      -0.334649        -9.1063 
  30   1.0000      -0.315213        -8.5774 
  31   1.0000      -0.302780        -8.2391 
  32   1.0000      -0.287101        -7.8124 
  33   1.0000      -0.237089        -6.4515 
  34   1.0000      -0.221280        -6.0213 
  35   1.0000      -0.193311        -5.2603 
  36   1.0000      -0.086508        -2.3540 
  37   0.0000      -0.003456        -0.0941 
  38   0.0000       0.008416         0.2290 
  39   0.0000       0.020517         0.5583 
  40   0.0000       0.025701         0.6994 
  41   0.0000       0.031658         0.8615 
  42   0.0000       0.036661         0.9976 
  43   0.0000       0.036698         0.9986 
  44   0.0000       0.043462         1.1827 
  45   0.0000       0.050526         1.3749 
  46   0.0000       0.054766         1.4903 
  47   0.0000       0.057608         1.5676 

                 SPIN DOWN ORBITALS
  NO   OCC          E(Eh)            E(eV) 
   0   1.0000     -19.026854      -517.7470 
   1   1.0000     -10.163541      -276.5640 
   2   1.0000     -10.137584      -275.8577 
   3   1.0000     -10.135732      -275.8073 
   4   1.0000     -10.135188      -275.7925 
   5   1.0000     -10.131186      -275.6836 
   6   1.0000     -10.128910      -275.6216 
   7   1.0000     -10.126143      -275.5463 
   8   1.0000     -10.124263      -275.4952 
   9   1.0000     -10.121070      -275.4083 
  10   1.0000      -0.954120       -25.9629 
  11   1.0000      -0.823622       -22.4119 
  12   1.0000      -0.744806       -20.2672 
  13   1.0000      -0.716513       -19.4973 
  14   1.0000      -0.694456       -18.8971 
  15   1.0000      -0.656953       -17.8766 
  16   1.0000      -0.568156       -15.4603 
  17   1.0000      -0.563777       -15.3412 
  18   1.0000      -0.505650       -13.7594 
  19   1.0000      -0.446458       -12.1488 
  20   1.0000      -0.427325       -11.6281 
  21   1.0000      -0.407252       -11.0819 
  22   1.0000      -0.392530       -10.6813 
  23   1.0000      -0.386978       -10.5302 
  24   1.0000      -0.381310       -10.3760 
  25   1.0000      -0.378415       -10.2972 
  26   1.0000      -0.362533        -9.8650 
  27   1.0000      -0.339199        -9.2301 
  28   1.0000      -0.337260        -9.1773 
  29   1.0000      -0.325129        -8.8472 
  30   1.0000      -0.312922        -8.5150 
  31   1.0000      -0.285942        -7.7809 
  32   1.0000      -0.279238        -7.5984 
  33   1.0000      -0.228234        -6.2106 
  34   1.0000      -0.199964        -5.4413 
  35   1.0000      -0.188190        -5.1209 
  36   0.0000      -0.024160        -0.6574 
  37   0.0000       0.000970         0.0264 
  38   0.0000       0.011106         0.3022 
  39   0.0000       0.023043         0.6270 
  40   0.0000       0.027967         0.7610 
  41   0.0000       0.037171         1.0115 
  42   0.0000       0.038857         1.0573 
  43   0.0000       0.045193         1.2298 
  44   0.0000       0.047922         1.3040 
  45   0.0000       0.052039         1.4161 
  46   0.0000       0.059543         1.6203 
*Only the first 10 virtual orbitals were printed.

                    ********************************
                    * MULLIKEN POPULATION ANALYSIS *
                    ********************************

--------------------------------------------
MULLIKEN ATOMIC CHARGES AND SPIN POPULATIONS
--------------------------------------------
   0 C :   -0.596100    0.307395
   1 C :   -0.932953   -0.196169
   2 C :    1.724895    0.395583
   3 C :   -1.108104   -0.173202
   4 C :   -1.500634    0.251415
   5 C :    2.064837    0.025393
   6 C :    0.632690    0.254011
   7 O :   -1.118745    0.225918
   8 C :   -0.609293   -0.056074
   9 H :    0.159058   -0.006495
  10 H :    0.220540    0.021257
  11 H :    0.219341    0.021646
  12 H :   -0.187448   -0.019802
  13 H :    0.300162   -0.003519
  14 C :   -0.830099   -0.066268
  15 H :    0.200258    0.022702
  16 H :    0.175201   -0.005027
  17 H :    0.202237    0.022860
  18 H :    0.055403   -0.009356
  19 H :   -0.071248   -0.012268
Sum of atomic charges         :   -1.0000000
Sum of atomic spin populations:    1.0000000

-----------------------------------------------------
MULLIKEN REDUCED ORBITAL CHARGES AND SPIN POPULATIONS
-----------------------------------------------------
CHARGE
  0 C s       :     3.908174  s :     3.908174
      pz      :     1.044958  p :     2.596911
      px      :     0.654895
      py      :     0.897057
      dz2     :    -0.013047  d :     0.119294
      dxz     :     0.008793
      dyz     :     0.018990
      dx2y2   :    -0.152501
      dxy     :     0.257059
      f0      :     0.001153  f :    -0.028279
      f+1     :     0.000496
      f-1     :    -0.000480
      f+2     :    -0.000971
      f-2     :    -0.000681
      f+3     :     0.004318
      f-3     :    -0.032114

  1 C s       :     3.971512  s :     3.971512
      pz      :     1.029720  p :     2.805787
      px      :     0.884766
      py      :     0.891300
      dz2     :     0.010627  d :     0.177489
      dxz     :     0.023292
      dyz     :     0.030786
      dx2y2   :    -0.040176
      dxy     :     0.152960
      f0      :     0.000716  f :    -0.021835
      f+1     :     0.000164
      f-1     :    -0.000139
      f+2     :     0.000095
      f-2     :    -0.001537
      f+3     :     0.005606
      f-3     :    -0.026739

  2 C s       :     2.872878  s :     2.872878
      pz      :     0.991790  p :     1.683545
      px      :     0.343502
      py      :     0.348253
      dz2     :    -0.042386  d :    -0.193367
      dxz     :    -0.031387
      dyz     :     0.014064
      dx2y2   :    -0.195906
      dxy     :     0.062248
      f0      :    -0.000989  f :    -0.087951
      f+1     :    -0.002653
      f-1     :    -0.000777
      f+2     :    -0.001758
      f-2     :    -0.002562
      f+3     :    -0.010325
      f-3     :    -0.068886

  3 C s       :     3.784199  s :     3.784199
      pz      :     1.034079  p :     3.255620
      px      :     1.226111
      py      :     0.995431
      dz2     :    -0.000478  d :     0.082347
      dxz     :     0.032257
      dyz     :     0.033876
      dx2y2   :    -0.125958
      dxy     :     0.142649
      f0      :     0.000907  f :    -0.014062
      f+1     :     0.000591
      f-1     :     0.000376
      f+2     :     0.000152
      f-2     :    -0.001519
      f+3     :     0.005654
      f-3     :    -0.020224

  4 C s       :     4.249303  s :     4.249303
      pz      :     1.001899  p :     3.019798
      px      :     1.012482
      py      :     1.005418
      dz2     :    -0.011340  d :     0.253532
      dxz     :     0.025672
      dyz     :     0.014598
      dx2y2   :    -0.012031
      dxy     :     0.236633
      f0      :     0.000621  f :    -0.022000
      f+1     :    -0.001007
      f-1     :    -0.000712
      f+2     :    -0.000981
      f-2     :    -0.000901
      f+3     :     0.003878
      f-3     :    -0.022898

  5 C s       :     2.598109  s :     2.598109
      pz      :     1.057919  p :     1.529865
      px      :     0.124867
      py      :     0.347079
      dz2     :    -0.029126  d :    -0.064781
      dxz     :     0.051601
      dyz     :    -0.000388
      dx2y2   :    -0.136645
      dxy     :     0.049777
      f0      :     0.000019  f :    -0.128030
      f+1     :    -0.005270
      f-1     :    -0.001191
      f+2     :    -0.000657
      f-2     :    -0.006858
      f+3     :    -0.007927
      f-3     :    -0.106146

  6 C s       :     3.327648  s :     3.327648
      pz      :     0.797138  p :     1.972462
      px      :     0.645114
      py      :     0.530211
      dz2     :     0.009266  d :     0.106271
      dxz     :     0.043856
      dyz     :     0.033866
      dx2y2   :     0.063805
      dxy     :    -0.044522
      f0      :     0.000659  f :    -0.039071
      f+1     :    -0.000698
      f-1     :    -0.000074
      f+2     :     0.003864
      f-2     :     0.000936
      f+3     :    -0.007163
      f-3     :    -0.036595

  7 O s       :     4.139056  s :     4.139056
      pz      :     1.583250  p :     4.926696
      px      :     1.799831
      py      :     1.543615
      dz2     :     0.000952  d :     0.047605
      dxz     :     0.006952
      dyz     :     0.015463
      dx2y2   :     0.013830
      dxy     :     0.010408
      f0      :     0.000796  f :     0.005388
      f+1     :     0.000262
      f-1     :     0.000134
      f+2     :     0.000225
      f-2     :     0.000942
      f+3     :     0.000722
      f-3     :     0.002308

  8 C s       :     3.402107  s :     3.402107
      pz      :     1.112334  p :     3.117995
      px      :     1.012043
      py      :     0.993618
      dz2     :     0.005028  d :     0.082736
      dxz     :     0.008654
      dyz     :     0.046322
      dx2y2   :     0.016723
      dxy     :     0.006009
      f0      :     0.000714  f :     0.006454
      f+1     :    -0.000457
      f-1     :    -0.000983
      f+2     :     0.000787
      f-2     :     0.001731
      f+3     :     0.004261
      f-3     :     0.000400

  9 H s       :     0.802845  s :     0.802845
      pz      :     0.017002  p :     0.031363
      px      :     0.008567
      py      :     0.005794
      dz2     :    -0.000118  d :     0.006734
      dxz     :     0.002464
      dyz     :     0.000912
      dx2y2   :     0.001750
      dxy     :     0.001727

 10 H s       :     0.733438  s :     0.733438
      pz      :     0.007095  p :     0.038591
      px      :     0.010307
      py      :     0.021189
      dz2     :     0.002500  d :     0.007431
      dxz     :     0.001463
      dyz     :     0.000310
      dx2y2   :     0.002295
      dxy     :     0.000863

 11 H s       :     0.734190  s :     0.734190
      pz      :     0.007515  p :     0.038992
      px      :     0.010419
      py      :     0.021057
      dz2     :     0.002155  d :     0.007477
      dxz     :     0.001750
      dyz     :     0.000943
      dx2y2   :     0.001950
      dxy     :     0.000679

 12 H s       :     1.144817  s :     1.144817
      pz      :     0.022180  p :     0.036041
      px      :    -0.025415
      py      :     0.039275
      dz2     :    -0.000526  d :     0.006590
      dxz     :     0.000550
      dyz     :     0.003870
      dx2y2   :     0.002803
      dxy     :    -0.000106

 13 H s       :     0.647943  s :     0.647943
      pz      :     0.029410  p :     0.045456
      px      :     0.004344
      py      :     0.011702
      dz2     :    -0.000242  d :     0.006439
      dxz     :     0.000839
      dyz     :     0.003853
      dx2y2   :     0.001440
      dxy     :     0.000549

 14 C s       :     3.631087  s :     3.631087
      pz      :     1.121985  p :     3.146263
      px      :     0.851148
      py      :     1.173129
      dz2     :     0.013789  d :     0.046121
      dxz     :     0.019852
      dyz     :     0.020270
      dx2y2   :    -0.002500
      dxy     :    -0.005289
      f0      :     0.003069  f :     0.006628
      f+1     :    -0.000865
      f-1     :     0.001644
      f+2     :     0.001923
      f-2     :     0.000365
      f+3     :     0.002143
      f-3     :    -0.001649

 15 H s       :     0.743452  s :     0.743452
      pz      :     0.011724  p :     0.049004
      px      :     0.019294
      py      :     0.017986
      dz2     :     0.002452  d :     0.007286
      dxz     :     0.001585
      dyz     :     0.000598
      dx2y2   :     0.002346
      dxy     :     0.000306

 16 H s       :     0.778097  s :     0.778097
      pz      :     0.016973  p :     0.038000
      px      :     0.011618
      py      :     0.009409
      dz2     :     0.000276  d :     0.008702
      dxz     :     0.000526
      dyz     :     0.003040
      dx2y2   :     0.001504
      dxy     :     0.003355

 17 H s       :     0.741329  s :     0.741329
      pz      :     0.012816  p :     0.049166
      px      :     0.019261
      py      :     0.017089
      dz2     :     0.002723  d :     0.007268
      dxz     :     0.001475
      dyz     :     0.000212
      dx2y2   :     0.002422
      dxy     :     0.000436

 18 H s       :     0.880422  s :     0.880422
      pz      :     0.029986  p :     0.058115
      px      :    -0.003948
      py      :     0.032077
      dz2     :    -0.000532  d :     0.006059
      dxz     :     0.000701
      dyz     :     0.003893
      dx2y2   :     0.001594
      dxy     :     0.000403

 19 H s       :     1.028851  s :     1.028851
      pz      :     0.020521  p :     0.031691
      px      :    -0.014921
      py      :     0.026090
      dz2     :    -0.000216  d :     0.010706
      dxz     :     0.000019
      dyz     :     0.004030
      dx2y2   :     0.004946
      dxy     :     0.001928


SPIN
  0 C s       :     0.038423  s :     0.038423
      pz      :     0.199470  p :     0.254590
      px      :     0.045177
      py      :     0.009944
      dz2     :     0.000077  d :     0.015266
      dxz     :     0.001605
      dyz     :     0.004990
      dx2y2   :     0.008370
      dxy     :     0.000223
      f0      :     0.000158  f :    -0.000885
      f+1     :    -0.000064
      f-1     :    -0.000464
      f+2     :    -0.000574
      f-2     :    -0.000552
      f+3     :     0.000940
      f-3     :    -0.000328

  1 C s       :    -0.053718  s :    -0.053718
      pz      :    -0.113255  p :    -0.157736
      px      :    -0.028766
      py      :    -0.015715
      dz2     :     0.000095  d :     0.014769
      dxz     :     0.006073
      dyz     :     0.004481
      dx2y2   :    -0.003722
      dxy     :     0.007842
      f0      :     0.000425  f :     0.000517
      f+1     :     0.000282
      f-1     :     0.000090
      f+2     :     0.000313
      f-2     :    -0.000643
      f+3     :     0.000322
      f-3     :    -0.000273

  2 C s       :     0.047999  s :     0.047999
      pz      :     0.281119  p :     0.338216
      px      :     0.036077
      py      :     0.021020
      dz2     :    -0.001515  d :     0.010645
      dxz     :     0.003618
      dyz     :    -0.001162
      dx2y2   :     0.014005
      dxy     :    -0.004301
      f0      :     0.000236  f :    -0.001277
      f+1     :    -0.000349
      f-1     :    -0.000434
      f+2     :    -0.000138
      f-2     :     0.000057
      f+3     :     0.000408
      f-3     :    -0.001057

  3 C s       :    -0.045265  s :    -0.045265
      pz      :    -0.104190  p :    -0.151602
      px      :    -0.026793
      py      :    -0.020619
      dz2     :     0.000156  d :     0.023607
      dxz     :     0.010475
      dyz     :     0.005593
      dx2y2   :     0.003889
      dxy     :     0.003493
      f0      :     0.000422  f :     0.000058
      f+1     :     0.000292
      f-1     :     0.000033
      f+2     :     0.000026
      f-2     :    -0.000652
      f+3     :     0.000474
      f-3     :    -0.000536

  4 C s       :     0.038116  s :     0.038116
      pz      :     0.182745  p :     0.213650
      px      :     0.021345
      py      :     0.009560
      dz2     :    -0.000576  d :     0.001120
      dxz     :    -0.000341
      dyz     :     0.002808
      dx2y2   :    -0.002935
      dxy     :     0.002165
      f0      :     0.000076  f :    -0.001471
      f+1     :    -0.000100
      f-1     :    -0.000405
      f+2     :    -0.000855
      f-2     :    -0.000545
      f+3     :     0.000925
      f-3     :    -0.000566

  5 C s       :    -0.026745  s :    -0.026745
      pz      :     0.030942  p :     0.030222
      px      :     0.006851
      py      :    -0.007571
      dz2     :    -0.001454  d :     0.026782
      dxz     :     0.022105
      dyz     :    -0.007658
      dx2y2   :     0.009323
      dxy     :     0.004466
      f0      :     0.000157  f :    -0.004866
      f+1     :     0.000035
      f-1     :    -0.000260
      f+2     :    -0.000553
      f-2     :    -0.002512
      f+3     :    -0.000647
      f-3     :    -0.001086

  6 C s       :     0.018636  s :     0.018636
      pz      :     0.229571  p :     0.224903
      px      :     0.010542
      py      :    -0.015210
      dz2     :    -0.001386  d :     0.016170
      dxz     :     0.009910
      dyz     :     0.004956
      dx2y2   :     0.003643
      dxy     :    -0.000953
      f0      :     0.000614  f :    -0.005699
      f+1     :    -0.000176
      f-1     :    -0.000279
      f+2     :    -0.000137
      f-2     :    -0.002127
      f+3     :    -0.000555
      f-3     :    -0.003038

  7 O s       :     0.016181  s :     0.016181
      pz      :     0.189775  p :     0.204904
      px      :     0.008493
      py      :     0.006636
      dz2     :     0.000170  d :     0.004855
      dxz     :     0.001362
      dyz     :     0.003083
      dx2y2   :     0.000247
      dxy     :    -0.000008
      f0      :    -0.000007  f :    -0.000023
      f+1     :     0.000003
      f-1     :    -0.000023
      f+2     :    -0.000034
      f-2     :     0.000060
      f+3     :    -0.000001
      f-3     :    -0.000021

  8 C s       :    -0.033987  s :    -0.033987
      pz      :    -0.014519  p :    -0.035297
      px      :    -0.008577
      py      :    -0.012201
      dz2     :     0.001857  d :     0.013259
      dxz     :    -0.003138
      dyz     :     0.016858
      dx2y2   :    -0.000866
      dxy     :    -0.001452
      f0      :     0.000238  f :    -0.000049
      f+1     :     0.000239
      f-1     :    -0.000340
      f+2     :    -0.000098
      f-2     :     0.000366
      f+3     :    -0.000204
      f-3     :    -0.000250

  9 H s       :    -0.005626  s :    -0.005626
      pz      :    -0.000496  p :    -0.000840
      px      :    -0.000159
      py      :    -0.000185
      dz2     :    -0.000002  d :    -0.000030
      dxz     :    -0.000061
      dyz     :    -0.000078
      dx2y2   :     0.000053
      dxy     :     0.000059

 10 H s       :     0.016530  s :     0.016530
      pz      :     0.000843  p :     0.004552
      px      :     0.000862
      py      :     0.002847
      dz2     :     0.000084  d :     0.000175
      dxz     :    -0.000017
      dyz     :    -0.000055
      dx2y2   :     0.000125
      dxy     :     0.000039

 11 H s       :     0.016689  s :     0.016689
      pz      :     0.001236  p :     0.004778
      px      :     0.000858
      py      :     0.002684
      dz2     :     0.000085  d :     0.000178
      dxz     :    -0.000026
      dyz     :    -0.000038
      dx2y2   :     0.000106
      dxy     :     0.000050

 12 H s       :    -0.017994  s :    -0.017994
      pz      :     0.001628  p :    -0.001285
      px      :     0.000784
      py      :    -0.003697
      dz2     :     0.000084  d :    -0.000523
      dxz     :    -0.000157
      dyz     :    -0.000016
      dx2y2   :    -0.000169
      dxy     :    -0.000264

 13 H s       :    -0.000334  s :    -0.000334
      pz      :    -0.003756  p :    -0.002542
      px      :    -0.000668
      py      :     0.001882
      dz2     :    -0.000103  d :    -0.000643
      dxz     :    -0.000225
      dyz     :    -0.000426
      dx2y2   :     0.000012
      dxy     :     0.000099

 14 C s       :    -0.047152  s :    -0.047152
      pz      :    -0.013592  p :    -0.029169
      px      :    -0.013991
      py      :    -0.001586
      dz2     :     0.000851  d :     0.009543
      dxz     :     0.007784
      dyz     :     0.001863
      dx2y2   :     0.000512
      dxy     :    -0.001467
      f0      :     0.000117  f :     0.000510
      f+1     :     0.000217
      f-1     :    -0.000085
      f+2     :     0.000245
      f-2     :     0.000259
      f+3     :    -0.000154
      f-3     :    -0.000091

 15 H s       :     0.017995  s :     0.017995
      pz      :     0.001343  p :     0.004538
      px      :     0.002319
      py      :     0.000876
      dz2     :     0.000103  d :     0.000169
      dxz     :     0.000026
      dyz     :     0.000010
      dx2y2   :     0.000053
      dxy     :    -0.000023

 16 H s       :    -0.004625  s :    -0.004625
      pz      :    -0.000997  p :    -0.000516
      px      :     0.000735
      py      :    -0.000255
      dz2     :     0.000016  d :     0.000115
      dxz     :     0.000002
      dyz     :     0.000038
      dx2y2   :     0.000041
      dxy     :     0.000018

 17 H s       :     0.018138  s :     0.018138
      pz      :     0.001284  p :     0.004555
      px      :     0.002309
      py      :     0.000962
      dz2     :     0.000101  d :     0.000168
      dxz     :     0.000017
      dyz     :     0.000012
      dx2y2   :     0.000051
      dxy     :    -0.000013

 18 H s       :    -0.004696  s :    -0.004696
      pz      :    -0.003643  p :    -0.004008
      px      :    -0.000214
      py      :    -0.000151
      dz2     :    -0.000098  d :    -0.000653
      dxz     :    -0.000240
      dyz     :    -0.000439
      dx2y2   :     0.000014
      dxy     :     0.000110

 19 H s       :    -0.010527  s :    -0.010527
      pz      :    -0.001353  p :    -0.000874
      px      :    -0.000264
      py      :     0.000743
      dz2     :     0.000135  d :    -0.000868
      dxz     :    -0.000178
      dyz     :    -0.000112
      dx2y2   :    -0.000417
      dxy     :    -0.000295



                     *******************************
                     * LOEWDIN POPULATION ANALYSIS *
                     *******************************

-------------------------------------------
LOEWDIN ATOMIC CHARGES AND SPIN POPULATIONS
-------------------------------------------
   0 C :    0.149419    0.102386
   1 C :    0.152521    0.018725
   2 C :   -0.179604    0.136838
   3 C :    0.153607    0.014527
   4 C :    0.134596    0.084761
   5 C :   -0.216395    0.115939
   6 C :   -0.682466    0.186441
   7 O :    0.328135    0.196752
   8 C :    0.494143    0.035087
   9 H :   -0.205134   -0.001013
  10 H :   -0.180630    0.009172
  11 H :   -0.179862    0.009287
  12 H :   -0.216014    0.019809
  13 H :   -0.180517   -0.007310
  14 C :    0.528346    0.041959
  15 H :   -0.164224    0.010138
  16 H :   -0.180376    0.000519
  17 H :   -0.164098    0.010189
  18 H :   -0.184443   -0.007946
  19 H :   -0.207002    0.023740

----------------------------------------------------
LOEWDIN REDUCED ORBITAL CHARGES AND SPIN POPULATIONS
----------------------------------------------------
CHARGE
  0 C s       :     2.481084  s :     2.481084
      pz      :     0.632406  p :     2.297469
      px      :     0.846186
      py      :     0.818877
      dz2     :     0.069145  d :     0.734710
      dxz     :     0.127101
      dyz     :     0.072790
      dx2y2   :     0.212811
      dxy     :     0.252862
      f0      :     0.021228  f :     0.337317
      f+1     :     0.028122
      f-1     :     0.021400
      f+2     :     0.044496
      f-2     :     0.029905
      f+3     :     0.061246
      f-3     :     0.130921

  1 C s       :     2.484837  s :     2.484837
      pz      :     0.621287  p :     2.292069
      px      :     0.849514
      py      :     0.821269
      dz2     :     0.068877  d :     0.734486
      dxz     :     0.129602
      dyz     :     0.069332
      dx2y2   :     0.214123
      dxy     :     0.252553
      f0      :     0.018306  f :     0.336087
      f+1     :     0.028923
      f-1     :     0.021901
      f+2     :     0.047874
      f-2     :     0.026882
      f+3     :     0.062191
      f-3     :     0.130010

  2 C s       :     2.465990  s :     2.465990
      pz      :     0.653175  p :     2.286890
      px      :     0.789728
      py      :     0.843988
      dz2     :     0.082480  d :     0.938097
      dxz     :     0.155150
      dyz     :     0.121757
      dx2y2   :     0.308947
      dxy     :     0.269763
      f0      :     0.036782  f :     0.488627
      f+1     :     0.028671
      f-1     :     0.031998
      f+2     :     0.054766
      f-2     :     0.062467
      f+3     :     0.069315
      f-3     :     0.204628

  3 C s       :     2.487658  s :     2.487658
      pz      :     0.621280  p :     2.296694
      px      :     0.854544
      py      :     0.820870
      dz2     :     0.067155  d :     0.727995
      dxz     :     0.122922
      dyz     :     0.071773
      dx2y2   :     0.206166
      dxy     :     0.259978
      f0      :     0.018471  f :     0.334046
      f+1     :     0.027909
      f-1     :     0.021787
      f+2     :     0.049846
      f-2     :     0.024990
      f+3     :     0.060418
      f-3     :     0.130625

  4 C s       :     2.484940  s :     2.484940
      pz      :     0.620131  p :     2.297762
      px      :     0.856538
      py      :     0.821093
      dz2     :     0.070381  d :     0.739533
      dxz     :     0.127025
      dyz     :     0.069272
      dx2y2   :     0.215846
      dxy     :     0.257009
      f0      :     0.020805  f :     0.343169
      f+1     :     0.029647
      f-1     :     0.021177
      f+2     :     0.043157
      f-2     :     0.031271
      f+3     :     0.062688
      f-3     :     0.134423

  5 C s       :     2.472721  s :     2.472721
      pz      :     0.659907  p :     2.320749
      px      :     0.839841
      py      :     0.821001
      dz2     :     0.089152  d :     0.934637
      dxz     :     0.161207
      dyz     :     0.117009
      dx2y2   :     0.296512
      dxy     :     0.270758
      f0      :     0.030127  f :     0.488288
      f+1     :     0.036566
      f-1     :     0.032141
      f+2     :     0.046073
      f-2     :     0.067171
      f+3     :     0.078165
      f-3     :     0.198046

  6 C s       :     2.490779  s :     2.490779
      pz      :     0.621414  p :     2.272690
      px      :     0.842486
      py      :     0.808790
      dz2     :     0.102322  d :     1.269824
      dxz     :     0.180379
      dyz     :     0.203569
      dx2y2   :     0.391631
      dxy     :     0.391923
      f0      :     0.045055  f :     0.649174
      f+1     :     0.037377
      f-1     :     0.041027
      f+2     :     0.072272
      f-2     :     0.075657
      f+3     :     0.124358
      f-3     :     0.253429

  7 O s       :     3.202279  s :     3.202279
      pz      :     1.282955  p :     4.148801
      px      :     1.447692
      py      :     1.418154
      dz2     :     0.025549  d :     0.245022
      dxz     :     0.022660
      dyz     :     0.043939
      dx2y2   :     0.082743
      dxy     :     0.070132
      f0      :     0.007057  f :     0.075763
      f+1     :     0.003864
      f-1     :     0.007413
      f+2     :     0.003046
      f-2     :     0.011916
      f+3     :     0.014955
      f-3     :     0.027512

  8 C s       :     2.466063  s :     2.466063
      pz      :     0.771473  p :     2.313492
      px      :     0.768770
      py      :     0.773249
      dz2     :     0.083654  d :     0.531793
      dxz     :     0.032886
      dyz     :     0.159985
      dx2y2   :     0.154477
      dxy     :     0.100790
      f0      :     0.015069  f :     0.194509
      f+1     :     0.014958
      f-1     :     0.030688
      f+2     :     0.018674
      f-2     :     0.028723
      f+3     :     0.029483
      f-3     :     0.056914

  9 H s       :     0.639753  s :     0.639753
      pz      :     0.091040  p :     0.328658
      px      :     0.141007
      py      :     0.096611
      dz2     :     0.017019  d :     0.236724
      dxz     :     0.069436
      dyz     :     0.017394
      dx2y2   :     0.053302
      dxy     :     0.079573

 10 H s       :     0.626750  s :     0.626750
      pz      :     0.127113  p :     0.327540
      px      :     0.094893
      py      :     0.105534
[...]
      f-2     :     0.004979
      f+3     :     0.000163
      f-3     :     0.000068

  8 C s       :    -0.001140  s :    -0.001140
      pz      :    -0.002153  p :    -0.008389
      px      :    -0.001987
      py      :    -0.004249
      dz2     :     0.000242  d :     0.029550
      dxz     :     0.006309
      dyz     :     0.022063
      dx2y2   :    -0.000230
      dxy     :     0.001166
      f0      :     0.003035  f :     0.015066
      f+1     :    -0.000082
      f-1     :     0.000177
      f+2     :     0.000256
      f-2     :     0.011294
      f+3     :     0.000461
      f-3     :    -0.000075

  9 H s       :     0.000075  s :     0.000075
      pz      :     0.000148  p :    -0.000604
      px      :    -0.000217
      py      :    -0.000535
      dz2     :    -0.000027  d :    -0.000484
      dxz     :    -0.000300
      dyz     :     0.000464
      dx2y2   :    -0.000382
      dxy     :    -0.000240

 10 H s       :     0.005541  s :     0.005541
      pz      :     0.000246  p :     0.002493
      px      :     0.000147
      py      :     0.002100
      dz2     :    -0.000053  d :     0.001138
      dxz     :    -0.000174
      dyz     :    -0.000032
      dx2y2   :     0.000719
      dxy     :     0.000678

 11 H s       :     0.005652  s :     0.005652
      pz      :     0.000411  p :     0.002534
      px      :     0.000172
      py      :     0.001951
      dz2     :    -0.000060  d :     0.001101
      dxz     :    -0.000186
      dyz     :    -0.000116
      dx2y2   :     0.000770
      dxy     :     0.000692

 12 H s       :    -0.003094  s :    -0.003094
      pz      :     0.015523  p :     0.016254
      px      :     0.000134
      py      :     0.000596
      dz2     :    -0.000028  d :     0.006648
      dxz     :     0.003137
      dyz     :     0.003170
      dx2y2   :     0.000019
      dxy     :     0.000350

 13 H s       :     0.001611  s :     0.001611
      pz      :    -0.005490  p :    -0.006451
      px      :    -0.000275
      py      :    -0.000686
      dz2     :    -0.000003  d :    -0.002470
      dxz     :     0.001739
      dyz     :    -0.003559
      dx2y2   :    -0.000413
      dxy     :    -0.000234

 14 C s       :    -0.001134  s :    -0.001134
      pz      :    -0.002921  p :    -0.009289
      px      :    -0.005232
      py      :    -0.001136
      dz2     :     0.000479  d :     0.037941
      dxz     :     0.032682
      dyz     :     0.002694
      dx2y2   :     0.001447
      dxy     :     0.000639
      f0      :     0.004637  f :     0.014441
      f+1     :     0.000156
      f-1     :     0.000126
      f+2     :     0.008213
      f-2     :     0.000407
      f+3     :     0.000518
      f-3     :     0.000385

 15 H s       :     0.007893  s :     0.007893
      pz      :     0.000395  p :     0.001870
      px      :     0.001408
      py      :     0.000067
      dz2     :    -0.000106  d :     0.000374
      dxz     :    -0.000258
      dyz     :    -0.000028
      dx2y2   :     0.000533
      dxy     :     0.000234

 16 H s       :     0.000456  s :     0.000456
      pz      :    -0.000404  p :    -0.000956
      px      :    -0.000498
      py      :    -0.000054
      dz2     :    -0.000008  d :     0.001019
      dxz     :     0.001330
      dyz     :     0.000156
      dx2y2   :    -0.000088
      dxy     :    -0.000370

 17 H s       :     0.007937  s :     0.007937
      pz      :     0.000361  p :     0.001884
      px      :     0.001414
      py      :     0.000110
      dz2     :    -0.000099  d :     0.000367
      dxz     :    -0.000221
      dyz     :    -0.000048
      dx2y2   :     0.000546
      dxy     :     0.000189

 18 H s       :     0.001740  s :     0.001740
      pz      :    -0.006480  p :    -0.007481
      px      :    -0.000306
      py      :    -0.000695
      dz2     :    -0.000015  d :    -0.002205
      dxz     :     0.002244
      dyz     :    -0.003761
      dx2y2   :    -0.000418
      dxy     :    -0.000255

 19 H s       :    -0.003348  s :    -0.003348
      pz      :     0.016905  p :     0.018179
      px      :     0.000485
      py      :     0.000789
      dz2     :    -0.000002  d :     0.008909
      dxz     :     0.004380
      dyz     :     0.003957
      dx2y2   :     0.000150
      dxy     :     0.000424



                      *****************************
                      * MAYER POPULATION ANALYSIS *
                      *****************************

  NA   - Mulliken gross atomic population
  ZA   - Total nuclear charge
  QA   - Mulliken gross atomic charge
  VA   - Mayer's total valence
  BVA  - Mayer's bonded valence
  FA   - Mayer's free valence

  ATOM       NA         ZA         QA         VA         BVA        FA
  0 C      6.5961     6.0000    -0.5961     1.8963     1.8460     0.0503
  1 C      6.9330     6.0000    -0.9330     2.4430     2.4257     0.0173
  2 C      4.2751     6.0000     1.7249     0.7077     0.6226     0.0851
  3 C      7.1081     6.0000    -1.1081     2.6263     2.6113     0.0150
  4 C      7.5006     6.0000    -1.5006     2.9291     2.8934     0.0357
  5 C      3.9352     6.0000     2.0648    -0.2512    -0.2652     0.0140
  6 C      5.3673     6.0000     0.6327     2.6750     2.5985     0.0764
  7 O      9.1187     8.0000    -1.1187     0.9966     0.9568     0.0398
  8 C      6.6093     6.0000    -0.6093     3.8871     3.8842     0.0029
  9 H      0.8409     1.0000     0.1591     1.0113     1.0113     0.0000
 10 H      0.7795     1.0000     0.2205     0.9446     0.9444     0.0003
 11 H      0.7807     1.0000     0.2193     0.9466     0.9463     0.0003
 12 H      1.1874     1.0000    -0.1874     1.3227     1.3223     0.0004
 13 H      0.6998     1.0000     0.3002     0.8771     0.8771    -0.0000
 14 C      6.8301     6.0000    -0.8301     3.4343     3.4310     0.0033
 15 H      0.7997     1.0000     0.2003     0.9780     0.9776     0.0004
 16 H      0.8248     1.0000     0.1752     1.0106     1.0105     0.0000
 17 H      0.7978     1.0000     0.2022     0.9771     0.9767     0.0004
 18 H      0.9446     1.0000     0.0554     1.2258     1.2258    -0.0000
 19 H      1.0712     1.0000    -0.0712     1.2080     1.2077     0.0002

  Mayer bond orders larger than 0.100000
B(  0-C ,  1-C ) :   1.1981 B(  0-C ,  3-C ) :  -0.3462 B(  0-C ,  4-C ) :  -0.6639 
B(  0-C ,  6-C ) :   0.2737 B(  0-C , 19-H ) :   1.6148 B(  1-C ,  2-C ) :   0.4012 
B(  1-C ,  3-C ) :  -0.1374 B(  1-C ,  4-C ) :   0.2183 B(  1-C ,  6-C ) :  -0.1166 
B(  1-C , 12-H ) :  -0.1113 B(  1-C , 14-C ) :  -0.1451 B(  1-C , 18-H ) :   1.3275 
B(  2-C ,  3-C ) :   0.4550 B(  2-C ,  6-C ) :   0.1675 B(  2-C , 12-H ) :  -0.1261 
B(  2-C , 15-H ) :  -0.1250 B(  2-C , 17-H ) :  -0.1236 B(  2-C , 18-H ) :  -0.1323 
B(  3-C ,  4-C ) :   1.5737 B(  3-C , 13-H ) :   0.8917 B(  3-C , 14-C ) :   0.2703 
B(  3-C , 19-H ) :  -0.1118 B(  4-C ,  5-C ) :  -0.5231 B(  4-C ,  6-C ) :   0.3807 
B(  4-C , 12-H ) :   1.7155 B(  4-C , 19-H ) :   0.1248 B(  5-C ,  6-C ) :   0.4722 
B(  5-C ,  7-O ) :   0.3116 B(  5-C , 12-H ) :  -0.3184 B(  5-C , 14-C ) :   0.1160 
B(  5-C , 19-H ) :  -0.3302 B(  6-C ,  7-O ) :   0.4696 B(  6-C ,  8-C ) :   0.9014 
B(  6-C , 12-H ) :  -0.1400 B(  6-C , 13-H ) :   0.1766 B(  7-O , 12-H ) :   0.1882 
B(  8-C ,  9-H ) :   0.9552 B(  8-C , 10-H ) :   0.9776 B(  8-C , 11-H ) :   0.9780 
B( 12-H , 19-H ) :   0.1179 B( 14-C , 15-H ) :   1.0296 B( 14-C , 16-H ) :   1.0265 
B( 14-C , 17-H ) :   1.0268 

-------
TIMINGS
-------

Total SCF time: 0 days 0 hours 8 min 48 sec 

Total time                  ....     528.168 sec
Sum of individual times     ....     527.236 sec  ( 99.8%)

SCF preparation             ....       1.054 sec  (  0.2%)
Fock matrix formation       ....     507.624 sec  ( 96.1%)
  Startup                   ....       1.692 sec  (  0.3% of F)
  Split-RI-J                ....      19.597 sec  (  3.9% of F)
  Chain of spheres X        ....     251.011 sec  ( 49.4% of F)
  XC integration            ....     221.038 sec  ( 43.5% of F)
    XC Preparation          ....       0.000 sec  (  0.0% of XC)
    Basis function eval.    ....      11.049 sec  (  5.0% of XC)
    Density eval.           ....      69.020 sec  ( 31.2% of XC)
    XC-Functional eval.     ....       1.637 sec  (  0.7% of XC)
    XC-Potential eval.      ....     136.691 sec  ( 61.8% of XC)
  CPCM terms                ....       9.585 sec  (  1.9% of F)
Diagonalization             ....       0.000 sec  (  0.0%)
Density matrix formation    ....       3.670 sec  (  0.7%)
Total Energy calculation    ....       1.604 sec  (  0.3%)
Population analysis         ....       0.421 sec  (  0.1%)
Orbital Transformation      ....       1.092 sec  (  0.2%)
Orbital Orthonormalization  ....       0.000 sec  (  0.0%)
DIIS solution               ....       8.502 sec  (  1.6%)
SOSCF solution              ....       3.270 sec  (  0.6%)
Finished LeanSCF after 528.4 sec

Maximum memory used throughout the entire LEANSCF-calculation: 118.3 MB


-------------------------------------------------------------------------------
                          DFT DISPERSION CORRECTION                            
                                                                               
                              DFTD3 V3.1  Rev 1                                
                          USING Becke-Johnson damping                          
-------------------------------------------------------------------------------
The R2SCANh functional is recognized
Active option DFTDOPT                   ...         4   

molecular C6(AA) [au] = 4198.123503 


            DFT-D V3
 parameters
 s6 scaling factor         :     1.0000 
 a1 scaling factor         :     0.4709 
 s8 scaling factor         :     1.1236 
 a2 scaling factor         :     5.9157 
 ad hoc parameters k1-k3   :    16.0000     1.3333    -4.0000 

 Edisp/kcal,au: -4.037785798510  -0.006434620567 
 E6   /kcal   :  -2.916229160 
 E8   /kcal   :  -1.121556639 
 % E8         :  27.776526412 

-------------------------   ----------------
Dispersion correction           -0.006434621
-------------------------   ----------------


-------------------------   --------------------
FINAL SINGLE POINT ENERGY      -424.199788813502
-------------------------   --------------------



           ************************************************************
           *        Program running with 4 parallel MPI-processes     *
           *              working on a common directory               *
           ************************************************************

------------------------------------------------------------------------------
                              ORCA PROPERTY CALCULATIONS
------------------------------------------------------------------------------

GBWName                                 ... cs_rporg_142_red_solv_04.gbw
Number of atoms                         ...     20
Number of basis functions               ...    750
Max core memory                         ...   3000 MB

Electric properties:
Dipole moment                           ... YES
Quadrupole moment                       ...  NO
Static polarizability (Dipole/Dipole)   ...  NO
Static polarizability (Dipole/Quad.)    ...  NO
Static polarizability (Quad./Quad.)     ...  NO
Static polarizability (Velocity)        ...  NO

Atomic electric properties:
Dipole moment                           ...  NO
Quadrupole moment                       ...  NO
Static polarizability                   ...  NO

Choice of electric origin               ... Center of mass
Position of electric origin             ...     0.016780    -0.008802     0.021350

General magnetic properties:
Magnetizability                         ...  NO

EPR properties:
g-Tensor (aka g-matrix)                 ...  NO
Zero-Field splitting spin-orbit         ...  NO
Zero-field splitting spin-spin          ...  NO
Hyperfine couplings                     ...  NO (   0 nuclei)
Quadrupole couplings                    ...  NO (   0 nuclei)
Contact density                         ...  NO (   0 nuclei)

NMR properties:
Chemical shifts                         ...  NO (   0 nuclei)
Spin-rotation constants                 ...  NO (   0 nuclei)
Spin-spin couplings                     ...  NO (   0 nuclei,    0 pairs)

Choice of magnetic origin               ... GIAO
Position of magnetic origin             ...     0.000000     0.000000     0.000000

Properties with geometric perturbations:
SCF Hessian                             ...  NO
IR spectrum                             ...  NO
VCD spectrum                            ...  NO
X-ray spectroscopy properties:
SCF XES/XAS/RIXS spectra                ...  NO


-------------
DIPOLE MOMENT
-------------

Method             : SCF
Type of density    : Electron Density
Multiplicity       :   2
Irrep              :   0
Energy             :  -424.1933541929350326 Eh
Relativity type    : 
Basis              : AO
                                X                 Y                 Z
Electronic contribution:      3.064676528      -3.046459993       0.103079112
Nuclear contribution   :     -5.565601107       4.473854075      -0.154054051
                        -----------------------------------------
Total Dipole Moment    :     -2.500924579       1.427394082      -0.050974938
                        -----------------------------------------
Magnitude (a.u.)       :      2.880047926
Magnitude (Debye)      :      7.320500059



--------------------
Rotational spectrum 
--------------------
 
Rotational constants in cm-1:             0.119092             0.025902             0.021447 
Rotational constants in MHz :          3570.280980           776.510270           642.950997 

Dipole components along the rotational axes: 
x,y,z [a.u.] :    -2.503904     1.423074     0.000449 
x,y,z [Debye]:    -6.364418     3.617167     0.001140 

 

Dipole moment calculation done in   0.1 sec 

Maximum memory used throughout the entire PROP-calculation: 67.3 MB

--------------------------------
SUGGESTED CITATIONS FOR THIS RUN
--------------------------------

Below you find a list of papers that are relevant to this ORCA run
We neither can nor want to force you to cite these papers, but we appreciate if you do
You receive ORCA, which is the product of decades of hard work by many enthusiastic individuals, for free
The only thing we kindly ask in return is that you cite our papers,
We deeply appreciate it, if you show your appreciation for ORCA by not just citing the generic ORCA reference.

Please note that relegating all ORCA citations to the supporting information does *not* help us.
SI sections are not indexed - citations you put there will not count into any citation statistics
But we need these citations in order to attract the funding resources that allow us to do what we are doing

Therefore, if you are a happy ORCA user, please consider citing a few of the papers listed below in the main body of your paper

In addition to the list printed below, the program has created the file cs_rporg_142_red_solv_04.bibtex that contains the list in bibtex format
You can import this file easily into all common literature databanks and citation aid programs


List of essential papers. We consider these as the minimum necessary citations

  1. Neese,F.
     Software update: the ORCA program system, version 5.0
     WIRES Comput. Molec. Sci., 2022 12(1)e1606
     doi.org/10.1002/wcms.1606

List of papers to cite with high priority. The work reported in these papers was absolutely
necessary for this run to complete.
Our perspective: the developers of density functionals and basis sets usually get cited in chemistry papers
Good! But without the algorithms to do something with them, the functionals or basis sets would not do anything.
Hence, in our opinion, the algorithm design and method developments papers are equally worthy of getting cited

  1. Neese,F.
     An improvement of the resolution of the identity approximation for the formation of the Coulomb matrix
     J. Comp. Chem., 2003 24(14)1740-1747
     doi.org/10.1002/jcc.10318
  2. Neese,F.; Wennmohs,F.; Hansen,A.; Becker,U.
     Efficient, approximate and parallel Hartree-Fock and hybrid DFT calculations. A 'chain-of-spheres' algorithm for the Hartree-Fock exchange
     Chem. Phys., 2009 356(1-3)98-109
     doi.org/10.1016/j.chemphys.2008.10.036
  3. Garcia-Rates,M.; Neese,F.
     Effect of the Solute Cavity on the Solvation Energy and its Derivatives within the Framework of the Gaussian Charge Scheme
     J. Comput. Chem., 2020 41 922-939
     doi.org/10.1002/jcc.26139
  4. Helmich-Paris,B.; de Souza,B.; Neese,F.; Izsák,R.
     An improved chain of spheres for exchange algorithm
     J. Chem. Phys., 2021 155 104109
     doi.org/doi: 10.1063/5.0058766.
  5. Neese,F.
     The SHARK Integral Generation and Digestion System
     J. Comp. Chem., 2022  1-16
     doi.org/10.1002/jcc.26942
  6. Lehtola,S.; Steigemann,C.; Oliveira,M.; Marques,M.
     Recent developments in Libxc - A comprehensive library of functionals for density functional theory
     Software X, 2018 7 
     doi.org/10.1016/j.softx.2017.11.002
  7. Grimme,S.; Antony,J.; Ehrlich,S.; Krieg,H.
     A consistent and accurate ab initio parametrization of density functional dispersion correction (DFT-D) for the 94 elements H-Pu
     J. Chem. Phys., 2010 132 154104-XXXX
     doi.org/10.1063/1.3382344
  8. Grimme,S.; Ehrlich,S.; Goerigk,L.
     Effect of the damping function in dispersion corrected density functional theory
     J. Comput. Chem., 2011 32(7)1456-1465
     doi.org/10.1002/jcc.21759
  9. Bursch,M.; Neugebauer,H.; Ehlert,S.; Grimme,S.
     Dispersion corrected r2SCAN based global hybrid functionals: r2SCANh, r2SCAN0, and r2SCAN50
     J. Phys. Chem., 2022 156(13)134105
     doi.org/10.1063/5.0086040

List of suggested additional citations. These are papers that are important in the 'surrounding' of 
of this run, or papers that preceded the highly important papers. If you like your results we are grateful for a citation.

  1. Izsak,R.; Neese,F.
     An overlap fitted chain of spheres exchange method
     J. Chem. Phys., 2011 135 144105
     doi.org/10.1063/1.3646921
  2. Izsak,R.; Hansen,A.; Neese,F.
     The resolution of identity and chain of spheres approximations for the LPNO-CCSD singles Fock term
     Molec. Phys., 2012 110 2413-2417
     doi.org/10.1080/00268976.2012.687466
  3. Neese,F.
     The ORCA program system
     WIRES Comput. Molec. Sci., 2012 2(1)73-78
     doi.org/10.1002/wcms.81
  4. Izsak,R.; Neese,F.; Klopper,W.
     Robust fitting techniques in the chain of spheres approximation to the Fock exchange: The role of the complementary space
     J. Chem. Phys., 2013 139 
     doi.org/10.1063/1.4819264
  5. Neese,F.
     Software update: the ORCA program system, version 4.0
     WIRES Comput. Molec. Sci., 2018 8(1)1-6
     doi.org/10.1002/wcms.1327
  6. Neese,F.; Wennmohs,F.; Becker,U.; Riplinger,C.
     The ORCA quantum chemistry program package
     J. Chem. Phys., 2020 152 Art. No. L224108
     doi.org/10.1063/5.0004608
  7. Wittmann,L.; Neugebauer,H.; Grimme,S.; Bursch,M.
     Dispersion-corrected r2SCAN based double-hybrid functionals
     J. Chem. Phys., 2023 159(22)224103
     doi.org/10.1063/5.0174988

List of optional additional citations

  1. Neese,F.
     Approximate second-order SCF convergence for spin unrestricted wavefunctions
     Chem. Phys. Lett., 2000 325(1-3)93-98
     doi.org/10.1016/s0009-2614(00)00662-x

Timings for individual modules:

Sum of individual times          ...      545.864 sec (=   9.098 min)
Startup calculation              ...       10.037 sec (=   0.167 min)   1.8 %
SCF iterations                   ...      533.971 sec (=   8.900 min)  97.8 %
Property calculations            ...        1.856 sec (=   0.031 min)   0.3 %
                             ****ORCA TERMINATED NORMALLY****
TOTAL RUN TIME: 0 days 0 hours 9 minutes 8 seconds 405 msec
