 vasp.6.3.2 27Jun22 (build Oct 25 2024 11:36:28) complex                        
  
 executed on             LinuxIFC date 2025.09.09  15:53:55
 running on   90 total cores
 distrk:  each k-point on   90 cores,    1 groups
 distr:  one band on NCORE=  10 cores,    9 groups


--------------------------------------------------------------------------------------------------------


 INCAR:
   SYSTEM = 070_red
   ISTART = 1
   ICHARG = 2
   INIWAV = 1
   LHFCALC = .TRUE.
   HFSCREEN = 0.2
   NELM = 500
   ALGO = Damped
   ISPIN = 2
   EDIFF = 1E-05
   ISMEAR = 0
   SIGMA = 0.05
   PREC = accurate
   ENCUT = 500
   LREAL = auto  	
   LDIAG = .FALSE.
   LWAVE = .TRUE.
   LCHARG = .FALSE.
   LAECHG = .FALSE.
   LVHAR = .FALSE.
   LVTOT = .FALSE.
   EDIFFG = -0.02
   IBRION = 2
   NSW = 0
   ISIF = 2
   POTIM = 0.5
   IVDW = 12
   VDW_A1 = 0.383
   VDW_S8 = 2.310
   VDW_A2 = 5.685
   LPLANE = .TRUE.
   NCORE = 10
   LSCALU = .FALSE.
   NSIM = 4
   LSOL = .TRUE.
   ISOL = 2
   R_SOLV = 2.1900
   EPSILON_INF = 1.8069
   N_MOL = 0.0115
   P_MOL = 0.82
   EB_K = 35.6880

 POTCAR:    PAW_PBE C 08Apr2002                   
 POTCAR:    PAW_PBE N 08Apr2002                   
 POTCAR:    PAW_PBE O 08Apr2002                   
 POTCAR:    PAW_PBE H 15Jun2001                   
 -----------------------------------------------------------------------------
|                                                                             |
|           W    W    AA    RRRRR   N    N  II  N    N   GGGG   !!!           |
|           W    W   A  A   R    R  NN   N  II  NN   N  G    G  !!!           |
|           W    W  A    A  R    R  N N  N  II  N N  N  G       !!!           |
|           W WW W  AAAAAA  RRRRR   N  N N  II  N  N N  G  GGG   !            |
|           WW  WW  A    A  R   R   N   NN  II  N   NN  G    G                |
|           W    W  A    A  R    R  N    N  II  N    N   GGGG   !!!           |
|                                                                             |
|     You use a magnetic or noncollinear calculation, but did not specify     |
|     the initial magnetic moment with the MAGMOM tag. Note that a            |
|     default of 1 will be used for all atoms. This ferromagnetic setup       |
|     may break the symmetry of the crystal, in particular it may rule        |
|     out finding an antiferromagnetic solution. Thence, we recommend         |
|     setting the initial magnetic moment manually or verifying carefully     |
|     that this magnetic setup is desired.                                    |
|                                                                             |
 -----------------------------------------------------------------------------

 POTCAR:    PAW_PBE C 08Apr2002                   
   SHA256 =  253f7b50bb8d59471dbedb8285d89021f4a42ed1a2c5d38a03a736e69125dd95 C/POTCAR              
   COPYR  = (c) Copyright 08Apr2002 Georg Kresse                                                    
   COPYR  = This file is part of the software VASP. Any use, copying, and all other rights are regul
   COPYR  = If you do not have a valid VASP license, you may not use, copy or distribute this file. 
   VRHFIN =C: s2p2                                                                                  
   LEXCH  = PE                                                                                      
   EATOM  =   147.1560 eV,   10.8157 Ry                                                             
                                                                                                    
   TITEL  = PAW_PBE C 08Apr2002                                                                     
   LULTRA =        F    use ultrasoft PP ?                                                          
   IUNSCR =        1    unscreen: 0-lin 1-nonlin 2-no                                               
   RPACOR =    1.200    partial core radius                                                         
   POMASS =   12.011; ZVAL   =    4.000    mass and valenz                                          
   RCORE  =    1.500    outmost cutoff radius                                                       
   RWIGS  =    1.630; RWIGS  =    0.863    wigner-seitz radius (au A)                               
   ENMAX  =  400.000; ENMIN  =  300.000 eV                                                          
   ICORE  =        2    local potential                                                             
   LCOR   =        T    correct aug charges                                                         
   LPAW   =        T    paw PP                                                                      
   EAUG   =  644.873                                                                                
   DEXC   =    0.000                                                                                
   RMAX   =    1.529    core radius for proj-oper                                                   
   RAUG   =    1.300    factor for augmentation sphere                                              
   RDEP   =    1.501    radius for radial grids                                                     
   RDEPT  =    1.300    core radius for aug-charge                                                  
                                                                                                    
   Atomic configuration                                                                             
    4 entries                                                                                       
     n  l   j            E        occ.                                                              
     1  0  0.50      -273.3789   2.0000                                                             
     2  0  0.50       -13.7508   2.0000                                                             
     2  1  0.50        -5.2854   2.0000                                                             
     3  2  1.50        -5.4423   0.0000                                                             
   Description                                                                                      
     l       E           TYP  RCUT    TYP  RCUT                                                     
     0    -13.7508458     23  1.200                                                                 
     0     -8.2022199     23  1.200                                                                 
     1     -5.2854383     23  1.500                                                                 
     1     34.0145650     23  1.500                                                                 
     2     -5.4423304      7  1.500                                                                 
  local pseudopotential read in
  partial core-charges read in
  partial kinetic energy density read in
  atomic valenz-charges read in
  non local Contribution for L=           0  read in
    real space projection operators read in
  non local Contribution for L=           0  read in
    real space projection operators read in
  non local Contribution for L=           1  read in
    real space projection operators read in
  non local Contribution for L=           1  read in
    real space projection operators read in
    PAW grid and wavefunctions read in
 
   number of l-projection  operators is LMAX  =           4
   number of lm-projection operators is LMMAX =           8
 
 POTCAR:    PAW_PBE N 08Apr2002                   
   SHA256 =  e053789ff3a61a86a1b75d8a110fcc91f86041011e7b0817c7c99e4e8a6349d7 N/POTCAR              
   COPYR  = (c) Copyright 08Apr2002 Georg Kresse                                                    
   COPYR  = This file is part of the software VASP. Any use, copying, and all other rights are regul
   COPYR  = If you do not have a valid VASP license, you may not use, copy or distribute this file. 
   VRHFIN =N: s2p3                                                                                  
   LEXCH  = PE                                                                                      
   EATOM  =   264.5486 eV,   19.4438 Ry                                                             
                                                                                                    
   TITEL  = PAW_PBE N 08Apr2002                                                                     
   LULTRA =        F    use ultrasoft PP ?                                                          
   IUNSCR =        1    unscreen: 0-lin 1-nonlin 2-no                                               
   RPACOR =    1.200    partial core radius                                                         
   POMASS =   14.001; ZVAL   =    5.000    mass and valenz                                          
   RCORE  =    1.500    outmost cutoff radius                                                       
   RWIGS  =    1.400; RWIGS  =    0.741    wigner-seitz radius (au A)                               
   ENMAX  =  400.000; ENMIN  =  300.000 eV                                                          
   ICORE  =        2    local potential                                                             
   LCOR   =        T    correct aug charges                                                         
   LPAW   =        T    paw PP                                                                      
   EAUG   =  627.112                                                                                
   DEXC   =    0.000                                                                                
   RMAX   =    1.529    core radius for proj-oper                                                   
   RAUG   =    1.300    factor for augmentation sphere                                              
   RDEP   =    1.514    radius for radial grids                                                     
   RDEPT  =    1.338    core radius for aug-charge                                                  
                                                                                                    
   Atomic configuration                                                                             
    4 entries                                                                                       
     n  l   j            E        occ.                                                              
     1  0  0.50      -384.7179   2.0000                                                             
     2  0  0.50       -18.5828   2.0000                                                             
     2  1  0.50        -7.0898   3.0000                                                             
     3  2  1.50        -6.8029   0.0000                                                             
   Description                                                                                      
     l       E           TYP  RCUT    TYP  RCUT                                                     
     0    -18.5828119     23  1.200                                                                 
     0    -13.5018863     23  1.200                                                                 
     1     -7.0897853     23  1.500                                                                 
     1      9.5240782     23  1.500                                                                 
     2     -6.8029130      7  1.500                                                                 
  local pseudopotential read in
  partial core-charges read in
  partial kinetic energy density read in
  atomic valenz-charges read in
  non local Contribution for L=           0  read in
    real space projection operators read in
  non local Contribution for L=           0  read in
    real space projection operators read in
  non local Contribution for L=           1  read in
    real space projection operators read in
  non local Contribution for L=           1  read in
    real space projection operators read in
    PAW grid and wavefunctions read in
 
   number of l-projection  operators is LMAX  =           4
   number of lm-projection operators is LMMAX =           8
 
 POTCAR:    PAW_PBE O 08Apr2002                   
   SHA256 =  818f92134a0a090dccd8ba1447fa70422a3b330e708bb4f08108d8ae51209ddf O/POTCAR              
   COPYR  = (c) Copyright 08Apr2002 Georg Kresse                                                    
   COPYR  = This file is part of the software VASP. Any use, copying, and all other rights are regul
   COPYR  = If you do not have a valid VASP license, you may not use, copy or distribute this file. 
   VRHFIN =O: s2p4                                                                                  
   LEXCH  = PE                                                                                      
   EATOM  =   432.3788 eV,   31.7789 Ry                                                             
                                                                                                    
   TITEL  = PAW_PBE O 08Apr2002                                                                     
   LULTRA =        F    use ultrasoft PP ?                                                          
   IUNSCR =        1    unscreen: 0-lin 1-nonlin 2-no                                               
   RPACOR =    1.200    partial core radius                                                         
   POMASS =   16.000; ZVAL   =    6.000    mass and valenz                                          
   RCORE  =    1.520    outmost cutoff radius                                                       
   RWIGS  =    1.550; RWIGS  =    0.820    wigner-seitz radius (au A)                               
   ENMAX  =  400.000; ENMIN  =  300.000 eV                                                          
   ICORE  =        2    local potential                                                             
   LCOR   =        T    correct aug charges                                                         
   LPAW   =        T    paw PP                                                                      
   EAUG   =  605.392                                                                                
   DEXC   =    0.000                                                                                
   RMAX   =    1.553    core radius for proj-oper                                                   
   RAUG   =    1.300    factor for augmentation sphere                                              
   RDEP   =    1.550    radius for radial grids                                                     
   RDEPT  =    1.329    core radius for aug-charge                                                  
                                                                                                    
   Atomic configuration                                                                             
    4 entries                                                                                       
     n  l   j            E        occ.                                                              
     1  0  0.50      -514.6923   2.0000                                                             
     2  0  0.50       -23.9615   2.0000                                                             
     2  1  0.50        -9.0305   4.0000                                                             
     3  2  1.50        -9.5241   0.0000                                                             
   Description                                                                                      
     l       E           TYP  RCUT    TYP  RCUT                                                     
     0    -23.9615318     23  1.200                                                                 
     0     -9.5240782     23  1.200                                                                 
     1     -9.0304911     23  1.520                                                                 
     1      8.1634956     23  1.520                                                                 
     2     -9.5240782      7  1.500                                                                 
  local pseudopotential read in
  partial core-charges read in
  partial kinetic energy density read in
  kinetic energy density of atom read in
  atomic valenz-charges read in
  non local Contribution for L=           0  read in
    real space projection operators read in
  non local Contribution for L=           0  read in
    real space projection operators read in
  non local Contribution for L=           1  read in
    real space projection operators read in
  non local Contribution for L=           1  read in
    real space projection operators read in
    PAW grid and wavefunctions read in
 
   number of l-projection  operators is LMAX  =           4
   number of lm-projection operators is LMMAX =           8
 
 POTCAR:    PAW_PBE H 15Jun2001                   
   SHA256 =  030f79b5d3ab3cf0e668861823c8fb652ff669f3e15e46930bd03bfd63a607b6 H/POTCAR              
   COPYR  = (c) Copyright 15Jun2001 Georg Kresse                                                    
   COPYR  = This file is part of the software VASP. Any use, copying, and all other rights are regul
   COPYR  = If you do not have a valid VASP license, you may not use, copy or distribute this file. 
   VRHFIN =H: ultrasoft test                                                                        
   LEXCH  = PE                                                                                      
   EATOM  =    12.4884 eV,    0.9179 Ry                                                             
                                                                                                    
   TITEL  = PAW_PBE H 15Jun2001                                                                     
   LULTRA =        F    use ultrasoft PP ?                                                          
   IUNSCR =        0    unscreen: 0-lin 1-nonlin 2-no                                               
   RPACOR =    0.000    partial core radius                                                         
   POMASS =    1.000; ZVAL   =    1.000    mass and valenz                                          
   RCORE  =    1.100    outmost cutoff radius                                                       
   RWIGS  =    0.700; RWIGS  =    0.370    wigner-seitz radius (au A)                               
   ENMAX  =  250.000; ENMIN  =  200.000 eV                                                          
   RCLOC  =    0.701    cutoff for local pot                                                        
   LCOR   =        T    correct aug charges                                                         
   LPAW   =        T    paw PP                                                                      
   EAUG   =  400.000                                                                                
   RMAX   =    1.123    core radius for proj-oper                                                   
   RAUG   =    1.200    factor for augmentation sphere                                              
   RDEP   =    1.112    radius for radial grids                                                     
   RDEPT  =    0.926    core radius for aug-charge                                                  
                                                                                                    
   Atomic configuration                                                                             
    2 entries                                                                                       
     n  l   j            E        occ.                                                              
     1  0  0.50        -6.4927   1.0000                                                             
     2  1  0.50        -3.4015   0.0000                                                             
   Description                                                                                      
     l       E           TYP  RCUT    TYP  RCUT                                                     
     0     -6.4927494     23  1.100                                                                 
     0      6.8029130     23  1.100                                                                 
     1     -4.0817478     23  1.100                                                                 
  local pseudopotential read in
  atomic valenz-charges read in
  non local Contribution for L=           0  read in
    real space projection operators read in
  non local Contribution for L=           0  read in
    real space projection operators read in
  non local Contribution for L=           1  read in
    real space projection operators read in
    PAW grid and wavefunctions read in
 
   number of l-projection  operators is LMAX  =           3
   number of lm-projection operators is LMMAX =           5
 
 Optimization of the real space projectors (new method)

 maximal supplied QI-value         = 25.13
 optimisation between [QCUT,QGAM] = [ 11.31, 22.87] = [ 35.82,146.48] Ry 
 Optimized for a Real-space Cutoff    1.03 Angstroem

   l    n(q)    QCUT    max X(q) W(low)/X(q) W(high)/X(q)  e(spline) 
   0      7    11.310   115.676    0.20E-03    0.90E-03    0.20E-06
   0      7    11.310    87.132    0.20E-03    0.89E-03    0.19E-06
   1      6    11.310     4.429    0.16E-03    0.28E-03    0.12E-06
   1      6    11.310     2.733    0.12E-03    0.21E-03    0.99E-07
 Optimization of the real space projectors (new method)

 maximal supplied QI-value         = 25.13
 optimisation between [QCUT,QGAM] = [ 11.31, 22.87] = [ 35.82,146.48] Ry 
 Optimized for a Real-space Cutoff    1.43 Angstroem

   l    n(q)    QCUT    max X(q) W(low)/X(q) W(high)/X(q)  e(spline) 
   0     10    11.310    79.467    0.42E-04    0.81E-04    0.60E-06
   0     10    11.310    66.151    0.40E-04    0.81E-04    0.60E-06
   1      9    11.310    17.416    0.14E-03    0.88E-04    0.14E-05
   1      9    11.310    12.382    0.15E-03    0.93E-04    0.14E-05
 Optimization of the real space projectors (new method)

 maximal supplied QI-value         = 24.76
 optimisation between [QCUT,QGAM] = [ 11.39, 22.77] = [ 36.31,145.25] Ry 
 Optimized for a Real-space Cutoff    1.10 Angstroem

   l    n(q)    QCUT    max X(q) W(low)/X(q) W(high)/X(q)  e(spline) 
   0      7    11.387    20.381    0.22E-03    0.48E-03    0.18E-06
   0      7    11.387    15.268    0.22E-03    0.52E-03    0.19E-06
   1      7    11.387     5.964    0.22E-03    0.73E-03    0.24E-06
   1      7    11.387     5.382    0.19E-03    0.60E-03    0.21E-06
 Optimization of the real space projectors (new method)

 maximal supplied QI-value         = 34.20
 optimisation between [QCUT,QGAM] = [ 11.29, 22.57] = [ 35.68,142.71] Ry 
 Optimized for a Real-space Cutoff    1.20 Angstroem

   l    n(q)    QCUT    max X(q) W(low)/X(q) W(high)/X(q)  e(spline) 
   0      8    11.287    19.460    0.22E-03    0.50E-03    0.19E-06
   0      8    11.287    12.209    0.21E-03    0.48E-03    0.18E-06
   1      8    11.287     4.655    0.21E-03    0.11E-04    0.26E-06
  PAW_PBE C 08Apr2002                   :
 energy of atom  1       EATOM= -147.1560
 kinetic energy error for atom=    0.0076 (will be added to EATOM!!)
  PAW_PBE N 08Apr2002                   :
 energy of atom  2       EATOM= -264.5486
 kinetic energy error for atom=    0.0138 (will be added to EATOM!!)
  PAW_PBE O 08Apr2002                   :
 energy of atom  3       EATOM= -432.3788
 kinetic energy error for atom=    0.0224 (will be added to EATOM!!)
  PAW_PBE H 15Jun2001                   :
 energy of atom  4       EATOM=  -12.4884
 kinetic energy error for atom=    0.0020 (will be added to EATOM!!)
 
 
 POSCAR: C N O H
  positions in direct lattice
  velocities in cartesian coordinates
 exchange correlation table for  LEXCH =        8
   RHO(1)=    0.500       N(1)  =     2000
   RHO(2)=  100.500       N(2)  =     4000
 
 POSCAR: C N O H
  positions in direct lattice
  velocities in cartesian coordinates
 
 POSCAR: C N O H
  positions in direct lattice
  velocities in cartesian coordinates
 


--------------------------------------------------------------------------------------------------------


 ion  position               nearest neighbor table
   1  0.545  0.524  0.501-  18 1.09   2 1.39   6 1.41
   2  0.516  0.543  0.501-  17 1.09   1 1.39   3 1.40
   3  0.485  0.528  0.501-  16 1.09   2 1.40   4 1.40
   4  0.483  0.493  0.501-   9 1.37   5 1.40   3 1.40
   5  0.512  0.473  0.501-  12 1.09   4 1.40   6 1.40
   6  0.543  0.489  0.501-   8 1.39   5 1.40   1 1.41
   7  0.423  0.493  0.501-  13 1.09  15 1.10  14 1.10   9 1.43
   8  0.572  0.469  0.502-  11 1.01  10 1.01   6 1.39
   9  0.453  0.475  0.501-   4 1.37   7 1.43
  10  0.570  0.445  0.494-   8 1.01
  11  0.594  0.480  0.494-   8 1.01
  12  0.509  0.446  0.501-   5 1.09
  13  0.403  0.475  0.501-   7 1.09
  14  0.420  0.509  0.478-   7 1.10
  15  0.421  0.509  0.523-   7 1.10
  16  0.462  0.543  0.501-   3 1.09
  17  0.518  0.570  0.501-   2 1.09
  18  0.570  0.536  0.501-   1 1.09
 
  LATTYP: Found a simple cubic cell.
 ALAT       =    40.0000000000
  
  Lattice vectors:
  
 A1 = (  40.0000000000,   0.0000000000,   0.0000000000)
 A2 = (   0.0000000000,  40.0000000000,   0.0000000000)
 A3 = (   0.0000000000,   0.0000000000,  40.0000000000)


Analysis of symmetry for initial positions (statically):
=====================================================================
 Subroutine PRICEL returns:
 Original cell was already a primitive cell.
 

 Routine SETGRP: Setting up the symmetry group for a 
 simple cubic supercell.


 Subroutine GETGRP returns: Found  1 space group operations
 (whereof  1 operations were pure point group operations)
 out of a pool of 48 trial point group operations.


The static configuration has the point symmetry C_1 .


Analysis of symmetry for dynamics (positions and initial velocities):
=====================================================================
 Subroutine PRICEL returns:
 Original cell was already a primitive cell.
 

 Routine SETGRP: Setting up the symmetry group for a 
 simple cubic supercell.


 Subroutine GETGRP returns: Found  1 space group operations
 (whereof  1 operations were pure point group operations)
 out of a pool of 48 trial point group operations.


The dynamic configuration has the point symmetry C_1 .


Analysis of constrained symmetry for selective dynamics:
=====================================================================
 Subroutine PRICEL returns:
 Original cell was already a primitive cell.
 

 Routine SETGRP: Setting up the symmetry group for a 
 simple cubic supercell.


 Subroutine GETGRP returns: Found  1 space group operations
 (whereof  1 operations were pure point group operations)
 out of a pool of 48 trial point group operations.


The constrained configuration has the point symmetry C_1 .


Analysis of structural, dynamic, and magnetic symmetry:
=====================================================================
 Subroutine PRICEL returns:
 Original cell was already a primitive cell.
 

 Routine SETGRP: Setting up the symmetry group for a 
 simple cubic supercell.


 Subroutine GETGRP returns: Found  1 space group operations
 (whereof  1 operations were pure point group operations)
 out of a pool of 48 trial point group operations.


The overall configuration has the point symmetry C_1 .


 Subroutine INISYM returns: Found  1 space group operations
 (whereof  1 operations are pure point group operations),
 and found     1 'primitive' translations


----------------------------------------------------------------------------------------

                                     Primitive cell                                     

  volume of cell :   64000.0000

  direct lattice vectors                    reciprocal lattice vectors
    40.000000000  0.000000000  0.000000000     0.025000000  0.000000000  0.000000000
     0.000000000 40.000000000  0.000000000     0.000000000  0.025000000  0.000000000
     0.000000000  0.000000000 40.000000000     0.000000000  0.000000000  0.025000000

  length of vectors
    40.000000000 40.000000000 40.000000000     0.025000000  0.025000000  0.025000000

  position of ions in fractional coordinates (direct lattice)
     0.545438594  0.523792827  0.500575433
     0.516251891  0.542686493  0.500619685
     0.484558827  0.527775073  0.500704557
     0.482723303  0.492743462  0.500689599
     0.511877522  0.473349734  0.500602717
     0.543461705  0.488546604  0.500568244
     0.422781961  0.493355959  0.500724580
     0.572339369  0.469198537  0.502046782
     0.453374819  0.474894772  0.500639174
     0.570179773  0.445147953  0.494344624
     0.593642615  0.480214213  0.493851683
     0.509470174  0.446178257  0.500570923
     0.402801358  0.474643511  0.500721019
     0.420474609  0.509180409  0.478287524
     0.420559809  0.509100019  0.523223633
     0.462214452  0.543262207  0.500676886
     0.518027606  0.569909637  0.500557181
     0.569822614  0.536019333  0.500594755

  ion indices of the primitive-cell ions
   primitive index   ion index
                 1           1
                 2           2
                 3           3
                 4           4
                 5           5
                 6           6
                 7           7
                 8           8
                 9           9
                10          10
                11          11
                12          12
                13          13
                14          14
                15          15
                16          16
                17          17
                18          18

----------------------------------------------------------------------------------------

 
 
 KPOINTS: K-Point Grid                            

Automatic generation of k-mesh.
 Grid dimensions read from file:
 generate k-points for:    1    1    1

 Generating k-lattice:

  Cartesian coordinates                     Fractional coordinates (reciprocal lattice)
     0.025000000  0.000000000  0.000000000     1.000000000  0.000000000  0.000000000
     0.000000000  0.025000000  0.000000000     0.000000000  1.000000000  0.000000000
     0.000000000  0.000000000  0.025000000     0.000000000  0.000000000  1.000000000

  Length of vectors
     0.025000000  0.025000000  0.025000000

  Shift w.r.t. Gamma in fractional coordinates (k-lattice)
     0.000000000  0.000000000  0.000000000

 
 Subroutine IBZKPT returns following result:
 ===========================================
 
 Found      1 irreducible k-points:
 
 Following reciprocal coordinates:
            Coordinates               Weight
  0.000000  0.000000  0.000000      1.000000
 
 Following cartesian coordinates:
            Coordinates               Weight
  0.000000  0.000000  0.000000      1.000000
 
 
 Subroutine IBZKPT_HF returns following result:
 ==============================================
 
 Found      1 k-points in 1st BZ
 the following      1 k-points will be used (e.g. in the exchange kernel)
 Following reciprocal coordinates:   # in IRBZ
  0.000000  0.000000  0.000000    1.00000000   1 t-inv F


--------------------------------------------------------------------------------------------------------




 Dimension of arrays:
   k-points           NKPTS =      1   k-points in BZ     NKDIM =      1   number of bands    NBANDS=     45
   number of dos      NEDOS =    301   number of ions     NIONS =     18
   non local maximal  LDIM  =      4   non local SUM 2l+1 LMDIM =      8
   total plane-waves  NPLWV = ******
   max r-space proj   IRMAX =   4928   max aug-charges    IRDMAX=   5350
   dimension x,y,z NGX =   294 NGY =  294 NGZ =  294
   dimension x,y,z NGXF=   588 NGYF=  588 NGZF=  588
   support grid    NGXF=   588 NGYF=  588 NGZF=  588
   ions per type =               7   1   1   9
   NGX,Y,Z   is equivalent  to a cutoff of  12.22, 12.22, 12.22 a.u.
   NGXF,Y,Z  is equivalent  to a cutoff of  24.44, 24.44, 24.44 a.u.

 SYSTEM =  070_red                                 
 POSCAR =  C N O H                                 

 Startparameter for this run:
   NWRITE =      2    write-flag & timer
   PREC   = accura    normal or accurate (medium, high low for compatibility)
   ISTART =      1    job   : 0-new  1-cont  2-samecut
   ICHARG =      2    charge: 1-file 2-atom 10-const
   ISPIN  =      2    spin polarized calculation?
   LNONCOLLINEAR =      F non collinear calculations
   LSORBIT =      F    spin-orbit coupling
   INIWAV =      1    electr: 0-lowe 1-rand  2-diag
   LASPH  =      F    aspherical Exc in radial PAW
 Electronic Relaxation 1
   ENCUT  =  500.0 eV  36.75 Ry    6.06 a.u.  72.93 72.93 72.93*2*pi/ulx,y,z
   ENINI  =  500.0     initial cutoff
   ENAUG  =  644.9 eV  augmentation charge cutoff
   NELM   =    500;   NELMIN=  2; NELMDL=  0     # of ELM steps 
   EDIFF  = 0.1E-04   stopping-criterion for ELM
   LREAL  =      T    real-space projection
   NLSPLINE    = F    spline interpolate recip. space projectors
   LCOMPAT=      F    compatible to vasp.4.4
   GGA_COMPAT  = T    GGA compatible to vasp.4.4-vasp.4.6
   LMAXPAW     = -100 max onsite density
   LMAXMIX     =    2 max onsite mixed and CHGCAR
   VOSKOWN=      0    Vosko Wilk Nusair interpolation
   ROPT   =   -0.00025  -0.00025  -0.00025  -0.00025
 Ionic relaxation
   EDIFFG = -.2E-01   stopping-criterion for IOM
   NSW    =      0    number of steps for IOM
   NBLOCK =      1;   KBLOCK =      1    inner block; outer block 
   IBRION =     -1    ionic relax: 0-MD 1-quasi-New 2-CG
   NFREE  =      1    steps in history (QN), initial steepest desc. (CG)
   ISIF   =      2    stress and relaxation
   IWAVPR =     10    prediction:  0-non 1-charg 2-wave 3-comb
   ISYM   =      3    0-nonsym 1-usesym 2-fastsym
   LCORR  =      T    Harris-Foulkes like correction to forces

   POTIM  = 0.5000    time-step for ionic-motion
   TEIN   =    0.0    initial temperature
   TEBEG  =    0.0;   TEEND  =   0.0 temperature during run
   SMASS  =  -3.00    Nose mass-parameter (am)
   estimated Nose-frequenzy (Omega)   =  0.10E-29 period in steps = 0.13E+47 mass=  -0.366E-25a.u.
   SCALEE = 1.0000    scale energy and forces
   NPACO  =    256;   APACO  = 10.0  distance and # of slots for P.C.
   PSTRESS=    0.0 pullay stress

  Mass of Ions in am
   POMASS =  12.01 14.00 16.00  1.00
  Ionic Valenz
   ZVAL   =   4.00  5.00  6.00  1.00
  Atomic Wigner-Seitz radii
   RWIGS  =  -1.00 -1.00 -1.00 -1.00
  virtual crystal weights 
   VCA    =   1.00  1.00  1.00  1.00
   NELECT =      48.0000    total number of electrons
   NUPDOWN=      -1.0000    fix difference up-down

 DOS related values:
   EMIN   =  10.00;   EMAX   =-10.00  energy-range for DOS
   EFERMI =   0.00
   ISMEAR =     0;   SIGMA  =   0.05  broadening in eV -4-tet -1-fermi 0-gaus

 Electronic relaxation 2 (details)
   IALGO  =     53    algorithm
   LDIAG  =      F    sub-space diagonalisation (order eigenvalues)
   LSUBROT=      F    optimize rotation matrix (better conditioning)
   TURBO    =      0    0=normal 1=particle mesh
   IRESTART =      0    0=no restart 2=restart with 2 vectors
   NREBOOT  =      0    no. of reboots
   NMIN     =      0    reboot dimension
   EREF     =   0.00    reference energy to select bands
   IMIX   =      4    mixing-type and parameters
     AMIX     =   0.40;   BMIX     =  1.00
     AMIX_MAG =   1.60;   BMIX_MAG =  1.00
     AMIN     =   0.10
     WC   =   100.;   INIMIX=   1;  MIXPRE=   1;  MAXMIX= -45

 Intra band minimization:
   WEIMIN = 0.0000     energy-eigenvalue tresh-hold
   EBREAK =  0.56E-07  absolut break condition
   DEPER  =   0.30     relativ break condition  

   TIME   =   0.40     timestep for ELM

  volume/ion in A,a.u.               =    3555.56     23994.07
  Fermi-wavevector in a.u.,A,eV,Ry     =   0.148740  0.281078  0.301011  0.022124
  Thomas-Fermi vector in A             =   0.822372
 
 Write flags
   LWAVE        =      T    write WAVECAR
   LDOWNSAMPLE  =      F    k-point downsampling of WAVECAR
   LCHARG       =      F    write CHGCAR
   LVTOT        =      F    write LOCPOT, total local potential
   LVHAR        =      F    write LOCPOT, Hartree potential only
   LELF         =      F    write electronic localiz. function (ELF)
   LORBIT       =      0    0 simple, 1 ext, 2 COOP (PROOUT), +10 PAW based schemes


 Dipole corrections
   LMONO  =      F    monopole corrections only (constant potential shift)
   LDIPOL =      F    correct potential (dipole corrections)
   IDIPOL =      0    1-x, 2-y, 3-z, 4-all directions 
   EPSILON=  1.0000000 bulk dielectric constant

 Exchange correlation treatment:
   GGA     =    --    GGA type
   LEXCH   =     8    internal setting for exchange type
   LIBXC   =     F    Libxc                    
   VOSKOWN =     0    Vosko Wilk Nusair interpolation
   EXXOEP  =     0    0=HF, 1=EXX-LHF (local Hartree Fock) 2=EXX OEP
   LHFCALC =     T    Hartree Fock is set to
   LSYMGRAD=     F    symmetrize gradient (conserves proper symmetry)
   PRECFOCK=normal    Normal, Fast or Accurate (Low or Medium for compatibility)
   LRHFCALC=     F    long range Hartree Fock
   LRSCOR  =     F    long range correlation only (use DFT for short range part)
   LTHOMAS =     F    Thomas Fermi screening in HF
   LMODELHF=     F    short range full HF, long range fraction AEXX
   FOCKCORR=     1    mode to apply convergence corrections
   LFOCKACE=     T    use Adeptively-Compressed-Exchange operator
   ENCUT4O =  -1.0   cutoff for four orbital integrals eV
   LMAXFOCK=     4    L truncation for augmentation on plane wave grid
   LMAXFOCKAE=  -1    L truncation for all-electron charge restoration on plane wave grid
   NMAXFOCKAE=   1    number of basis functions for all-electron charge restoration
   LFOCKAEDFT=     F  apply the AE augmentation even for DFT
   NKREDX  =     1    reduce k-point grid by
   NKREDY  =     1    reduce k-point grid by
   NKREDZ  =     1    reduce k-point grid by
   SHIFTRED=     F    shift reduced grid of Gamma
   HFKIDENT=     F    idential grid for each k-point
   ODDONLY =     F    use only odd q-grid points
   EVENONLY=     F    use only even q-grid points
   HFALPHA =   -1.0000 decay constant for conv. correction
   MCALPHA =    0.0000 extent of test-charge in conv. correction in multipole expansion
   AEXX    =    0.2500 exact exchange contribution
   HFSCREEN=    0.2000 screening length (either q_TF or 0.3 A-1)
   HFSCREENC=   0.2000 screening length for correlation (either q_TF or 0.3 A-1)
   HFRCUT  =    0.0000 spherical cutoff for potential kernel
   ALDAX   =    0.7500 LDA exchange part
   AGGAX   =    0.7500 GGA exchange part
   ALDAC   =    1.0000 LDA correlation
   AGGAC   =    1.0000 GGA correlation
   ENCUTFOCK=  -1.0 apply spherical cutoff to Coloumb kernel
   NBANDSGWLOW=     1    first orbital included in HF term
   NBLOCK_FOCK=    64    blocking factor in FOCK_ACC

 Linear response parameters
   LEPSILON=     F    determine dielectric tensor
   LRPA    =     F    only Hartree local field effects (RPA)
   LNABLA  =     F    use nabla operator in PAW spheres
   LVEL    =     F    velocity operator in full k-point grid
   CSHIFT  =0.1000    complex shift for real part using Kramers Kronig
   OMEGAMAX=  -1.0    maximum frequency
   DEG_THRESHOLD= 0.2000000E-02 threshold for treating states as degnerate
   RTIME   =   -0.100 relaxation time in fs
  (WPLASMAI=    0.000 imaginary part of plasma frequency in eV, 0.658/RTIME)
   DFIELD  = 0.0000000 0.0000000 0.0000000 field for delta impulse in time
 
  Optional k-point grid parameters
   LKPOINTS_OPT  =     F    use optional k-point grid
   KPOINTS_OPT_MODE=     1    mode for optional k-point grid
 
 Orbital magnetization related:
   ORBITALMAG=     F  switch on orbital magnetization
   LCHIMAG   =     F  perturbation theory with respect to B field
   DQ        =  0.001000  dq finite difference perturbation B field
   LLRAUG    =     F  two centre corrections for induced B field

 Solvation model:
   LSOL             =     T         switch on solvation model
   LSOL_SCF         =     T         include solvation in SCF
   ISOL             =     2         solvation model type
   EFERMI_ref       =  0.000000         reference Fermi level
   capacitance_init =  1.000000         initial capacitance
 Nonlinear solvation model:
   LNLDIEL     =     T         switch on non-linear dielectric mode
   LNLION      =     T         switch on non-linear ionic mode
   LNLTEST     =     F         test non-linear model in linear regime
   I_NLOC_SOL  =     1         type of nonlocal dielectric response
   NC_K        =  0.015000     cutoff charge density for cavities (1/Angstrom**3)
   TAU         =  0.000879     cavity formation energy (eV/Angstrom**2)
   SIGMA_K     =  0.600000     cavity width
   A_K         =  0.125000     smoothing length (Angstrom)
   R_SOLV      =  2.190000     solvent radius (Angstrom)
   R_CAV       =  0.000000     cavity radius (Angstrom)
   R_DIEL      =  1.000000     dielectric radius (Angstrom)
   R_ION       =  0.000000     ionic radius (Angstrom)
   R_B         =  0.000000     bound charge radius (Angstrom)
   SOLTEMP     =298.000000     solvent temperature (K)
   EB_K        = 35.688000     relative permittivity of the bulk solvent
   EPSILON_INF =  1.806900     optical relative permittivity of bulk solvent
   N_MOL       =  0.011500     molar density of solvent (1/Angstrom**3)
   P_MOL       =  0.820000     solvent dipole moment (e*Angstrom)
   C_MOLAR     =  0.000000     electrolyte concentration (mol/L)
   LAMBDA_D_K  =  0.000000     Debye length (Angstrom)
   ZION        =  1.000000     charge of ions in electrolyte (e)
   D_ION       = -1.000000     minimum ion packing diameter (Angstrom)



--------------------------------------------------------------------------------------------------------


 Static calculation
 charge density and potential will be updated during run
 spin polarized calculation
 Conjugate gradient for all bands (Kresse, et al. variant)
 perform Loewdin sub-space diagonalisation
    ordering is kept fixed
    before iterative eigenvector-optimisation
 modified Broyden-mixing scheme, WC =      100.0
 initial mixing is a Kerker type mixing with AMIX =  0.4000 and BMIX =      1.0000
 Hartree-type preconditioning will be used
 using additional bands           21
 real space projection scheme for non local part
 use partial core corrections
 no Harris-corrections to forces 
 use gradient corrections 
 use of overlap-Matrix (Vanderbilt PP)
 Gauss-broadening in eV      SIGMA  =   0.05


--------------------------------------------------------------------------------------------------------


  energy-cutoff  :      500.00
  volume of cell :    64000.00
      direct lattice vectors                 reciprocal lattice vectors
    40.000000000  0.000000000  0.000000000     0.025000000  0.000000000  0.000000000
     0.000000000 40.000000000  0.000000000     0.000000000  0.025000000  0.000000000
     0.000000000  0.000000000 40.000000000     0.000000000  0.000000000  0.025000000

  length of vectors
    40.000000000 40.000000000 40.000000000     0.025000000  0.025000000  0.025000000


 
 old parameters found on file WAVECAR:
  energy-cutoff  :      500.00
  volume of cell :    64000.00
      direct lattice vectors                 reciprocal lattice vectors
    40.000000000  0.000000000  0.000000000     0.025000000  0.000000000  0.000000000
     0.000000000 40.000000000  0.000000000     0.000000000  0.025000000  0.000000000
     0.000000000  0.000000000 40.000000000     0.000000000  0.000000000  0.025000000

  length of vectors

 
 k-points in units of 2pi/SCALE and weight: K-Point Grid                            
   0.00000000  0.00000000  0.00000000       1.000
 
 k-points in reciprocal lattice and weights: K-Point Grid                            
   0.00000000  0.00000000  0.00000000       1.000
 
 position of ions in fractional coordinates (direct lattice) 
   0.54543859  0.52379283  0.50057543
   0.51625189  0.54268649  0.50061969
   0.48455883  0.52777507  0.50070456
   0.48272330  0.49274346  0.50068960
   0.51187752  0.47334973  0.50060272
   0.54346170  0.48854660  0.50056824
   0.42278196  0.49335596  0.50072458
   0.57233937  0.46919854  0.50204678
   0.45337482  0.47489477  0.50063917
   0.57017977  0.44514795  0.49434462
   0.59364262  0.48021421  0.49385168
   0.50947017  0.44617826  0.50057092
   0.40280136  0.47464351  0.50072102
   0.42047461  0.50918041  0.47828752
   0.42055981  0.50910002  0.52322363
   0.46221445  0.54326221  0.50067689
   0.51802761  0.56990964  0.50055718
   0.56982261  0.53601933  0.50059475
 
 position of ions in cartesian coordinates  (Angst):
  21.81754376 20.95171307 20.02301733
  20.65007565 21.70745970 20.02478741
  19.38235310 21.11100290 20.02818229
  19.30893212 19.70973849 20.02758397
  20.47510086 18.93398935 20.02410870
  21.73846818 19.54186418 20.02272977
  16.91127843 19.73423837 20.02898320
  22.89357475 18.76794148 20.08187130
  18.13499275 18.99579088 20.02556696
  22.80719092 17.80591813 19.77378497
  23.74570461 19.20856852 19.75406730
  20.37880697 17.84713028 20.02283693
  16.11205430 18.98574044 20.02884075
  16.81898435 20.36721636 19.13150094
  16.82239238 20.36400075 20.92894532
  18.48857809 21.73048827 20.02707545
  20.72110423 22.79638547 20.02228723
  22.79290455 21.44077334 20.02379018
 


--------------------------------------------------------------------------------------------------------


 k-point   1 :   0.0000 0.0000 0.0000  plane waves: 1624525

 maximum and minimum number of plane-waves per node :    162473   162437

 maximum number of plane-waves:   1624525
 maximum index in each direction: 
   IXMAX=   72   IYMAX=   72   IZMAX=   72
   IXMIN=  -72   IYMIN=  -72   IZMIN=  -72


 real space projection operators:
  total allocation   :       2188.21 KBytes
  max/ min on nodes  :        220.72        215.56


 parallel 3D FFT for wavefunctions:
    minimum data exchange during FFTs selected (reduces bandwidth)
 parallel 3D FFT for charge:
    minimum data exchange during FFTs selected (reduces bandwidth)


 FFT grid for exact exchange (Hartree Fock) 
  NGX =224; NGY =224; NGZ =224

 
 Radii for the augmentation spheres in the non-local exchange
 for species   1 augmentation radius   0.874 (default was   0.699)
       energy cutoff for augmentation   2000.0
 for species   2 augmentation radius   0.886 (default was   0.709)
       energy cutoff for augmentation   2000.0
 for species   3 augmentation radius   0.902 (default was   0.722)
       energy cutoff for augmentation   2000.0
 for species   4 augmentation radius   0.650 (default was   0.520)
       energy cutoff for augmentation   2000.0

 real space projection operators:
  total allocation   :        444.23 KBytes
  max/ min on nodes  :         52.66         37.41

 Maximum index for augmentation-charges in exchange           74
  SETUP_FOCK is finished

 total amount of memory used by VASP MPI-rank0   775065. kBytes
=======================================================================

   base      :      30000. kBytes
   nonlr-proj:       1985. kBytes
   fftplans  :     224335. kBytes
   grid      :     440727. kBytes
   one-center:         12. kBytes
   HF        :          9. kBytes
   wavefun   :      77997. kBytes
 
     INWAV:  cpu time     12.1987: real time     12.1993
 Broyden mixing: mesh for mixing (old mesh)
   NGX =145   NGY =145   NGZ =145
  (NGX  =588   NGY  =588   NGZ  =588)
  gives a total of ****** points

 initial charge density was supplied:
 charge density of overlapping atoms calculated
 number of electron      48.0000000 magnetization      18.0000000
 charge density for first step will be calculated from the start-wavefunctions


--------------------------------------------------------------------------------------------------------


 Maximum index for non-local projection operator          457
 Maximum index for augmentation-charges          317 (set IRDMAX)


--------------------------------------------------------------------------------------------------------


 initial charge from wavefunction
 First call to EWALD:  gamma=   0.044
 Maximum number of real-space cells 3x 3x 3
 Maximum number of reciprocal cells 3x 3x 3

    FEWALD:  cpu time      0.0024: real time      0.0024


--------------------------------------- Iteration      1(   1)  ---------------------------------------


    POTLOK:  cpu time     18.4839: real time     18.4838
    SETDIJ:  cpu time      0.0665: real time      0.0665
    TRIAL :  cpu time    136.8686: real time    136.8679
    CORREC:  cpu time      0.0117: real time      0.0117
    CHARGE:  cpu time      3.4470: real time      3.4470
    --------------------------------------------
      LOOP:  cpu time    158.9237: real time    158.9233

 eigenvalue-minimisations  :     0
 total energy-change (2. order) :-0.1295203E+03  (-0.3208782E-01)
 number of electron      48.0000006 magnetization      -0.0000000
 augmentation part        1.7350083 magnetization      -0.0000001

 Free energy of the ion-electron system (eV)
  ---------------------------------------------------
  alpha Z        PSCENC =         0.15779290
  Ewald energy   TEWEN  =      4864.57551940
  -Hartree energ DENC   =     -6369.52144136
  -exchange      EXHF   =       112.74701796
  -V(xc)+E(xc)   XCENC  =       130.67700059
  PAW double counting   =      4376.29405261    -4381.78138846
  entropy T*S    EENTRO =        -0.00000000
  eigenvalues    EBANDS =      -679.72853325
  atomic energy  EATOM  =      1817.05969886
  ---------------------------------------------------
  free energy    TOTEN  =      -129.52028075 eV

  energy without entropy =     -129.52028075  energy(sigma->0) =     -129.52028075
  exchange ACFDT corr.  =         0.00000000  see jH, gK, PRB 81, 115126


--------------------------------------------------------------------------------------------------------




--------------------------------------- Iteration      1(   2)  ---------------------------------------


    --------------------------------------------
      INIT:  cpu time      0.6262: real time      0.6262
  FINALIZE:  cpu time    140.9577: real time    140.9614
    --------------------------------------------
    POTLOK:  cpu time    161.8017: real time    161.8054
    SETDIJ:  cpu time      0.0677: real time      0.0677
    TRIAL :  cpu time    136.6857: real time    136.6856
    CORREC:  cpu time      0.3438: real time      0.3438
    CHARGE:  cpu time      2.8877: real time      2.8877
    --------------------------------------------
      LOOP:  cpu time    301.7944: real time    301.8085

 eigenvalue-minimisations  :     0
 total energy-change (2. order) : 0.1449044E+00  (-0.2147977E-01)
 number of electron      48.0000006 magnetization      -0.0000000
 augmentation part        1.7364188 magnetization      -0.0000002

 Free energy of the ion-electron system (eV)
  ---------------------------------------------------
  alpha Z        PSCENC =         0.15779290
  Ewald energy   TEWEN  =      4864.57551940
  -Hartree energ DENC   =     -6371.05057460
  -exchange      EXHF   =       112.77711099
  -V(xc)+E(xc)   XCENC  =       130.70529813
  PAW double counting   =      4370.65900332    -4376.14915180
  entropy T*S    EENTRO =        -0.00000000
  eigenvalues    EBANDS =      -683.84801712
  atomic energy  EATOM  =      1817.05969886
  ---------------------------------------------------
  free energy    TOTEN  =      -129.37537640 eV

  energy without entropy =     -129.37537640  energy(sigma->0) =     -129.37537640
  exchange ACFDT corr.  =         0.00000000  see jH, gK, PRB 81, 115126


--------------------------------------------------------------------------------------------------------




--------------------------------------- Iteration      1(   3)  ---------------------------------------


    --------------------------------------------
      INIT:  cpu time      0.4035: real time      0.4035
  FINALIZE:  cpu time     70.0732: real time     70.0727
    --------------------------------------------
    POTLOK:  cpu time     88.2239: real time     88.2233
    SETDIJ:  cpu time      0.0700: real time      0.0700
    TRIAL :  cpu time    137.9689: real time    137.9679
    CORREC:  cpu time      0.0123: real time      0.0123
    CHARGE:  cpu time      3.4801: real time      3.4800
    --------------------------------------------
      LOOP:  cpu time    229.7683: real time    229.7722

 eigenvalue-minimisations  :     0
 total energy-change (2. order) :-0.1398067E-01  (-0.7007740E-02)
 number of electron      48.0000006 magnetization      -0.0000000
 augmentation part        1.7360712 magnetization      -0.0000001

 Free energy of the ion-electron system (eV)
  ---------------------------------------------------
  alpha Z        PSCENC =         0.15779290
  Ewald energy   TEWEN  =      4864.57551940
  -Hartree energ DENC   =     -6374.13223681
  -exchange      EXHF   =       112.82460570
  -V(xc)+E(xc)   XCENC  =       130.75009007
  PAW double counting   =      4371.62438146    -4377.11884845
  entropy T*S    EENTRO =        -0.00000000
  eigenvalues    EBANDS =      -681.11767614
  atomic energy  EATOM  =      1817.05969886
  ---------------------------------------------------
  free energy    TOTEN  =      -129.38935707 eV

  energy without entropy =     -129.38935707  energy(sigma->0) =     -129.38935707
  exchange ACFDT corr.  =         0.00000000  see jH, gK, PRB 81, 115126


--------------------------------------------------------------------------------------------------------




--------------------------------------- Iteration      1(   4)  ---------------------------------------


    --------------------------------------------
      INIT:  cpu time      0.5960: real time      0.5960
  FINALIZE:  cpu time     66.0188: real time     66.0192
    --------------------------------------------
    POTLOK:  cpu time     84.4897: real time     84.4902
    SETDIJ:  cpu time      0.0709: real time      0.0709
    TRIAL :  cpu time    136.0674: real time    136.0684
    CORREC:  cpu time      0.1866: real time      0.1866
    CHARGE:  cpu time      4.0517: real time      4.0517
    --------------------------------------------
      LOOP:  cpu time    224.8756: real time    224.8825

 eigenvalue-minimisations  :     0
 total energy-change (2. order) :-0.3731032E-02  (-0.1786773E-02)
 number of electron      48.0000006 magnetization      -0.0000000
 augmentation part        1.7353798 magnetization       0.0000000

 Free energy of the ion-electron system (eV)
  ---------------------------------------------------
  alpha Z        PSCENC =         0.15779290
  Ewald energy   TEWEN  =      4864.57551940
  -Hartree energ DENC   =     -6374.49418543
  -exchange      EXHF   =       112.81370619
  -V(xc)+E(xc)   XCENC  =       130.73890023
  PAW double counting   =      4372.98436440    -4378.47694611
  entropy T*S    EENTRO =        -0.00000000
  eigenvalues    EBANDS =      -680.88260753
  atomic energy  EATOM  =      1817.05969886
  ---------------------------------------------------
  free energy    TOTEN  =      -129.39308810 eV

  energy without entropy =     -129.39308810  energy(sigma->0) =     -129.39308810
  exchange ACFDT corr.  =         0.00000000  see jH, gK, PRB 81, 115126


--------------------------------------------------------------------------------------------------------




--------------------------------------- Iteration      1(   5)  ---------------------------------------


    --------------------------------------------
      INIT:  cpu time      0.3970: real time      0.3970
  FINALIZE:  cpu time     73.1501: real time     73.1504
    --------------------------------------------
    POTLOK:  cpu time     93.3674: real time     93.3677
    SETDIJ:  cpu time      0.0688: real time      0.0688
    TRIAL :  cpu time    138.0032: real time    138.0075
    CORREC:  cpu time      0.5911: real time      0.5911
    CHARGE:  cpu time      3.3062: real time      3.3062
    --------------------------------------------
      LOOP:  cpu time    235.3418: real time    235.3545

 eigenvalue-minimisations  :     0
 total energy-change (2. order) :-0.7900951E-03  (-0.4964782E-03)
 number of electron      48.0000006 magnetization      -0.0000000
 augmentation part        1.7354564 magnetization       0.0000001

 Free energy of the ion-electron system (eV)
  ---------------------------------------------------
  alpha Z        PSCENC =         0.15779290
  Ewald energy   TEWEN  =      4864.57551940
  -Hartree energ DENC   =     -6373.79707466
  -exchange      EXHF   =       112.79358209
  -V(xc)+E(xc)   XCENC  =       130.71829981
  PAW double counting   =      4373.15946135    -4378.64928742
  entropy T*S    EENTRO =        -0.00000000
  eigenvalues    EBANDS =      -681.56349707
  atomic energy  EATOM  =      1817.05969886
  ---------------------------------------------------
  free energy    TOTEN  =      -129.39387819 eV

  energy without entropy =     -129.39387819  energy(sigma->0) =     -129.39387819
  exchange ACFDT corr.  =         0.00000000  see jH, gK, PRB 81, 115126


--------------------------------------------------------------------------------------------------------




--------------------------------------- Iteration      1(   6)  ---------------------------------------


    --------------------------------------------
      INIT:  cpu time      0.5887: real time      0.5887
  FINALIZE:  cpu time     77.2061: real time     77.2062
    --------------------------------------------
    POTLOK:  cpu time     99.2456: real time     99.2457
    SETDIJ:  cpu time      0.0678: real time      0.0678
    TRIAL :  cpu time    137.9477: real time    137.9487
    CORREC:  cpu time      0.2326: real time      0.2326
    CHARGE:  cpu time      3.4736: real time      3.4736
    --------------------------------------------
      LOOP:  cpu time    240.9773: real time    240.9845

 eigenvalue-minimisations  :     0
 total energy-change (2. order) :-0.2242034E-03  (-0.2279399E-03)
 number of electron      48.0000006 magnetization      -0.0000000
 augmentation part        1.7357086 magnetization       0.0000001

 Free energy of the ion-electron system (eV)
  ---------------------------------------------------
  alpha Z        PSCENC =         0.15779290
  Ewald energy   TEWEN  =      4864.57551940
  -Hartree energ DENC   =     -6373.79609691
  -exchange      EXHF   =       112.79748630
  -V(xc)+E(xc)   XCENC  =       130.72124905
  PAW double counting   =      4373.32877959    -4378.81892297
  entropy T*S    EENTRO =        -0.00000000
  eigenvalues    EBANDS =      -681.55918366
  atomic energy  EATOM  =      1817.05969886
  ---------------------------------------------------
  free energy    TOTEN  =      -129.39410240 eV

  energy without entropy =     -129.39410240  energy(sigma->0) =     -129.39410240
  exchange ACFDT corr.  =         0.00000000  see jH, gK, PRB 81, 115126


--------------------------------------------------------------------------------------------------------




--------------------------------------- Iteration      1(   7)  ---------------------------------------


    --------------------------------------------
      INIT:  cpu time      0.6093: real time      0.6093
  FINALIZE:  cpu time     72.3458: real time     72.3452
    --------------------------------------------
    POTLOK:  cpu time     95.7411: real time     95.7404
    SETDIJ:  cpu time      0.0673: real time      0.0673
    TRIAL :  cpu time    137.9443: real time    137.9431
    CORREC:  cpu time      0.0059: real time      0.0059
    CHARGE:  cpu time      4.2603: real time      4.2603
    --------------------------------------------
      LOOP:  cpu time    238.0412: real time    238.0553

 eigenvalue-minimisations  :     0
 total energy-change (2. order) :-0.1218684E-03  (-0.1215856E-03)
 number of electron      48.0000006 magnetization      -0.0000000
 augmentation part        1.7357833 magnetization       0.0000002

 Free energy of the ion-electron system (eV)
  ---------------------------------------------------
  alpha Z        PSCENC =         0.15779290
  Ewald energy   TEWEN  =      4864.57551940
  -Hartree energ DENC   =     -6373.99165050
  -exchange      EXHF   =       112.80430105
  -V(xc)+E(xc)   XCENC  =       130.72786716
  PAW double counting   =      4373.27785505    -4378.76902309
  entropy T*S    EENTRO =        -0.00000000
  eigenvalues    EBANDS =      -681.37033473
  atomic energy  EATOM  =      1817.05969886
  ---------------------------------------------------
  free energy    TOTEN  =      -129.39422427 eV

  energy without entropy =     -129.39422427  energy(sigma->0) =     -129.39422427
  exchange ACFDT corr.  =         0.00000000  see jH, gK, PRB 81, 115126


--------------------------------------------------------------------------------------------------------




--------------------------------------- Iteration      1(   8)  ---------------------------------------


    --------------------------------------------
      INIT:  cpu time      0.4026: real time      0.4026
  FINALIZE:  cpu time     79.6397: real time     79.6403
    --------------------------------------------
    POTLOK:  cpu time     97.7848: real time     97.7854
    SETDIJ:  cpu time      0.0716: real time      0.0716
    TRIAL :  cpu time    138.0888: real time    138.0900
    CORREC:  cpu time      0.0024: real time      0.0024
    CHARGE:  cpu time      4.0597: real time      4.0598
    --------------------------------------------
      LOOP:  cpu time    240.0119: real time    240.0187

 eigenvalue-minimisations  :     0
 total energy-change (2. order) :-0.7294794E-04  (-0.5765873E-04)
 number of electron      48.0000006 magnetization       0.0000000
 augmentation part        1.7357725 magnetization       0.0000001

 Free energy of the ion-electron system (eV)
  ---------------------------------------------------
  alpha Z        PSCENC =         0.15779290
  Ewald energy   TEWEN  =      4864.57551940
  -Hartree energ DENC   =     -6374.00481277
  -exchange      EXHF   =       112.80427103
  -V(xc)+E(xc)   XCENC  =       130.72824724
  PAW double counting   =      4372.99998694    -4378.49143460
  entropy T*S    EENTRO =        -0.00000000
  eigenvalues    EBANDS =      -681.35611368
  atomic energy  EATOM  =      1817.05969886
  ---------------------------------------------------
  free energy    TOTEN  =      -129.39429721 eV

  energy without entropy =     -129.39429721  energy(sigma->0) =     -129.39429721
  exchange ACFDT corr.  =         0.00000000  see jH, gK, PRB 81, 115126


--------------------------------------------------------------------------------------------------------




--------------------------------------- Iteration      1(   9)  ---------------------------------------


    --------------------------------------------
      INIT:  cpu time      1.5624: real time      1.5624
  FINALIZE:  cpu time     67.1875: real time     67.1870
    --------------------------------------------
    POTLOK:  cpu time     91.4732: real time     91.4725
    SETDIJ:  cpu time      0.0708: real time      0.0708
    TRIAL :  cpu time    138.5963: real time    138.5953
    CORREC:  cpu time      0.0009: real time      0.0009
    CHARGE:  cpu time      3.6626: real time      3.6625
    --------------------------------------------
      LOOP:  cpu time    233.8094: real time    233.8154

 eigenvalue-minimisations  :     0
 total energy-change (2. order) :-0.3348594E-04  (-0.1879008E-04)
 number of electron      48.0000006 magnetization       0.0000000
 augmentation part        1.7357907 magnetization       0.0000001

 Free energy of the ion-electron system (eV)
  ---------------------------------------------------
  alpha Z        PSCENC =         0.15779290
  Ewald energy   TEWEN  =      4864.57551940
  -Hartree energ DENC   =     -6373.94081412
  -exchange      EXHF   =       112.80221640
  -V(xc)+E(xc)   XCENC  =       130.72650972
  PAW double counting   =      4372.78766372    -4378.27903191
  entropy T*S    EENTRO =        -0.00000000
  eigenvalues    EBANDS =      -681.41583856
  atomic energy  EATOM  =      1817.05969886
  ---------------------------------------------------
  free energy    TOTEN  =      -129.39433070 eV

  energy without entropy =     -129.39433070  energy(sigma->0) =     -129.39433070
  exchange ACFDT corr.  =         0.00000000  see jH, gK, PRB 81, 115126


--------------------------------------------------------------------------------------------------------




--------------------------------------- Iteration      1(  10)  ---------------------------------------


    --------------------------------------------
      INIT:  cpu time      0.3994: real time      0.3995
  FINALIZE:  cpu time     68.9226: real time     68.9227
    --------------------------------------------
    POTLOK:  cpu time     89.0966: real time     89.0968
    SETDIJ:  cpu time      0.0699: real time      0.0699
    TRIAL :  cpu time    138.5622: real time    138.5617
    CORREC:  cpu time      0.1784: real time      0.1784
    CHARGE:  cpu time      3.4425: real time      3.4426
    --------------------------------------------
      LOOP:  cpu time    231.3591: real time    231.3645

 eigenvalue-minimisations  :     0
 total energy-change (2. order) :-0.1079440E-04  (-0.6309439E-05)
 number of electron      48.0000006 magnetization       0.0000000
 augmentation part        1.7358114 magnetization       0.0000001

 Free energy of the ion-electron system (eV)
  ---------------------------------------------------
  alpha Z        PSCENC =         0.15779290
  Ewald energy   TEWEN  =      4864.57551940
  -Hartree energ DENC   =     -6373.93821079
  -exchange      EXHF   =       112.80226978
  -V(xc)+E(xc)   XCENC  =       130.72656300
  PAW double counting   =      4372.72442375    -4378.21584746
  entropy T*S    EENTRO =        -0.00000000
  eigenvalues    EBANDS =      -681.41822925
  atomic energy  EATOM  =      1817.05969886
  ---------------------------------------------------
  free energy    TOTEN  =      -129.39434150 eV

  energy without entropy =     -129.39434150  energy(sigma->0) =     -129.39434150
  exchange ACFDT corr.  =        -0.00000000  see jH, gK, PRB 81, 115126


--------------------------------------------------------------------------------------------------------




--------------------------------------- Iteration      1(  11)  ---------------------------------------


    --------------------------------------------
      INIT:  cpu time      0.4023: real time      0.4023
  FINALIZE:  cpu time     68.7776: real time     68.7832
    --------------------------------------------
    POTLOK:  cpu time     91.0826: real time     91.0882
    SETDIJ:  cpu time      0.0665: real time      0.0665
    TRIAL :  cpu time    137.2342: real time    137.2357
    CORREC:  cpu time      0.2338: real time      0.2338
    CHARGE:  cpu time      4.0501: real time      4.0500
    --------------------------------------------
      LOOP:  cpu time    232.7197: real time    232.7332

 eigenvalue-minimisations  :     0
 total energy-change (2. order) :-0.3603502E-05  (-0.2588517E-05)
 number of electron      48.0000006 magnetization       0.0000000
 augmentation part        1.7358162 magnetization       0.0000001

 Free energy of the ion-electron system (eV)
  ---------------------------------------------------
  alpha Z        PSCENC =         0.15779290
  Ewald energy   TEWEN  =      4864.57551940
  -Hartree energ DENC   =     -6373.95268808
  -exchange      EXHF   =       112.80282270
  -V(xc)+E(xc)   XCENC  =       130.72703905
  PAW double counting   =      4372.72300259    -4378.21451143
  entropy T*S    EENTRO =        -0.00000000
  eigenvalues    EBANDS =      -681.40455474
  atomic energy  EATOM  =      1817.05969886
  ---------------------------------------------------
  free energy    TOTEN  =      -129.39434510 eV

  energy without entropy =     -129.39434510  energy(sigma->0) =     -129.39434510
  exchange ACFDT corr.  =        -0.00000000  see jH, gK, PRB 81, 115126


--------------------------------------------------------------------------------------------------------


  average scaling for gradient   1.2297


 average (electrostatic) potential at core
  the test charge radii are     0.6991  0.7089  0.7215  0.5201
  (the norm of the test charge is              1.0000)
       1 -54.6168       2 -54.9345       3 -54.6300       4 -56.3799       5 -54.6421
       6 -55.9835       7 -55.9412       8 -68.5043       9 -74.9432      10 -39.7346
      11 -39.7343      12 -37.9095      13 -37.9687      14 -37.8807      15 -37.8817
      16 -37.8967      17 -37.8206      18 -37.8194
 
 
 
 E-fermi :  -5.2783     XC(G=0):  -0.0243     alpha+bet : -0.0174

 Fermi energy:        -5.2782617481

 spin component 1

 k-point     1 :       0.0000    0.0000    0.0000
  band No.  band energies     occupation 
      1     -29.3121      1.00000
      2     -25.3398      1.00000
      3     -22.9753      1.00000
      4     -20.7191      1.00000
      5     -19.9483      1.00000
      6     -18.9928      1.00000
      7     -16.7278      1.00000
      8     -16.1864      1.00000
      9     -14.5975      1.00000
     10     -14.0590      1.00000
     11     -13.1783      1.00000
     12     -12.7293      1.00000
     13     -12.6472      1.00000
     14     -12.4771      1.00000
     15     -11.3981      1.00000
     16     -10.9918      1.00000
     17     -10.6010      1.00000
     18     -10.0151      1.00000
     19      -9.8227      1.00000
     20      -9.3041      1.00000
     21      -8.8804      1.00000
     22      -8.0985      1.00000
     23      -6.1333      1.00000
     24      -5.5671      1.00000
     25      -0.5057      0.00000
     26      -0.0214      0.00000
     27      -0.3521      0.00000
     28      -0.1252      0.00000
     29       0.0291      0.00000
     30       0.0272      0.00000
     31       0.1024      0.00000
     32       0.1115      0.00000
     33       0.1127      0.00000
     34       0.1251      0.00000
     35       0.1335      0.00000
     36       0.1444      0.00000
     37       0.1726      0.00000
     38       0.2053      0.00000
     39       0.2012      0.00000
     40       0.2037      0.00000
     41       0.2063      0.00000
     42       0.2061      0.00000
     43       0.2074      0.00000
     44       0.2783      0.00000
     45       0.2476      0.00000
 Fermi energy:        -5.2782617481

 spin component 2

 k-point     1 :       0.0000    0.0000    0.0000
  band No.  band energies     occupation 
      1     -29.3121      1.00000
      2     -25.3398      1.00000
      3     -22.9753      1.00000
      4     -20.7191      1.00000
      5     -19.9483      1.00000
      6     -18.9928      1.00000
      7     -16.7278      1.00000
      8     -16.1864      1.00000
      9     -14.5975      1.00000
     10     -14.0590      1.00000
     11     -13.1783      1.00000
     12     -12.7293      1.00000
     13     -12.6472      1.00000
     14     -12.4771      1.00000
     15     -11.3981      1.00000
     16     -10.9918      1.00000
     17     -10.6010      1.00000
     18     -10.0151      1.00000
     19      -9.8227      1.00000
     20      -9.3041      1.00000
     21      -8.8804      1.00000
     22      -8.0985      1.00000
     23      -6.1333      1.00000
     24      -5.5671      1.00000
     25      -0.5057      0.00000
     26      -0.0214      0.00000
     27      -0.3521      0.00000
     28      -0.1253      0.00000
     29       0.0291      0.00000
     30       0.0272      0.00000
     31       0.1024      0.00000
     32       0.1116      0.00000
     33       0.1127      0.00000
     34       0.1251      0.00000
     35       0.1335      0.00000
     36       0.1444      0.00000
     37       0.1728      0.00000
     38       0.2053      0.00000
     39       0.2043      0.00000
     40       0.2016      0.00000
     41       0.2059      0.00000
     42       0.2065      0.00000
     43       0.2073      0.00000
     44       0.2760      0.00000
     45       0.2631      0.00000


--------------------------------------------------------------------------------------------------------


 soft charge-density along one line, spin component           1
         0         1         2         3         4         5         6         7         8         9
 total charge-density along one line
 
 soft charge-density along one line, spin component           2
         0         1         2         3         4         5         6         7         8         9
 total charge-density along one line
 
 pseudopotential strength for first ion, spin component:           1
  9.961  13.245  -0.001  -0.000  -0.000   0.004   0.000   0.001
 13.245  17.609  -0.002  -0.000  -0.000   0.005   0.000   0.002
 -0.001  -0.002  -4.186  -0.000  -0.000   8.160   0.000   0.001
 -0.000  -0.000  -0.000  -4.178   0.000   0.000   8.149  -0.000
 -0.000  -0.000  -0.000   0.000  -4.185   0.001  -0.000   8.158
  0.004   0.005   8.160   0.000   0.001 -18.023  -0.000  -0.002
  0.000   0.000   0.000   8.149  -0.000  -0.000 -18.007   0.000
  0.001   0.002   0.001  -0.000   8.158  -0.002   0.000 -18.019
 pseudopotential strength for first ion, spin component:           2
  9.961  13.245  -0.001  -0.000  -0.000   0.004   0.000   0.001
 13.245  17.609  -0.002  -0.000  -0.000   0.005   0.000   0.002
 -0.001  -0.002  -4.186  -0.000  -0.000   8.160   0.000   0.001
 -0.000  -0.000  -0.000  -4.178   0.000   0.000   8.149  -0.000
 -0.000  -0.000  -0.000   0.000  -4.185   0.001  -0.000   8.158
  0.004   0.005   8.160   0.000   0.001 -18.023  -0.000  -0.002
  0.000   0.000   0.000   8.149  -0.000  -0.000 -18.007   0.000
  0.001   0.002   0.001  -0.000   8.158  -0.002   0.000 -18.019
 total augmentation occupancy for first ion, spin component:           1
  8.926  -4.062  -0.095   0.001  -0.226  -0.022   0.000  -0.046
 -4.062   1.882   0.072  -0.000   0.141   0.014   0.000   0.027
 -0.095   0.072   1.811  -0.001  -0.059   0.178   0.000  -0.009
  0.001  -0.000  -0.001   1.266   0.000   0.000   0.078  -0.000
 -0.226   0.141  -0.059   0.000   1.793  -0.009  -0.000   0.169
 -0.022   0.014   0.178   0.000  -0.009   0.019   0.000  -0.001
  0.000   0.000   0.000   0.078  -0.000   0.000   0.005  -0.000
 -0.046   0.027  -0.009  -0.000   0.169  -0.001  -0.000   0.017
 total augmentation occupancy for first ion, spin component:           2
 -0.000   0.000  -0.000   0.000  -0.000  -0.000   0.000  -0.000
  0.000  -0.000   0.000  -0.000   0.000   0.000  -0.000   0.000
 -0.000   0.000   0.000   0.000   0.000  -0.000   0.000  -0.000
  0.000  -0.000   0.000  -0.000  -0.000  -0.000   0.000   0.000
 -0.000   0.000   0.000  -0.000   0.000  -0.000   0.000  -0.000
 -0.000   0.000  -0.000  -0.000  -0.000  -0.000  -0.000  -0.000
  0.000  -0.000   0.000   0.000   0.000  -0.000   0.000   0.000
 -0.000   0.000  -0.000   0.000  -0.000  -0.000   0.000  -0.000


------------------------ aborting loop because EDIFF is reached ----------------------------------------


    FORLOC:  cpu time      0.3412: real time      0.3412
    FORHF :  cpu time     69.9882: real time     69.9916
    FORNL :  cpu time      3.9715: real time      3.9715
    STRESS:  cpu time     12.1882: real time     12.1884
    FORCOR:  cpu time     18.0177: real time     18.0177
    OFIELD:  cpu time      0.0203: real time      0.0203
 WARNING: Using user supplied parameters
     VDW_A1 = 0.383
     VDW_A2 = 5.685
     VDW_S8 = 2.31
     because the xc functional is not supported. Required parameters not
     defined in the INCAR file will be replaced with PBE defaults ones.


 ---------------------------------------------------------------------------------------------

         DFTD3 V3.0 Rev 1        
 IVDW         = 12
 DF unknown   
 parameters
 VDW_S6       =    1.0000
 VDW_S8       =    2.3100
 VDW_A1       =    0.3830
 VDW_A2       =    5.6850
 k1-k3        =   16.0000    1.3333   -4.0000
 VDW_RADIUS   =   50.2022 A
 VDW_CNRADIUS =   21.1671 A
 Edisp (eV)   -0.30975

 E6    (eV) :    -0.1608
 E8    (eV) :    -0.1489
 % E8        : 48.07
    FORVDW:  cpu time      0.0077: real time      0.0077

  FORCE on cell =-STRESS in cart. coord.  units (eV):
  Direction    XX          YY          ZZ          XY          YZ          ZX
  --------------------------------------------------------------------------------------
  Alpha Z     0.15779     0.15779     0.15779
  Ewald    3229.69288  1900.66574  -265.78370   -62.33567    12.17161   -22.81246
  Hartree  3307.05908  2214.81641   846.11938   -43.12798     3.73866    -8.08072
  E(xc)    -138.67676  -139.05794  -140.85521     0.00388     0.02041    -0.03489
  Local   -6985.27197 -4579.94669 -1142.89526   108.07353   -13.26278    26.39867
  n-local   -75.70503   -79.33609   -80.41924    -1.19698     0.12782    -0.21254
  augment     4.22231     5.66870     7.43113    -0.02707    -0.07297     0.11879
  Kinetic   707.79679   726.94281   826.36077    -1.28755    -2.74241     4.65713
  Fock      -54.05809   -54.31043   -50.84104    -0.14408    -0.03006     0.05390
  vdW        -0.15243    -0.06307    -0.00198     0.00727    -0.00102     0.00175
  -------------------------------------------------------------------------------------
  Total      -4.93541    -4.46277    -0.72735    -0.03464    -0.05075     0.08962
  in kB      -0.12355    -0.11172    -0.01821    -0.00087    -0.00127     0.00224
  external pressure =       -0.08 kB  Pullay stress =        0.00 kB


 VOLUME and BASIS-vectors are now :
 -----------------------------------------------------------------------------
  energy-cutoff  :      500.00
  volume of cell :    64000.00
      direct lattice vectors                 reciprocal lattice vectors
    40.000000000  0.000000000  0.000000000     0.025000000  0.000000000  0.000000000
     0.000000000 40.000000000  0.000000000     0.000000000  0.025000000  0.000000000
     0.000000000  0.000000000 40.000000000     0.000000000  0.000000000  0.025000000

  length of vectors
    40.000000000 40.000000000 40.000000000     0.025000000  0.025000000  0.025000000


 FORCES acting on ions:
    Electron-Ion                     Ewald-Force                    Non-Local-Force
 -----------------------------------------------------------------------------------------------
   -.165E+03 -.130E+03 0.307E+00   0.166E+03 0.131E+03 -.251E+00   -.720E+00 -.118E+01 -.577E-01
   -.291E+02 -.218E+03 -.388E-02   0.292E+02 0.218E+03 0.213E-01   -.153E+00 -.696E+00 -.198E-01
   0.100E+03 -.166E+03 -.736E+00   -.101E+03 0.168E+03 0.748E+00   0.676E+00 -.165E+01 -.122E-01
   0.144E+02 0.588E+01 -.744E+00   -.864E+01 -.228E+01 0.775E+00   -.555E+01 -.347E+01 -.350E-01
   -.171E+02 0.176E+03 0.185E+00   0.170E+02 -.178E+03 -.168E+00   0.130E+00 0.153E+01 -.188E-01
   -.868E+02 0.295E+02 0.269E+01   0.833E+02 -.267E+02 -.323E+01   0.322E+01 -.259E+01 0.534E+00
   0.230E+03 -.398E+02 -.425E+00   -.236E+03 0.430E+02 0.442E+00   0.564E+01 -.316E+01 -.150E-01
   -.228E+03 0.136E+03 -.368E+02   0.232E+03 -.139E+03 0.543E+02   -.361E+01 0.219E+01 -.162E+02
   0.159E+03 0.251E+03 0.520E+00   -.162E+03 -.295E+03 -.669E+00   0.256E+01 0.394E+02 0.133E+00
   -.232E+02 0.935E+02 0.232E+02   0.226E+02 -.100E+03 -.253E+02   0.545E+00 0.693E+01 0.208E+01
   -.958E+02 -.180E+02 0.248E+02   0.102E+03 0.211E+02 -.270E+02   -.617E+01 -.311E+01 0.222E+01
   0.177E+01 0.907E+02 0.179E-01   -.233E+01 -.962E+02 -.129E-01   0.563E+00 0.552E+01 -.643E-03
   0.760E+02 0.418E+02 -.429E-01   -.801E+02 -.457E+02 0.432E-01   0.415E+01 0.383E+01 0.672E-03
   0.439E+02 -.397E+02 0.580E+02   -.443E+02 0.428E+02 -.624E+02   0.517E+00 -.314E+01 0.446E+01
   0.437E+02 -.395E+02 -.583E+02   -.441E+02 0.426E+02 0.627E+02   0.500E+00 -.313E+01 -.448E+01
   0.576E+02 -.668E+02 0.109E-01   -.622E+02 0.700E+02 -.134E-01   0.458E+01 -.325E+01 0.637E-02
   -.848E+01 -.888E+02 0.147E+00   0.885E+01 0.944E+02 -.159E+00   -.370E+00 -.560E+01 0.127E-01
   -.751E+02 -.488E+02 -.130E+00   0.800E+02 0.513E+02 0.144E+00   -.493E+01 -.254E+01 -.132E-01
 -----------------------------------------------------------------------------------------------
   -.178E+01 -.311E+02 0.126E+02   0.000E+00 0.114E-12 0.128E-13   0.158E+01 0.259E+02 -.114E+02
 
 
 POSITION                                       TOTAL-FORCE (eV/Angst)
 -----------------------------------------------------------------------------------
     21.81754     20.95171     20.02302        -0.182129     -0.109023     -0.005634
     20.65008     21.70746     20.02479         0.005151     -0.232888     -0.003748
     19.38235     21.11100     20.02818         0.131433     -0.189438     -0.001865
     19.30893     19.70974     20.02758        -0.061559     -0.048111     -0.007099
     20.47510     18.93399     20.02411         0.014429      0.195612     -0.002930
     21.73847     19.54186     20.02273        -0.105408      0.054527      0.022245
     16.91128     19.73424     20.02898         0.219072     -0.113264      0.000123
     22.89357     18.76794     20.08187        -0.047516      0.034719     -0.201337
     18.13499     18.99579     20.02557         0.064146      0.628489      0.002920
     22.80719     17.80592     19.77378         0.004081      0.349089      0.089877
     23.74570     19.20857     19.75407        -0.321456     -0.129174      0.099199
     20.37881     17.84713     20.02284         0.026414      0.252270      0.003790
     16.11205     18.98574     20.02884         0.187674      0.171625      0.000440
     16.81898     20.36722     19.13150         0.057665     -0.167829      0.216935
     16.82239     20.36400     20.92895         0.054807     -0.166429     -0.216460
     18.48858     21.73049     20.02708         0.199203     -0.155672      0.003611
     20.72110     22.79639     20.02229        -0.018183     -0.257270      0.000196
     22.79290     21.44077     20.02379        -0.227826     -0.117235     -0.000263
 -----------------------------------------------------------------------------------
    total drift:                                0.000476     -0.000495      0.009218


--------------------------------------------------------------------------------------------------------



  FREE ENERGIE OF THE ION-ELECTRON SYSTEM (eV)
  ---------------------------------------------------
  free  energy   TOTEN  =      -129.70409471 eV

  energy  without entropy=     -129.70409471  energy(sigma->0) =     -129.70409471
 


--------------------------------------------------------------------------------------------------------


    --------------------------------------------
      INIT:  cpu time      0.9814: real time      0.9814
  FINALIZE:  cpu time     79.7790: real time     79.7792
    --------------------------------------------
    POTLOK:  cpu time     99.1260: real time     99.1262


--------------------------------------------------------------------------------------------------------


 writing wavefunctions
     LOOP+:  cpu time   2834.5291: real time   2834.8517
    4ORBIT:  cpu time      0.0000: real time      0.0000

 total amount of memory used by VASP MPI-rank0  2672426. kBytes
=======================================================================

   base      :      30000. kBytes
   nonlr-proj:       3524. kBytes
   fftplans  :     224335. kBytes
   grid      :     440727. kBytes
   one-center:         12. kBytes
   HF        :          9. kBytes
   wavefun   :      77997. kBytes
   fock_wrk  :    1895822. kBytes
 
  
  
 General timing and accounting informations for this job:
 ========================================================
  
                  Total CPU time used (sec):     2892.004
                            User time (sec):     1658.482
                          System time (sec):     1233.522
                         Elapsed time (sec):     2893.439
  
                   Maximum memory used (kb):     4166864.
                   Average memory used (kb):          N/A
  
                          Minor page faults:     26543639
                          Major page faults:            0
                 Voluntary context switches:         2799
