
                                 *****************
                                 * O   R   C   A *
                                 *****************

                                            #,                                       
                                            ###                                      
                                            ####                                     
                                            #####                                    
                                            ######                                   
                                           ########,                                 
                                     ,,################,,,,,                         
                               ,,#################################,,                 
                          ,,##########################################,,             
                       ,#########################################, ''#####,          
                    ,#############################################,,   '####,        
                  ,##################################################,,,,####,       
                ,###########''''           ''''###############################       
              ,#####''   ,,,,##########,,,,          '''####'''          '####       
            ,##' ,,,,###########################,,,                        '##       
           ' ,,###''''                  '''############,,,                           
         ,,##''                                '''############,,,,        ,,,,,,###''
      ,#''                                            '''#######################'''  
     '                                                          ''''####''''         
             ,#######,   #######,   ,#######,      ##                                
            ,#'     '#,  ##    ##  ,#'     '#,    #''#        ,####,   ,####,        
            ##       ##  ##   ,#'  ##            #'  '#       #'       #'  '#        
            ##       ##  #######   ##           ,######,      #####,   #    #        
            '#,     ,#'  ##    ##  '#,     ,#' ,#      #,     #,   #   #,  ,#        
             '#######'   ##     ##  '#######'  #'      '#     '####' # '####'        



                #########################################################
                #                        -***-                          #
                #          Department of theory and spectroscopy        #
                #                                                       #
                #                      Frank Neese                      #
                #                                                       #
                #     Directorship, Architecture, Infrastructure        #
                #                    SHARK, DRIVERS                     #
                #        Core code/Algorithms in most modules           #
                #                                                       #
                #        Max Planck Institute fuer Kohlenforschung      #
                #                Kaiser Wilhelm Platz 1                 #
                #                 D-45470 Muelheim/Ruhr                 #
                #                      Germany                          #
                #                                                       #
                #                  All rights reserved                  #
                #                        -***-                          #
                #########################################################


                         Program Version 6.0.0  -   RELEASE  -


 With contributions from (in alphabetic order):
   Daniel Aravena         : Magnetic Suceptibility
   Michael Atanasov       : Ab Initio Ligand Field Theory (pilot matlab implementation)
   Alexander A. Auer      : GIAO ZORA, VPT2 properties, NMR spectrum
   Ute Becker             : All parallelization in ORCA, NUMFREQ, NUMCALC
   Giovanni Bistoni       : ED, misc. LED, open-shell LED, HFLD
   Martin Brehm           : Molecular dynamics
   Dmytro Bykov           : pre 5.0 version of the SCF Hessian
   Marcos Casanova-Páez   : Triplet and SCS-CIS(D). UHF-(DLPNO)-IP/EA/STEOM-CCSD. UHF-CVS-IP/STEOM-CCSD
   Vijay G. Chilkuri      : MRCI spin determinant printing, contributions to CSF-ICE
   Pauline Colinet        : FMM embedding
   Dipayan Datta          : RHF DLPNO-CCSD density
   Achintya Kumar Dutta   : EOM-CC, STEOM-CC
   Nicolas Foglia         : Exact transition moments, OPA infrastructure, MCD improvements
   Dmitry Ganyushin       : Spin-Orbit,Spin-Spin,Magnetic field MRCI
   Miquel Garcia          : C-PCM and meta-GGA Hessian, CCSD/C-PCM, Gaussian charge scheme
   Tiago L. C. Gouveia    : GS-ROHF, GS-ROCIS
   Yang Guo               : DLPNO-NEVPT2, F12-NEVPT2, CIM, IAO-localization
   Andreas Hansen         : Spin unrestricted coupled pair/coupled cluster methods
   Ingolf Harden          : AUTO-CI MPn and infrastructure 
   Benjamin Helmich-Paris : MC-RPA, TRAH-(SCF,CASSCF), AVAS, COSX integrals, SCF dyn. polar.
   Lee Huntington         : MR-EOM, pCC
   Robert Izsak           : Overlap fitted RIJCOSX, COSX-SCS-MP3, EOM
   Riya Kayal             : Wick's Theorem for AUTO-CI, AUTO-CI UHF-CCSDT
   Emily Kempfer          : AUTO-CI, RHF CISDT and CCSDT
   Christian Kollmar      : KDIIS, OOCD, Brueckner-CCSD(T), CCSD density, CASPT2, CASPT2-K, improved NEVPT2
   Axel Koslowski         : Symmetry handling
   Simone Kossmann        : Meta GGA functionals, TD-DFT gradient, OOMP2, (MP2 Hessian; deprecated post 5.0)
   Lucas Lang             : DCDCAS
   Marvin Lechner         : AUTO-CI (C++ implementation), FIC-MRCC
   Spencer Leger          : CASSCF response
   Dagmar Lenk            : GEPOL surface, SMD, ORCA-2-JSON
   Dimitrios Liakos       : Extrapolation schemes; Compound Job, initial MDCI parallelization
   Dimitrios Manganas     : Further ROCIS development; embedding schemes. LFT, Crystal Embedding
   Dimitrios Pantazis     : SARC Basis sets
   Anastasios Papadopoulos: AUTO-CI, single reference methods and gradients
   Taras Petrenko         : pre 6.0 DFT Hessian and TD-DFT gradient, (ASA, deprecated), ECA, 1-Electron XAS/XES, NRVS
   Peter Pinski           : DLPNO-MP2, DLPNO-MP2 Gradient
   Christoph Reimann      : Effective Core Potentials
   Marius Retegan         : Local ZFS, SOC
   Christoph Riplinger    : Optimizer, TS searches, QM/MM, DLPNO-CCSD(T), (RO)-DLPNO pert. Triples
   Michael Roemelt        : Original ROCIS implementation
   Masaaki Saitow         : Open-shell DLPNO-CCSD energy and density
   Barbara Sandhoefer     : DKH picture change effects
   Kantharuban Sivalingam : CASSCF convergence/infrastructure, NEVPT2 and variants, FIC-MRCI
   Bernardo de Souza      : ESD, SOC TD-DFT
   Georgi Stoychev        : AutoAux, RI-MP2 NMR, DLPNO-MP2 response, X2C
   Van Anh Tran           : RI-MP2 g-tensors
   Willem Van den Heuvel  : Paramagnetic NMR
   Zikuan Wang            : NOTCH, Electric field optimization 
   Frank Wennmohs         : Technical directorship and infrastructure
   Hang Xu                : AUTO-CI-Response properties 


 We gratefully acknowledge several colleagues who have allowed us to
 interface, adapt or use parts of their codes:
   Stefan Grimme, W. Hujo, H. Kruse, P. Pracht,  : VdW corrections, initial TS optimization,
                  C. Bannwarth, S. Ehlert,         DFT functionals, gCP, sTDA/sTD-DF
                  L. Wittmann, M. Mueller
   Ed Valeev, F. Pavosevic, A. Kumar             : LibInt (2-el integral package), F12 methods
   Garnet Chan, S. Sharma, J. Yang, R. Olivares  : DMRG
   Ulf Ekstrom                                   : XCFun DFT Library
   Mihaly Kallay                                 : mrcc  (arbitrary order and MRCC methods)
   Frank Weinhold                                : gennbo (NPA and NBO analysis)
   Simon Mueller                                 : openCOSMO-RS
   Christopher J. Cramer and Donald G. Truhlar   : smd solvation model
   Lars Goerigk                                  : TD-DFT with DH, B97 family of functionals
   V. Asgeirsson, H. Jonsson                     : NEB implementation
   FAccTs GmbH                                   : IRC, NEB, NEB-TS, DLPNO-Multilevel, CI-OPT
                                                   MM, QMMM, 2- and 3-layer-ONIOM, Crystal-QMMM,
                                                   LR-CPCM, SF, NACMEs, symmetry and pop. for TD-DFT,
                                                   nearIR, NL-DFT gradient (VV10), updates on ESD,
                                                   ML-optimized integration grids, MBIS, APM,
                                                   GOAT, DOCKER, SOLVATOR, interface openCOSMO-RS
   S Lehtola, MJT Oliveira, MAL Marques          : LibXC Library
   Liviu Ungur et al                             : ANISO software


 Your calculation uses the libint2 library for the computation of 2-el integrals
 For citations please refer to: http://libint.valeyev.net

 Your ORCA version has been built with support for libXC version: 6.2.2
 For citations please refer to: https://libxc.gitlab.io

 This ORCA versions uses:
   CBLAS   interface :  Fast vector & matrix operations
   LAPACKE interface :  Fast linear algebra routines
   SCALAPACK package :  Parallel linear algebra routines
   Shared memory     :  Shared parallel matrices
   BLAS/LAPACK       :  OpenBLAS 0.3.27  USE64BITINT DYNAMIC_ARCH NO_AFFINITY Sandybridge SINGLE_THREADED
        Core in use  :  Sandybridge
   Copyright (c) 2011-2014, The OpenBLAS Project


NOTE: MaxCore=5000 MB was set to SCF,MP2,MDCI,CIPSI,MRCI and CIS
      => If you want to overwrite this, your respective input block should be placed after the MaxCore statement
Your calculation utilizes the atom-pairwise dispersion correction
with the Becke-Johnson damping scheme (D3BJ)


Your calculation utilizes the SMD solvation module
Please cite in your paper:
A.V. Marenich, C.J. Cramer, D.G. Truhlar J. Phys. Chem. B, 113, (2009), 6378 

Warning: RI is on but no J-basis has been assigned. Assigning Def2/J (nothing to worry about!)
================================================================================

----- Orbital basis set information -----
Your calculation utilizes the basis: aug-cc-pVTZ 
    H, B-Ne : Obtained from the ccRepo (grant-hill.group.shef.ac.uk/ccrepo) Feb. 2017
              R. A. Kendall, T. H. Dunning, Jr., R. J. Harrison, J. Chem. Phys. 96, 6796 (1992)
         He : Obtained from the ccRepo (grant-hill.group.shef.ac.uk/ccrepo) Feb. 2017
              D. E. Woon, T. H. Dunning, Jr., J. Chem. Phys. 100, 2975 (1994)
  Li-Be, Na : Obtained from the ccRepo (grant-hill.group.shef.ac.uk/ccrepo) Feb. 2017
              B. P. Prascher, D. E. Woon, K. A. Peterson, T. H. Dunning, Jr., A. K. Wilson, Theor. Chem. Acc. 128, 69 (2011)
         Mg : Obtained from the Peterson Research Group Website (tyr0.chem.wsu.edu/~kipeters) Feb. 2017
              B. P. Prascher, D. E. Woon, K. A. Peterson, T. H. Dunning, Jr., A. K. Wilson, Theor. Chem. Acc. 128, 69 (2011)
      Al-Ar : Obtained from the ccRepo (grant-hill.group.shef.ac.uk/ccrepo) Feb. 2017
              D. E. Woon, T. H. Dunning, Jr., J. Chem. Phys. 98, 1358 (1993)
      Sc-Zn : Obtained from the ccRepo (grant-hill.group.shef.ac.uk/ccrepo) Feb. 2017
              N. B. Balabanov, K. A. Peterson, J. Chem. Phys. 123, 064107 (2005)
              N. B. Balabanov, K. A. Peterson, J. Chem. Phys. 125, 074110 (2006)
      Ga-Kr : Obtained from the ccRepo (grant-hill.group.shef.ac.uk/ccrepo) Feb. 2017
              A. K. Wilson, D. E. Woon, K. A. Peterson, T. H. Dunning, Jr., J. Chem. Phys. 110, 7667 (1999)
     Ag, Au : Obtained from the Peterson Research Group Website (tyr0.chem.wsu.edu/~kipeters) Feb. 2017
              K. A. Peterson, C. Puzzarini, Theor. Chem. Acc. 114, 283 (2005)

----- AuxJ basis set information -----
Your calculation utilizes the auxiliary basis: def2/J
   F. Weigend, Phys. Chem. Chem. Phys. 8, 1057 (2006).

================================================================================
                                        WARNINGS
                       Please study these warnings very carefully!
================================================================================

Using LibXC functional ID 497 : Re-regularized SCAN exchange by Furness et al
[ 1]  J. W. Furness, A. D. Kaplan, J. Ning, J. P. Perdew, and J. Sun.,  J. Phys. Chem. Lett. 11, 8208-8215 (2020)
[ 2]  J. W. Furness, A. D. Kaplan, J. Ning, J. P. Perdew, and J. Sun.,  J. Phys. Chem. Lett. 11, 9248-9248 (2020)
Using LibXC functional ID 498 : Re-regularized SCAN correlation by Furness et al
[ 1]  J. W. Furness, A. D. Kaplan, J. Ning, J. P. Perdew, and J. Sun.,  J. Phys. Chem. Lett. 11, 8208-8215 (2020)
[ 2]  J. W. Furness, A. D. Kaplan, J. Ning, J. P. Perdew, and J. Sun.,  J. Phys. Chem. Lett. 11, 9248-9248 (2020)
Using LibXC functional ID 497 : Re-regularized SCAN exchange by Furness et al
[ 1]  J. W. Furness, A. D. Kaplan, J. Ning, J. P. Perdew, and J. Sun.,  J. Phys. Chem. Lett. 11, 8208-8215 (2020)
[ 2]  J. W. Furness, A. D. Kaplan, J. Ning, J. P. Perdew, and J. Sun.,  J. Phys. Chem. Lett. 11, 9248-9248 (2020)
Using LibXC functional ID 498 : Re-regularized SCAN correlation by Furness et al
[ 1]  J. W. Furness, A. D. Kaplan, J. Ning, J. P. Perdew, and J. Sun.,  J. Phys. Chem. Lett. 11, 8208-8215 (2020)
[ 2]  J. W. Furness, A. D. Kaplan, J. Ning, J. P. Perdew, and J. Sun.,  J. Phys. Chem. Lett. 11, 9248-9248 (2020)


WARNING: Found flag for RIJCOSX approximation but no HF exchange needed!
  ===> : RIJCOSX  will be disabled and Split-RI-J is turned on

WARNING: your system is open-shell and RHF/RKS was chosen
  ===> : WILL SWITCH to UHF/UKS


================================================================================
                                       INPUT FILE
================================================================================
NAME = cs_rporg_162_red_freq_06.inp
|  1> !r2SCAN freq aug-cc-pVTZ d3 TightSCF SlowConv RIJCOSX defgrid2
|  2> 
|  3> %pal
|  4> nprocs 12
|  5> end
|  6> 
|  7> %scf
|  8> MaxIter 1500
|  9> end
| 10> 
| 11> %maxcore 5000
| 12> 
| 13> !CPCM
| 14> %cpcm smd true
| 15> SMDsolvent "MeCN"
| 16> surfacetype gepol_ses
| 17> rsolv 2.19
| 18> end 
| 19> 
| 20> * xyz -1 2
| 21> C          -1.21552641304060     -0.03915748393913      0.00000570968935
| 22> C          -1.21818401284627      1.41246747975617     -0.00019916168077
| 23> C           0.00004575194503      2.07821608681340     -0.00000383617160
| 24> C           1.21824479268325      1.41241105503140      0.00019938304063
| 25> C           1.21552073871961     -0.03921433859228      0.00000659774519
| 26> C          -0.00001914115867     -0.72712237035481      0.00000924617106
| 27> H          -0.00004478660462     -1.81101100709407      0.00001482545438
| 28> C           2.41487952819885     -0.76118289525882     -0.00016104638652
| 29> N           3.42852427482002     -1.34414683476652     -0.00030758239841
| 30> H           2.15600016066914      1.95129429915732      0.00085572108260
| 31> H           0.00007111085318      3.16389487142419     -0.00000899244407
| 32> H          -2.15591457124299      1.95139391880307     -0.00086432307774
| 33> C          -2.41491830490206     -0.76107153731095      0.00017906911949
| 34> N          -3.42858822809389     -1.34399154366899      0.00032528985641
| 35> *
| 36> 
| 37>                          ****END OF INPUT****
================================================================================

                       ****************************
                       * Single Point Calculation *
                       ****************************

---------------------------------
CARTESIAN COORDINATES (ANGSTROEM)
---------------------------------
  C     -1.215526   -0.039157    0.000006
  C     -1.218184    1.412467   -0.000199
  C      0.000046    2.078216   -0.000004
  C      1.218245    1.412411    0.000199
  C      1.215521   -0.039214    0.000007
  C     -0.000019   -0.727122    0.000009
  H     -0.000045   -1.811011    0.000015
  C      2.414880   -0.761183   -0.000161
  N      3.428524   -1.344147   -0.000308
  H      2.156000    1.951294    0.000856
  H      0.000071    3.163895   -0.000009
  H     -2.155915    1.951394   -0.000864
  C     -2.414918   -0.761072    0.000179
  N     -3.428588   -1.343992    0.000325

----------------------------
CARTESIAN COORDINATES (A.U.)
----------------------------
  NO LB      ZA    FRAG     MASS         X           Y           Z
   0 C     6.0000    0    12.011   -2.297012   -0.073997    0.000011
   1 C     6.0000    0    12.011   -2.302034    2.669177   -0.000376
   2 C     6.0000    0    12.011    0.000086    3.927259   -0.000007
   3 C     6.0000    0    12.011    2.302149    2.669070    0.000377
   4 C     6.0000    0    12.011    2.297001   -0.074104    0.000012
   5 C     6.0000    0    12.011   -0.000036   -1.374062    0.000017
   6 H     1.0000    0     1.008   -0.000085   -3.422315    0.000028
   7 C     6.0000    0    12.011    4.563461   -1.438427   -0.000304
   8 N     7.0000    0    14.007    6.478972   -2.540069   -0.000581
   9 H     1.0000    0     1.008    4.074250    3.687412    0.001617
  10 H     1.0000    0     1.008    0.000134    5.978895   -0.000017
  11 H     1.0000    0     1.008   -4.074088    3.687600   -0.001633
  12 C     6.0000    0    12.011   -4.563534   -1.438217    0.000338
  13 N     7.0000    0    14.007   -6.479093   -2.539776    0.000615

--------------------------------
INTERNAL COORDINATES (ANGSTROEM)
--------------------------------
 C      0   0   0     0.000000000000     0.00000000     0.00000000
 C      1   0   0     1.451627410885     0.00000000     0.00000000
 C      2   1   0     1.388274110460   118.55120137     0.00000000
 C      3   2   1     1.388274210846   122.68515129     0.00000000
 C      4   3   2     1.451627962341   118.55123006     0.00000000
 C      1   2   3     1.396693815033   119.61431977     0.00000000
 H      6   1   2     1.083888637057   119.50806882   180.00896205
 C      5   4   3     1.399892899768   120.93882952   179.98287280
 N      8   5   4     1.169325723908   178.85757556     0.00000000
 H      4   3   2     1.081564011867   121.45732241   180.03143233
 H      3   2   1     1.085678784919   118.65743684   180.00887630
 H      2   1   3     1.081564029216   119.99145986   179.97755970
 C      1   2   3     1.399893153341   120.93884255   179.98299735
 N     13   1   2     1.169325646848   178.85770443     0.00000000

---------------------------
INTERNAL COORDINATES (A.U.)
---------------------------
 C      0   0   0     0.000000000000     0.00000000     0.00000000
 C      1   0   0     2.743178255066     0.00000000     0.00000000
 C      2   1   0     2.623457867583   118.55120137     0.00000000
 C      3   2   1     2.623458057284   122.68515129     0.00000000
 C      4   3   2     2.743179297166   118.55123006     0.00000000
 C      1   2   3     2.639368803354   119.61431977     0.00000000
 H      6   1   2     2.048252683707   119.50806882   180.00896205
 C      5   4   3     2.645414197382   120.93882952   179.98287280
 N      8   5   4     2.209705379534   178.85757556     0.00000000
 H      4   3   2     2.043859778734   121.45732241   180.03143233
 H      3   2   1     2.051635572906   118.65743684   180.00887630
 H      2   1   3     2.043859811519   119.99145986   179.97755970
 C      1   2   3     2.645414676567   120.93884255   179.98299735
 N     13   1   2     2.209705233913   178.85770443     0.00000000

---------------------
BASIS SET INFORMATION
---------------------
There are 3 groups of distinct atoms

 Group   1 Type C   : 19s6p3d2f contracted to 5s4p3d2f pattern {88111/3111/111/11}
 Group   2 Type H   : 6s3p2d contracted to 4s3p2d pattern {3111/111/11}
 Group   3 Type N   : 19s6p3d2f contracted to 5s4p3d2f pattern {88111/3111/111/11}

Atom   0C    basis set group =>   1
Atom   1C    basis set group =>   1
Atom   2C    basis set group =>   1
Atom   3C    basis set group =>   1
Atom   4C    basis set group =>   1
Atom   5C    basis set group =>   1
Atom   6H    basis set group =>   2
Atom   7C    basis set group =>   1
Atom   8N    basis set group =>   3
Atom   9H    basis set group =>   2
Atom  10H    basis set group =>   2
Atom  11H    basis set group =>   2
Atom  12C    basis set group =>   1
Atom  13N    basis set group =>   3
---------------------------------
AUXILIARY/J BASIS SET INFORMATION
---------------------------------
There are 3 groups of distinct atoms

 Group   1 Type C   : 12s5p4d2f1g contracted to 6s4p3d1f1g pattern {711111/2111/211/2/1}
 Group   2 Type H   : 5s2p1d contracted to 3s1p1d pattern {311/2/1}
 Group   3 Type N   : 12s5p4d2f1g contracted to 6s4p3d1f1g pattern {711111/2111/211/2/1}

Atom   0C    basis set group =>   1
Atom   1C    basis set group =>   1
Atom   2C    basis set group =>   1
Atom   3C    basis set group =>   1
Atom   4C    basis set group =>   1
Atom   5C    basis set group =>   1
Atom   6H    basis set group =>   2
Atom   7C    basis set group =>   1
Atom   8N    basis set group =>   3
Atom   9H    basis set group =>   2
Atom  10H    basis set group =>   2
Atom  11H    basis set group =>   2
Atom  12C    basis set group =>   1
Atom  13N    basis set group =>   3


           ************************************************************
           *        Program running with 12 parallel MPI-processes    *
           *              working on a common directory               *
           ************************************************************
------------------------------------------------------------------------------
                             ORCA STARTUP CALCULATIONS
                           -- RI-GTO INTEGRALS CHOSEN --
------------------------------------------------------------------------------
------------------------------------------------------------------------------
                   ___                                                        
                  /   \      - P O W E R E D   B Y -                         
                 /     \                                                     
                 |  |  |   _    _      __       _____    __    __             
                 |  |  |  | |  | |    /  \     |  _  \  |  |  /  |          
                  \  \/   | |  | |   /    \    | | | |  |  | /  /          
                 / \  \   | |__| |  /  /\  \   | |_| |  |  |/  /          
                |  |  |   |  __  | /  /__\  \  |    /   |      \           
                |  |  |   | |  | | |   __   |  |    \   |  |\   \          
                \     /   | |  | | |  |  |  |  | |\  \  |  | \   \       
                 \___/    |_|  |_| |__|  |__|  |_| \__\ |__|  \__/        
                                                                              
                      - O R C A' S   B I G   F R I E N D -                    
                                      &                                       
                       - I N T E G R A L  F E E D E R -                       
                                                                              
 v1 FN, 2020, v2 2021, v3 2022-2024                                           
------------------------------------------------------------------------------


----------------------
SHARK INTEGRAL PACKAGE
----------------------

Number of atoms                             ...     14
Number of basis functions                   ...    612
Number of shells                            ...    236
Maximum angular momentum                    ...      3
Integral batch strategy                     ... SHARK/LIBINT Hybrid
RI-J (if used) integral strategy            ... SPLIT-RIJ (Revised 2003 algorithm where possible)
Printlevel                                  ...      1
Contraction scheme used                     ... PARTIAL GENERAL contraction
Prescreening option                         ... SCHWARTZ
   Thresh                                   ... 2.500e-11
   Tcut                                     ... 2.500e-12
   Tpresel                                  ... 2.500e-12 
Coulomb Range Separation                    ... NOT USED
Exchange Range Separation                   ... NOT USED
Multipole approximations                    ... NOT USED
Finite Nucleus Model                        ... NOT USED
CABS basis                                  ... NOT available
Auxiliary Coulomb fitting basis             ... AVAILABLE
   # of basis functions in Aux-J            ...    534
   # of shells in Aux-J                     ...    170
   Maximum angular momentum in Aux-J        ...      4
Auxiliary J/K fitting basis                 ... NOT available
Auxiliary Correlation fitting basis         ... NOT available
Auxiliary 'external' fitting basis          ... NOT available

Checking pre-screening integrals            ... done (  0.1 sec) Dimension = 236
Save PGC pre-screening integrals            ... done (  0.1 sec) Dimension = 236
Calculate PGC overlap integrals             ... done (  0.1 sec) Dimension = 176
Calculating pre-screening integrals (ORCA)  ... done (  0.2 sec) Dimension = 176
Check shell pair data                       ... done (  0.0 sec)
Shell pair information
Shell pair cut-off parameter TPreSel        ...   2.5e-12
Total number of shell pairs                 ...     27966
Shell pairs after pre-screening             ...     22869
Total number of primitive shell pairs       ...     35022
Primitive shell pairs kept                  ...     27011
          la=0 lb=0:   5151 shell pairs
          la=1 lb=0:   5682 shell pairs
          la=1 lb=1:   1315 shell pairs
          la=2 lb=0:   4086 shell pairs
          la=2 lb=1:   1884 shell pairs
          la=2 lb=2:    702 shell pairs
          la=3 lb=0:   2134 shell pairs
          la=3 lb=1:    990 shell pairs
          la=3 lb=2:    726 shell pairs
          la=3 lb=3:    199 shell pairs

Calculating one electron integrals          ... done (  0.1 sec)
Calculating RI/J V-Matrix + Cholesky decomp.... done (  0.1 sec)
Calculating Nuclear repulsion               ... done (  0.0 sec) ENN=    407.417701502137 Eh

Diagonalization of the overlap matrix:
Smallest eigenvalue                        ... 7.123e-07
Time for diagonalization                   ...    0.095 sec
Threshold for overlap eigenvalues          ... 1.000e-07
Number of eigenvalues below threshold      ... 0

IMPORTANT:
Smallest eigenvalue of S below the DiffSThresh (1.000e-06) while
Thresh>1e-12 and/or TCut>1e-13! In order to avoid SCF convergence issues,
Thresh will be set to at least 1e-12 and TCut to at least 1e-13.
This can be turned off by adding %SCF DiffSThresh -1 END to the input.

Time for construction of square roots      ...    0.059 sec
Total time needed                          ...    0.201 sec

-------------------
DFT GRID GENERATION
-------------------

General Integration Accuracy     IntAcc      ... 4.388
Radial Grid Type                 RadialGrid  ... OptM3 with GC (2021)
Angular Grid (max. ang.)         AngularGrid ... 4 (Lebedev-302)
Angular grid pruning method      GridPruning ... 4 (adaptive)
Weight generation scheme         WeightScheme... mBecke (2022)
Basis function cutoff            BFCut       ... 1.0000e-11
Integration weight cutoff        WCut        ... 1.0000e-14
Partially contracted basis set               ... off
Rotationally invariant grid construction     ... off
Angular grids for H and He will be reduced by one unit
Diffuse basis detected: some atoms will have their outermost
                        angular grid increased by 1.

Total number of grid points                  ...    76686
Total number of batches                      ...     1202
Average number of points per batch           ...       63
Average number of grid points per atom       ...     5478

---------------------
SHARK GRID GENERATION
---------------------

General Integration Accuracy     IntAcc      ... 4.388
Radial Grid Type                 RadialGrid  ... OptM3 with GC (2021)
Angular Grid (max. ang.)         AngularGrid ... 4 (Lebedev-302)
Angular grid pruning method      GridPruning ... 4 (adaptive)
Weight generation scheme         WeightScheme... mBecke (2022)
Basis function cutoff            BFCut       ... 1.0000e-11
Integration weight cutoff        WCut        ... 1.0000e-14
Partially contracted basis set               ... off
Rotationally invariant grid construction     ... off
Angular grids for H and He will be reduced by one unit
Diffuse basis detected: some atoms will have their outermost
                        angular grid increased by 1.
Steep s-basis detected: some atoms will have their radial
                        grid points doubled.

Total number of grid points                  ...   140328
Total number of batches                      ...     2200
Average number of points per batch           ...       63
Average number of grid points per atom       ...    10023
Initializing property integral containers    ... done (  0.1 sec)

SHARK setup successfully completed in   4.3 seconds

Maximum memory used throughout the entire STARTUP-calculation: 56.6 MB


           ************************************************************
           *        Program running with 12 parallel MPI-processes    *
           *              working on a common directory               *
           ************************************************************
-------------------------------------------------------------------------------
                                 ORCA GUESS
                   Start orbitals & Density for SCF / CASSCF
-------------------------------------------------------------------------------

------------
SCF SETTINGS
------------
Hamiltonian:
 Density Functional     Method          .... DFT(GTOs)
  Functional kind                       .... Exchange
  Functional name                       .... Re-regularized SCAN exchange by Furness et al
  Functional family                     .... MGGA
  Functional refs                              
    [ 0] J. W. Furness, A. D. Kaplan, J. Ning, J. P. Perdew, and J. Sun.,  J. Phys. Chem. Lett. 11, 8208-8215 (2020), doi: 10.1021/acs.jpclett.0c02405
    [ 1] J. W. Furness, A. D. Kaplan, J. Ning, J. P. Perdew, and J. Sun.,  J. Phys. Chem. Lett. 11, 9248-9248 (2020), doi: 10.1021/acs.jpclett.0c03077
  Functional external parameters        .... 6
    Parameter  0 _c1        =  6.670000e-01 : c1 parameter        
    Parameter  1 _c2        =  8.000000e-01 : c2 parameter        
    Parameter  2 _d         =  1.240000e+00 : d parameter         
    Parameter  3 _k1        =  6.500000e-02 : k1 parameter        
    Parameter  4 _eta       =  1.000000e-03 : eta parameter       
    Parameter  5 _dp2       =  3.610000e-01 : dp2 parameter       
  Functional kind                       .... Correlation
  Functional name                       .... Re-regularized SCAN correlation by Furness et al
  Functional family                     .... MGGA
  Functional refs                              
    [ 0] J. W. Furness, A. D. Kaplan, J. Ning, J. P. Perdew, and J. Sun.,  J. Phys. Chem. Lett. 11, 8208-8215 (2020), doi: 10.1021/acs.jpclett.0c02405
    [ 1] J. W. Furness, A. D. Kaplan, J. Ning, J. P. Perdew, and J. Sun.,  J. Phys. Chem. Lett. 11, 9248-9248 (2020), doi: 10.1021/acs.jpclett.0c03077
  Functional external parameters        .... 1
    Parameter  0 _eta       =  1.000000e-03 : Regularization parameter
 Gradients option       PostSCFGGA      .... off
   NL short-range parameter             .... 12.300000
 RI-approximation to the Coulomb term is turned on
   Number of AuxJ basis functions       .... 534


General Settings:
 Integral files         IntName         .... cs_rporg_162_red_freq_06
 Hartree-Fock type      HFTyp           .... UHF
 Total Charge           Charge          ....   -1
 Multiplicity           Mult            ....    2
 Number of Electrons    NEL             ....   67
 Basis Dimension        Dim             ....  552
 Nuclear Repulsion      ENuc            ....    407.4177015021 Eh

Convergence Acceleration:
 AO-DIIS                CNVDIIS         .... on
   Start iteration      DIISMaxIt       ....     0
   Startup error        DIISStart       ....  0.200000
   # of expansion vecs  DIISMaxEq       ....     5
   Bias factor          DIISBfac        ....   1.050
   Max. coefficient     DIISMaxC        ....  10.000
 MO-DIIS                CNVKDIIS        .... off
 Trust-Rad. Augm. Hess. CNVTRAH         .... auto
   Auto Start mean grad. ratio tolernc. ....  1.125000
   Auto Start start iteration           ....    50
   Auto Start num. interpolation iter.  ....    10
   Max. Number of Micro iterations      ....    24
   Max. Number of Macro iterations      .... Maxiter - #DIIS iter
   Number of Davidson start vectors     ....     2
   Converg. threshold    (grad. norm)   ....   1.000e-05
   Grad. Scal. Fac. for Micro threshold ....   0.100
   Minimum threshold for Micro iter.    ....   1.000e-02
   NR start threshold (gradient norm)   ....   1.000e-04
   Initial trust radius                 ....   0.400
   Minimum AH scaling param. (alpha)    ....   1.000
   Maximum AH scaling param. (alpha)    .... 1000.000
   Quad. conv. algorithm                .... NR
   White noise on init. David. guess    .... on
   Maximum white noise                  ....   0.010
   Pseudo random numbers                .... off
   Inactive MOs                         .... canonical
   Orbital update algorithm             .... Taylor
   Preconditioner                       .... Diag
   Full preconditioner red. dimension   ....   250
 SOSCF                  CNVSOSCF        .... on
   Start iteration      SOSCFMaxIt      ....   150
   Startup grad/error   SOSCFStart      ....  0.001000
   Hessian update       SOSCFHessUp     .... L-BFGS
 Level Shifting         CNVShift        .... on
   Level shift para.    LevelShift      ....    0.2500
   Turn off err/grad.   ShiftErr        ....    0.0000
 Zerner damping         CNVZerner       .... off
 Static damping         CNVDamp         .... on
   Fraction old density DampFac         ....    0.8500
   Max. Damping (<1)    DampMax         ....    0.9800
   Min. Damping (>=0)   DampMin         ....    0.0000
   Turn off err/grad.   DampErr         ....    0.0300

SCF Procedure:
 Maximum # iterations   MaxIter         ....  1500
 SCF integral mode      SCFMode         .... Direct
   Integral package                     .... SHARK and LIBINT hybrid scheme
 Reset frequency        DirectResetFreq ....    20
 Integral Threshold     Thresh          ....  1.000e-12 Eh
 Primitive CutOff       TCut            ....  1.000e-13 Eh

Convergence Tolerance:
 Convergence Check Mode ConvCheckMode   .... Total+1el-Energy
 Convergence forced     ConvForced      .... 0
 Energy Change          TolE            ....  1.000e-08 Eh
 1-El. energy change                    ....  1.000e-05 Eh
 Orbital Gradient       TolG            ....  1.000e-05
 Orbital Rotation angle TolX            ....  1.000e-05
 DIIS Error             TolErr          ....  5.000e-07

------------------------------
INITIAL GUESS: MODEL POTENTIAL
------------------------------
Loading Hartree-Fock densities                     ... done
Calculating cut-offs                               ... done
Initializing the effective Hamiltonian             ... done
Setting up the integral package (SHARK)            ... done
Starting the Coulomb interaction                   ... done (   0.3 sec)
Making the grid                                    ... done (   0.3 sec)
Mapping shells                                     ... done
Starting the XC term evaluation                    ... done (   0.3 sec)
  promolecular density results
     # of electrons  =     65.994625580
     EX              =    -55.004722538
     EC              =     -2.166058917
     EX+EC           =    -57.170781455
Transforming the Hamiltonian                       ... done (   0.1 sec)
Diagonalizing the Hamiltonian                      ... done (   0.1 sec)
Back transforming the eigenvectors                 ... done (   0.1 sec)
Now organizing SCF variables                       ... done
                      ------------------
                      INITIAL GUESS DONE (   1.6 sec)
                      ------------------
             **** ENERGY FILE WAS UPDATED (cs_rporg_162_red_freq_06.en.tmp) ****
Finished Guess after   3.2 sec
Maximum memory used throughout the entire GUESS-calculation: 37.3 MB


           ************************************************************
           *        Program running with 12 parallel MPI-processes    *
           *              working on a common directory               *
           ************************************************************

-------------------------------------------------------------------------------------------
                                      ORCA LEAN-SCF
                              memory conserving SCF solver
-------------------------------------------------------------------------------------------

--------------------
CPCM SOLVATION MODEL
--------------------
CPCM parameters:
  Epsilon                                         ...      35.6880
  Refrac                                          ...       1.3442
  Rsolv                                           ...       2.1900
  Surface type                                    ...    GEPOL SES
  Discretization scheme                           ... Constant num. charges
  Epsilon function type                           ...         CPCM
Solvent:                                          ... ACETONITRILE
SMD-CDS solvent descriptors:
  Soln                                            ...       1.3442
  Soln25                                          ...       1.3416
  Sola                                            ...       0.0700
  Solb                                            ...       0.3200
  Solg                                            ...      41.2500
  Solc                                            ...       0.0000
  Solh                                            ...       0.0000
Radii:
  Scheme                                          ... Element-dependent radii
  Radius for C  used is    3.4960 Bohr (=   1.8500 Ang.)
  Radius for H  used is    2.2677 Bohr (=   1.2000 Ang.)
  Radius for N  used is    3.5716 Bohr (=   1.8900 Ang.)
Calculating surface                               ...        done! (  0.0s)
Cavity surface points                             ...          544
Cavity Volume                                     ...    1012.8824
Cavity Surface-area                               ...     600.6405
Calculating surface distance matrix               ...        done! (  0.0s)
Performing Cholesky decomposition & store         ...        done! (  0.0s)
Overall time for CPCM initialization              ...                 0.1s

----------------------------------------D-I-I-S--------------------------------------------
Iteration    Energy (Eh)           Delta-E    RMSDP     MaxDP     DIISErr   Damp  Time(sec)
-------------------------------------------------------------------------------------------
               ***  Starting incremental Fock matrix formation  ***
    1    -416.4691249526641172     0.00e+00  7.07e-04  4.08e-02  1.20e-01  0.850   7.8
Warning: op=0 Small HOMO/LUMO gap (   0.017) - skipping pre-diagonalization
         Will do a full diagonalization
    2    -416.5469816827221052    -7.79e-02  6.85e-04  4.45e-02  8.53e-02  0.850   8.4
                               ***Turning on AO-DIIS***
    3    -416.5955883619148494    -4.86e-02  4.58e-04  2.02e-02  5.38e-02  0.850   7.3
    4    -416.6263373750634287    -3.07e-02  3.76e-04  1.67e-02  4.32e-02  0.850   7.8
    5    -416.6483637923006995    -2.20e-02  3.21e-04  1.46e-02  3.75e-02  0.850   6.9
    6    -416.6659733299183586    -1.76e-02  2.75e-04  1.28e-02  3.24e-02  0.850   8.0
    7    -416.6806886346237775    -1.47e-02  2.33e-04  1.09e-02  2.70e-02  0.850   7.1
    8    -416.6929418704999648    -1.23e-02  1.30e-03  6.02e-02  2.17e-02  0.000   7.6
    9    -416.7548406455725285    -6.19e-02  8.46e-05  4.85e-03  3.22e-03  0.000   7.2
   10    -416.7549717832208103    -1.31e-04  3.27e-05  1.66e-03  2.65e-03  0.000   6.7
                              *** Initializing SOSCF ***
---------------------------------------S-O-S-C-F--------------------------------------
Iteration    Energy (Eh)           Delta-E    RMSDP     MaxDP     MaxGrad    Time(sec)
--------------------------------------------------------------------------------------
   11    -416.7550855174328603    -1.14e-04  2.74e-05  1.61e-03  7.55e-04     7.2
               *** Restarting incremental Fock matrix formation ***
   12    -416.7551067654061967    -2.12e-05  2.12e-05  1.06e-03  6.27e-04     6.8
   13    -416.7551151226763864    -8.36e-06  2.29e-05  1.24e-03  7.30e-04     6.6
   14    -416.7551297776316801    -1.47e-05  1.25e-05  6.33e-04  2.48e-04     7.1
   15    -416.7551301540403870    -3.76e-07  4.98e-06  2.67e-04  2.59e-04     6.5
   16    -416.7551315017015554    -1.35e-06  3.41e-06  1.84e-04  6.24e-05     6.2
   17    -416.7551316067246603    -1.05e-07  2.10e-06  1.03e-04  3.67e-05     6.5
   18    -416.7551316562170882    -4.95e-08  1.08e-06  7.79e-05  2.03e-05     6.4
   19    -416.7551316509463391     5.27e-09  6.20e-07  3.92e-05  7.42e-06     5.9
                 **** Energy Check signals convergence ****

               *****************************************************
               *                     SUCCESS                       *
               *           SCF CONVERGED AFTER  19 CYCLES          *
               *****************************************************


SMD CDS free energy correction energy :                 0.91849     Kcal/mol
Total Energy after SMD CDS correction =              -416.753667939 Eh
             **** ENERGY FILE WAS UPDATED (cs_rporg_162_red_freq_06.en.tmp) ****

----------------
TOTAL SCF ENERGY
----------------

Total Energy       :       -416.75366793892795 Eh          -11340.44384 eV

Components:
Nuclear Repulsion  :        407.41770150213705 Eh           11086.39928 eV
Electronic Energy  :       -824.09357239903886 Eh          -22424.72616 eV
One Electron Energy:      -1380.08188448426517 Eh          -37553.93728 eV
Two Electron Energy:        555.98831208522631 Eh           15129.21113 eV
CPCM Dielectric    :         -0.07926075404458 Eh              -2.15679 eV
SMD CDS (Gcds)     :          0.00146371201839 Eh               0.03983 eV

Virial components:
Potential Energy   :       -831.36131829946464 Eh          -22622.49158 eV
Kinetic Energy     :        414.60765036053670 Eh           11282.04773 eV
Virial Ratio       :          2.00517602021218

DFT components:
N(Alpha)           :       34.000062697473 electrons
N(Beta)            :       33.000052694492 electrons
N(Total)           :       67.000115391966 electrons
E(X)               :      -56.490863359599 Eh       
E(C)               :       -2.175318730848 Eh       
E(XC)              :      -58.666182090447 Eh       

CPCM Solvation Model Properties:
Surface-charge          :          0.95548867491200
Corrected charge        :          1.00000000000000
Outlying charge corr.   :          0.00014043549867 Eh               0.00382 eV
Free-energy (cav+disp)  :          0.00146371201839 Eh               0.03983 eV

---------------
SCF CONVERGENCE
---------------

  Last Energy change         ...   -5.2707e-09  Tolerance :   1.0000e-08
  Last MAX-Density change    ...    3.9225e-05  Tolerance :   1.0000e-07
  Last RMS-Density change    ...    6.2030e-07  Tolerance :   5.0000e-09
  Last DIIS Error            ...    7.5522e-04  Tolerance :   5.0000e-07
  Last Orbital Gradient      ...    7.4234e-06  Tolerance :   1.0000e-05
  Last Orbital Rotation      ...    3.2033e-05  Tolerance :   1.0000e-05


----------------------
UHF SPIN CONTAMINATION
----------------------

Warning: in a DFT calculation there is little theoretical justification to 
         calculate <S**2> as in Hartree-Fock theory. We will do it anyways
         but you should keep in mind that the values have only limited relevance

Expectation value of <S**2>     :     0.767380
Ideal value S*(S+1) for S=0.5   :     0.750000
Deviation                       :     0.017380

----------------
ORBITAL ENERGIES
----------------
                 SPIN UP ORBITALS
  NO   OCC          E(Eh)            E(eV) 
   0   1.0000     -14.141539      -384.8108 
   1   1.0000     -14.141537      -384.8108 
   2   1.0000     -10.061864      -273.7972 
   3   1.0000     -10.061859      -273.7971 
   4   1.0000     -10.051466      -273.5143 
   5   1.0000     -10.051253      -273.5085 
   6   1.0000     -10.050787      -273.4958 
   7   1.0000     -10.028643      -272.8932 
   8   1.0000     -10.023832      -272.7623 
   9   1.0000     -10.023818      -272.7620 
  10   1.0000      -0.860988       -23.4287 
  11   1.0000      -0.857198       -23.3255 
  12   1.0000      -0.814719       -22.1696 
  13   1.0000      -0.731849       -19.9146 
  14   1.0000      -0.720794       -19.6138 
  15   1.0000      -0.608044       -16.5457 
  16   1.0000      -0.594333       -16.1726 
  17   1.0000      -0.527935       -14.3659 
  18   1.0000      -0.451077       -12.2744 
  19   1.0000      -0.439389       -11.9564 
  20   1.0000      -0.418006       -11.3745 
  21   1.0000      -0.390038       -10.6135 
  22   1.0000      -0.372203       -10.1282 
  23   1.0000      -0.339746        -9.2450 
  24   1.0000      -0.338429        -9.2091 
  25   1.0000      -0.336145        -9.1470 
  26   1.0000      -0.323134        -8.7929 
  27   1.0000      -0.321496        -8.7483 
  28   1.0000      -0.300442        -8.1754 
  29   1.0000      -0.293484        -7.9861 
  30   1.0000      -0.288841        -7.8598 
  31   1.0000      -0.238946        -6.5020 
  32   1.0000      -0.232101        -6.3158 
  33   1.0000      -0.091806        -2.4982 
  34   0.0000      -0.054716        -1.4889 
  35   0.0000       0.001998         0.0544 
  36   0.0000       0.005000         0.1361 
  37   0.0000       0.015796         0.4298 
  38   0.0000       0.023219         0.6318 
  39   0.0000       0.024416         0.6644 
  40   0.0000       0.025636         0.6976 
  41   0.0000       0.042834         1.1656 
  42   0.0000       0.045177         1.2293 
  43   0.0000       0.045997         1.2516 
  44   0.0000       0.050013         1.3609 

                 SPIN DOWN ORBITALS
  NO   OCC          E(Eh)            E(eV) 
   0   1.0000     -14.139233      -384.7481 
   1   1.0000     -14.139232      -384.7481 
   2   1.0000     -10.061620      -273.7906 
   3   1.0000     -10.061615      -273.7905 
   4   1.0000     -10.051653      -273.5194 
   5   1.0000     -10.049577      -273.4629 
   6   1.0000     -10.049538      -273.4618 
   7   1.0000     -10.031045      -272.9586 
   8   1.0000     -10.017281      -272.5841 
   9   1.0000     -10.017280      -272.5840 
  10   1.0000      -0.857519       -23.3343 
  11   1.0000      -0.853929       -23.2366 
  12   1.0000      -0.809999       -22.0412 
  13   1.0000      -0.723474       -19.6867 
  14   1.0000      -0.716916       -19.5083 
  15   1.0000      -0.594023       -16.1642 
  16   1.0000      -0.592486       -16.1224 
  17   1.0000      -0.527419       -14.3518 
  18   1.0000      -0.445697       -12.1280 
  19   1.0000      -0.437394       -11.9021 
  20   1.0000      -0.415747       -11.3131 
  21   1.0000      -0.389488       -10.5985 
  22   1.0000      -0.360331        -9.8051 
  23   1.0000      -0.336385        -9.1535 
  24   1.0000      -0.333185        -9.0664 
  25   1.0000      -0.327953        -8.9241 
  26   1.0000      -0.321494        -8.7483 
  27   1.0000      -0.318508        -8.6670 
  28   1.0000      -0.292308        -7.9541 
  29   1.0000      -0.288568        -7.8523 
  30   1.0000      -0.287584        -7.8256 
  31   1.0000      -0.231965        -6.3121 
  32   1.0000      -0.206125        -5.6090 
  33   0.0000      -0.051876        -1.4116 
  34   0.0000      -0.050979        -1.3872 
  35   0.0000       0.003850         0.1048 
  36   0.0000       0.007390         0.2011 
  37   0.0000       0.018174         0.4945 
  38   0.0000       0.026600         0.7238 
  39   0.0000       0.027618         0.7515 
  40   0.0000       0.036373         0.9898 
  41   0.0000       0.044965         1.2236 
  42   0.0000       0.046786         1.2731 
  43   0.0000       0.049172         1.3380 
*Only the first 10 virtual orbitals were printed.

                    ********************************
                    * MULLIKEN POPULATION ANALYSIS *
                    ********************************

--------------------------------------------
MULLIKEN ATOMIC CHARGES AND SPIN POPULATIONS
--------------------------------------------
   0 C :    1.443506    0.100272
   1 C :   -0.945547    0.464879
   2 C :   -0.481580   -0.207350
   3 C :   -0.945539    0.464875
   4 C :    1.443505    0.100273
   5 C :   -1.131354   -0.041298
   6 H :   -0.219246    0.004558
   7 C :    0.453621   -0.014497
   8 N :   -0.903136    0.099656
   9 H :    0.121398   -0.011828
  10 H :    0.492492   -0.032870
  11 H :    0.121414   -0.011830
  12 C :    0.453601   -0.014494
  13 N :   -0.903136    0.099654
Sum of atomic charges         :   -1.0000000
Sum of atomic spin populations:    1.0000000

-----------------------------------------------------
MULLIKEN REDUCED ORBITAL CHARGES AND SPIN POPULATIONS
-----------------------------------------------------
CHARGE
  0 C s       :     2.519055  s :     2.519055
      pz      :     1.122569  p :     1.974801
      px      :     0.436505
      py      :     0.415726
      dz2     :     0.008571  d :     0.146821
      dxz     :     0.012527
      dyz     :     0.017628
      dx2y2   :     0.065739
      dxy     :     0.042356
      f0      :     0.000858  f :    -0.084183
      f+1     :    -0.005116
      f-1     :    -0.003012
      f+2     :    -0.002584
      f-2     :    -0.002237
      f+3     :    -0.047785
      f-3     :    -0.024307

  1 C s       :     4.088282  s :     4.088282
      pz      :     1.078569  p :     2.848085
      px      :     0.913874
      py      :     0.855642
      dz2     :    -0.016691  d :     0.022385
      dxz     :     0.009258
      dyz     :     0.012085
      dx2y2   :     0.012938
      dxy     :     0.004795
      f0      :     0.001452  f :    -0.013205
      f+1     :     0.000387
      f-1     :     0.000038
      f+2     :     0.000602
      f-2     :     0.000237
      f+3     :    -0.018620
      f-3     :     0.002699

  2 C s       :     3.394626  s :     3.394626
      pz      :     0.955224  p :     2.888868
      px      :     1.016248
      py      :     0.917396
      dz2     :    -0.001604  d :     0.204867
      dxz     :     0.042661
      dyz     :     0.022990
      dx2y2   :     0.097908
      dxy     :     0.042912
      f0      :     0.000606  f :    -0.006781
      f+1     :    -0.000137
      f-1     :     0.000236
      f+2     :     0.000680
      f-2     :     0.000063
      f+3     :    -0.011176
      f-3     :     0.002948

  3 C s       :     4.088273  s :     4.088273
      pz      :     1.078571  p :     2.848086
      px      :     0.913881
      py      :     0.855634
      dz2     :    -0.016691  d :     0.022383
      dxz     :     0.009256
      dyz     :     0.012086
      dx2y2   :     0.012952
      dxy     :     0.004780
      f0      :     0.001451  f :    -0.013204
      f+1     :     0.000387
      f-1     :     0.000038
      f+2     :     0.000602
      f-2     :     0.000237
      f+3     :    -0.018618
      f-3     :     0.002697

  4 C s       :     2.519059  s :     2.519059
      pz      :     1.122573  p :     1.974802
      px      :     0.436520
      py      :     0.415709
      dz2     :     0.008572  d :     0.146817
      dxz     :     0.012525
      dyz     :     0.017630
      dx2y2   :     0.065735
      dxy     :     0.042355
      f0      :     0.000858  f :    -0.084183
      f+1     :    -0.005115
      f-1     :    -0.003012
      f+2     :    -0.002584
      f-2     :    -0.002237
      f+3     :    -0.047785
      f-3     :    -0.024307

  5 C s       :     4.239017  s :     4.239017
      pz      :     0.900055  p :     2.837602
      px      :     0.976208
      py      :     0.961340
      dz2     :    -0.020367  d :     0.080702
      dxz     :     0.017671
      dyz     :     0.003620
      dx2y2   :     0.223105
      dxy     :    -0.143327
      f0      :     0.000698  f :    -0.025968
      f+1     :    -0.001116
      f-1     :    -0.000315
      f+2     :     0.000453
      f-2     :     0.000792
      f+3     :    -0.027540
      f-3     :     0.001060

  6 H s       :     1.132084  s :     1.132084
      pz      :     0.011922  p :     0.078316
      px      :     0.038347
      py      :     0.028047
      dz2     :     0.000007  d :     0.008846
      dxz     :    -0.000127
      dyz     :     0.005304
      dx2y2   :     0.002028
      dxy     :     0.001634

  7 C s       :     3.154513  s :     3.154513
      pz      :     0.888664  p :     2.365434
      px      :     0.715262
      py      :     0.761508
      dz2     :     0.006433  d :     0.022939
      dxz     :     0.035183
      dyz     :     0.012646
      dx2y2   :    -0.012365
      dxy     :    -0.018958
      f0      :     0.002929  f :     0.003492
      f+1     :    -0.000493
      f-1     :    -0.000132
      f+2     :     0.000482
      f-2     :     0.002332
      f+3     :    -0.004304
      f-3     :     0.002677

  8 N s       :     4.059408  s :     4.059408
      pz      :     1.267738  p :     3.786568
      px      :     1.273772
      py      :     1.245058
      dz2     :     0.001482  d :     0.056265
      dxz     :     0.016817
      dyz     :     0.005506
      dx2y2   :     0.022261
      dxy     :     0.010200
      f0      :     0.000232  f :     0.000895
      f+1     :    -0.000246
      f-1     :    -0.000027
      f+2     :     0.000073
      f-2     :     0.000291
      f+3     :     0.000995
      f-3     :    -0.000422

  9 H s       :     0.833509  s :     0.833509
      pz      :     0.016516  p :     0.037277
      px      :    -0.003728
      py      :     0.024489
      dz2     :    -0.000049  d :     0.007815
      dxz     :     0.004020
      dyz     :     0.001594
      dx2y2   :    -0.000165
      dxy     :     0.002415

 10 H s       :     0.514623  s :     0.514623
      pz      :     0.021150  p :    -0.015794
      px      :     0.001348
      py      :    -0.038292
      dz2     :    -0.000607  d :     0.008680
      dxz     :    -0.001044
      dyz     :     0.005298
      dx2y2   :     0.001798
      dxy     :     0.003235

 11 H s       :     0.833495  s :     0.833495
      pz      :     0.016517  p :     0.037276
      px      :    -0.003729
      py      :     0.024489
      dz2     :    -0.000049  d :     0.007815
      dxz     :     0.004019
      dyz     :     0.001594
      dx2y2   :    -0.000165
      dxy     :     0.002415

 12 C s       :     3.154527  s :     3.154527
      pz      :     0.888665  p :     2.365440
      px      :     0.715261
      py      :     0.761514
      dz2     :     0.006433  d :     0.022939
      dxz     :     0.035184
      dyz     :     0.012645
      dx2y2   :    -0.012365
      dxy     :    -0.018958
      f0      :     0.002929  f :     0.003492
      f+1     :    -0.000493
      f-1     :    -0.000132
      f+2     :     0.000483
      f-2     :     0.002332
      f+3     :    -0.004304
      f-3     :     0.002677

 13 N s       :     4.059408  s :     4.059408
      pz      :     1.267737  p :     3.786567
      px      :     1.273776
      py      :     1.245055
      dz2     :     0.001482  d :     0.056265
      dxz     :     0.016818
      dyz     :     0.005505
      dx2y2   :     0.022259
      dxy     :     0.010202
      f0      :     0.000232  f :     0.000895
      f+1     :    -0.000246
      f-1     :    -0.000027
      f+2     :     0.000073
      f-2     :     0.000291
      f+3     :     0.000995
      f-3     :    -0.000422


SPIN
  0 C s       :    -0.006182  s :    -0.006182
      pz      :     0.069435  p :     0.083480
      px      :     0.017090
      py      :    -0.003045
      dz2     :     0.000576  d :     0.023063
      dxz     :     0.001584
      dyz     :     0.006669
      dx2y2   :     0.003640
      dxy     :     0.010593
      f0      :    -0.000041  f :    -0.000089
      f+1     :    -0.000017
      f-1     :    -0.000296
      f+2     :    -0.001397
      f-2     :     0.000567
      f+3     :     0.000814
      f-3     :     0.000281

  1 C s       :     0.042910  s :     0.042910
      pz      :     0.373191  p :     0.411747
      px      :     0.005277
      py      :     0.033278
      dz2     :    -0.003164  d :     0.011585
      dxz     :     0.001991
      dyz     :     0.008004
      dx2y2   :     0.003923
      dxy     :     0.000832
      f0      :     0.000173  f :    -0.001362
      f+1     :    -0.000531
      f-1     :    -0.000609
      f+2     :    -0.000102
      f-2     :    -0.000332
      f+3     :    -0.000749
      f-3     :     0.000787

  2 C s       :    -0.040435  s :    -0.040435
      pz      :    -0.142180  p :    -0.227768
      px      :    -0.088796
      py      :     0.003208
      dz2     :     0.002460  d :     0.062375
      dxz     :     0.028056
      dyz     :     0.001000
      dx2y2   :     0.025763
      dxy     :     0.005096
      f0      :     0.000556  f :    -0.001522
      f+1     :     0.000467
      f-1     :    -0.000106
      f+2     :     0.000495
      f-2     :    -0.001476
      f+3     :    -0.001964
      f-3     :     0.000504

  3 C s       :     0.042909  s :     0.042909
      pz      :     0.373192  p :     0.411746
      px      :     0.005275
      py      :     0.033279
      dz2     :    -0.003164  d :     0.011583
      dxz     :     0.001991
      dyz     :     0.008004
      dx2y2   :     0.003924
      dxy     :     0.000829
      f0      :     0.000173  f :    -0.001362
      f+1     :    -0.000531
      f-1     :    -0.000609
      f+2     :    -0.000102
      f-2     :    -0.000332
      f+3     :    -0.000749
      f-3     :     0.000787

  4 C s       :    -0.006178  s :    -0.006178
      pz      :     0.069435  p :     0.083479
      px      :     0.017088
      py      :    -0.003043
      dz2     :     0.000576  d :     0.023060
      dxz     :     0.001584
      dyz     :     0.006670
      dx2y2   :     0.003638
      dxy     :     0.010592
      f0      :    -0.000041  f :    -0.000089
      f+1     :    -0.000017
      f-1     :    -0.000296
      f+2     :    -0.001397
      f-2     :     0.000567
      f+3     :     0.000814
      f-3     :     0.000281

  5 C s       :    -0.002327  s :    -0.002327
      pz      :    -0.031163  p :    -0.044511
      px      :    -0.014964
      py      :     0.001616
      dz2     :     0.000549  d :     0.006229
      dxz     :     0.004568
      dyz     :     0.003571
      dx2y2   :    -0.001856
      dxy     :    -0.000602
      f0      :     0.000296  f :    -0.000689
      f+1     :     0.000360
      f-1     :    -0.000245
      f+2     :     0.000180
      f-2     :    -0.001332
      f+3     :    -0.001272
      f-3     :     0.001324

  6 H s       :     0.003428  s :     0.003428
      pz      :    -0.000083  p :     0.001516
      px      :    -0.000987
      py      :     0.002586
      dz2     :    -0.000000  d :    -0.000385
      dxz     :    -0.000201
      dyz     :    -0.000165
      dx2y2   :    -0.000083
      dxy     :     0.000064

  7 C s       :    -0.014162  s :    -0.014162
      pz      :     0.010667  p :    -0.006245
      px      :    -0.003966
      py      :    -0.012945
      dz2     :     0.000504  d :     0.007242
      dxz     :     0.006292
      dyz     :     0.001096
      dx2y2   :    -0.000183
      dxy     :    -0.000467
      f0      :    -0.000112  f :    -0.001333
      f+1     :     0.000030
      f-1     :    -0.000055
      f+2     :    -0.000114
      f-2     :    -0.000314
      f+3     :    -0.000634
      f-3     :    -0.000134

  8 N s       :     0.004942  s :     0.004942
      pz      :     0.090001  p :     0.094797
      px      :     0.001135
      py      :     0.003662
      dz2     :    -0.000108  d :     0.000457
      dxz     :     0.000573
      dyz     :     0.000013
      dx2y2   :     0.000044
      dxy     :    -0.000064
      f0      :    -0.000200  f :    -0.000541
      f+1     :    -0.000056
      f-1     :    -0.000060
      f+2     :    -0.000053
      f-2     :    -0.000126
      f+3     :    -0.000057
      f-3     :     0.000011

  9 H s       :    -0.017235  s :    -0.017235
      pz      :     0.004457  p :     0.005411
      px      :     0.003353
      py      :    -0.002398
      dz2     :     0.000210  d :    -0.000004
      dxz     :     0.000494
      dyz     :     0.000016
      dx2y2   :    -0.000479
      dxy     :    -0.000245

 10 H s       :    -0.024458  s :    -0.024458
      pz      :    -0.005346  p :    -0.006442
      px      :    -0.003408
      py      :     0.002312
      dz2     :    -0.000159  d :    -0.001969
      dxz     :    -0.000989
      dyz     :    -0.000647
      dx2y2   :     0.000047
      dxy     :    -0.000222

 11 H s       :    -0.017237  s :    -0.017237
      pz      :     0.004457  p :     0.005411
      px      :     0.003353
      py      :    -0.002398
      dz2     :     0.000210  d :    -0.000004
      dxz     :     0.000494
      dyz     :     0.000016
      dx2y2   :    -0.000479
      dxy     :    -0.000245

 12 C s       :    -0.014158  s :    -0.014158
      pz      :     0.010666  p :    -0.006244
      px      :    -0.003966
      py      :    -0.012945
      dz2     :     0.000504  d :     0.007242
      dxz     :     0.006292
      dyz     :     0.001096
      dx2y2   :    -0.000183
      dxy     :    -0.000467
      f0      :    -0.000112  f :    -0.001333
      f+1     :     0.000030
      f-1     :    -0.000055
      f+2     :    -0.000114
      f-2     :    -0.000314
      f+3     :    -0.000634
      f-3     :    -0.000134

 13 N s       :     0.004941  s :     0.004941
      pz      :     0.090000  p :     0.094796
      px      :     0.001135
      py      :     0.003662
      dz2     :    -0.000108  d :     0.000457
      dxz     :     0.000573
      dyz     :     0.000013
      dx2y2   :     0.000044
      dxy     :    -0.000064
      f0      :    -0.000200  f :    -0.000541
      f+1     :    -0.000056
      f-1     :    -0.000060
      f+2     :    -0.000053
      f-2     :    -0.000126
      f+3     :    -0.000057
      f-3     :     0.000011



                     *******************************
                     * LOEWDIN POPULATION ANALYSIS *
                     *******************************

-------------------------------------------
LOEWDIN ATOMIC CHARGES AND SPIN POPULATIONS
-------------------------------------------
   0 C :   -0.260866    0.100495
   1 C :    0.164159    0.199190
   2 C :    0.134413    0.051861
   3 C :    0.164158    0.199190
   4 C :   -0.260867    0.100495
   5 C :    0.148429    0.017389
   6 H :   -0.172164    0.000076
   7 C :   -0.328199    0.046798
   8 N :    0.169759    0.076183
   9 H :   -0.205385    0.046882
  10 H :   -0.189615   -0.008419
  11 H :   -0.205384    0.046881
  12 C :   -0.328198    0.046798
  13 N :    0.169759    0.076182

----------------------------------------------------
LOEWDIN REDUCED ORBITAL CHARGES AND SPIN POPULATIONS
----------------------------------------------------
CHARGE
  0 C s       :     2.477059  s :     2.477059
      pz      :     0.701426  p :     2.370570
      px      :     0.834814
      py      :     0.834330
      dz2     :     0.084558  d :     0.933994
      dxz     :     0.123516
      dyz     :     0.143694
      dx2y2   :     0.268513
      dxy     :     0.313714
      f0      :     0.035553  f :     0.479243
      f+1     :     0.033759
      f-1     :     0.032430
      f+2     :     0.057361
      f-2     :     0.050348
      f+3     :     0.189183
      f-3     :     0.080608

  1 C s       :     2.488842  s :     2.488842
      pz      :     0.664240  p :     2.319251
      px      :     0.846402
      py      :     0.808609
      dz2     :     0.067480  d :     0.697429
      dxz     :     0.064741
      dyz     :     0.114501
      dx2y2   :     0.203981
      dxy     :     0.246726
      f0      :     0.025521  f :     0.330318
      f+1     :     0.022992
      f-1     :     0.026686
      f+2     :     0.049402
      f-2     :     0.021774
      f+3     :     0.128484
      f-3     :     0.055460

  2 C s       :     2.493375  s :     2.493375
      pz      :     0.602469  p :     2.292284
      px      :     0.863097
      py      :     0.826718
      dz2     :     0.068585  d :     0.748531
      dxz     :     0.180149
      dyz     :     0.033536
      dx2y2   :     0.293417
      dxy     :     0.172844
      f0      :     0.018459  f :     0.331395
      f+1     :     0.031223
      f-1     :     0.019208
      f+2     :     0.012961
      f-2     :     0.059008
      f+3     :     0.133817
      f-3     :     0.056720

  3 C s       :     2.488842  s :     2.488842
      pz      :     0.664241  p :     2.319252
      px      :     0.846401
      py      :     0.808610
      dz2     :     0.067480  d :     0.697430
      dxz     :     0.064738
      dyz     :     0.114504
      dx2y2   :     0.203990
      dxy     :     0.246717
      f0      :     0.025521  f :     0.330318
      f+1     :     0.022991
      f-1     :     0.026686
      f+2     :     0.049399
      f-2     :     0.021777
      f+3     :     0.128485
      f-3     :     0.055459

  4 C s       :     2.477059  s :     2.477059
      pz      :     0.701427  p :     2.370570
      px      :     0.834815
      py      :     0.834328
      dz2     :     0.084558  d :     0.933995
      dxz     :     0.123515
      dyz     :     0.143695
      dx2y2   :     0.268506
      dxy     :     0.313721
      f0      :     0.035553  f :     0.479243
      f+1     :     0.033759
      f-1     :     0.032430
      f+2     :     0.057361
      f-2     :     0.050348
      f+3     :     0.189183
      f-3     :     0.080608

  5 C s       :     2.482618  s :     2.482618
      pz      :     0.577831  p :     2.257635
      px      :     0.854927
      py      :     0.824878
      dz2     :     0.070617  d :     0.762303
      dxz     :     0.190409
      dyz     :     0.035923
      dx2y2   :     0.279321
      dxy     :     0.186033
      f0      :     0.021894  f :     0.349015
      f+1     :     0.033253
      f-1     :     0.019371
      f+2     :     0.019570
      f-2     :     0.060215
      f+3     :     0.132838
      f-3     :     0.061872

  6 H s       :     0.646015  s :     0.646015
      pz      :     0.077029  p :     0.303758
      px      :     0.085119
      py      :     0.141610
      dz2     :     0.024577  d :     0.222390
      dxz     :     0.008000
      dyz     :     0.058451
      dx2y2   :     0.048141
      dxy     :     0.083221

  7 C s       :     2.626557  s :     2.626557
      pz      :     0.702417  p :     2.501955
      px      :     1.012848
      py      :     0.786690
      dz2     :     0.088551  d :     0.878558
      dxz     :     0.231194
      dyz     :     0.073664
      dx2y2   :     0.249493
      dxy     :     0.235657
      f0      :     0.030894  f :     0.321129
      f+1     :     0.039294
      f-1     :     0.018017
      f+2     :     0.015868
      f-2     :     0.040618
      f+3     :     0.096139
      f-3     :     0.080300

  8 N s       :     3.137679  s :     3.137679
      pz      :     1.027653  p :     3.369164
      px      :     1.281355
      py      :     1.060156
      dz2     :     0.025051  d :     0.221729
      dxz     :     0.052029
      dyz     :     0.016458
      dx2y2   :     0.055884
      dxy     :     0.072307
      f0      :     0.012420  f :     0.101670
      f+1     :     0.011549
      f-1     :     0.005034
      f+2     :     0.005342
      f-2     :     0.015255
      f+3     :     0.026450
      f-3     :     0.025620

  9 H s       :     0.666455  s :     0.666455
      pz      :     0.101353  p :     0.320957
      px      :     0.125187
      py      :     0.094417
      dz2     :     0.023080  d :     0.217974
      dxz     :     0.052776
      dyz     :     0.016115
      dx2y2   :     0.073279
      dxy     :     0.052725

 10 H s       :     0.662560  s :     0.662560
      pz      :     0.084230  p :     0.306820
      px      :     0.081171
      py      :     0.141419
      dz2     :     0.023006  d :     0.220234
      dxz     :     0.007361
      dyz     :     0.060248
      dx2y2   :     0.045171
      dxy     :     0.084449

 11 H s       :     0.666455  s :     0.666455
      pz      :     0.101352  p :     0.320956
      px      :     0.125185
      py      :     0.094419
      dz2     :     0.023080  d :     0.217973
      dxz     :     0.052773
      dyz     :     0.016117
      dx2y2   :     0.073282
      dxy     :     0.052722

 12 C s       :     2.626557  s :     2.626557
      pz      :     0.702417  p :     2.501955
      px      :     1.012866
      py      :     0.786672
      dz2     :     0.088551  d :     0.878557
      dxz     :     0.231204
      dyz     :     0.073653
      dx2y2   :     0.249491
      dxy     :     0.235659
      f0      :     0.030894  f :     0.321129
      f+1     :     0.039295
      f-1     :     0.018015
      f+2     :     0.015872
      f-2     :     0.040614
      f+3     :     0.096140
      f-3     :     0.080300

 13 N s       :     3.137679  s :     3.137679
      pz      :     1.027652  p :     3.369163
      px      :     1.281372
      py      :     1.060139
      dz2     :     0.025051  d :     0.221729
      dxz     :     0.052031
      dyz     :     0.016455
      dx2y2   :     0.055886
      dxy     :     0.072304
      f0      :     0.012420  f :     0.101670
      f+1     :     0.011550
      f-1     :     0.005033
      f+2     :     0.005344
      f-2     :     0.015253
      f+3     :     0.026450
      f-3     :     0.025620


SPIN
  0 C s       :     0.001247  s :     0.001247
      pz      :     0.049350  p :     0.047419
      px      :     0.000034
      py      :    -0.001966
      dz2     :    -0.000493  d :     0.037881
      dxz     :    -0.001002
      dyz     :     0.038325
      dx2y2   :     0.000860
      dxy     :     0.000191
      f0      :     0.003489  f :     0.013948
      f+1     :    -0.000130
      f-1     :    -0.000254
      f+2     :     0.010673
      f-2     :    -0.000292
      f+3     :    -0.000026
      f-3     :     0.000488

  1 C s       :     0.007083  s :     0.007083
      pz      :     0.180576  p :     0.187381
      px      :     0.003802
      py      :     0.003003
      dz2     :    -0.001842  d :     0.006155
      dxz     :    -0.003219
      dyz     :     0.013400
      dx2y2   :    -0.001077
      dxy     :    -0.001108
      f0      :     0.002371  f :    -0.001429
      f+1     :    -0.000436
      f-1     :    -0.000378
      f+2     :     0.000431
      f-2     :    -0.002427
      f+3     :    -0.000545
      f-3     :    -0.000443

  2 C s       :    -0.003301  s :    -0.003301
      pz      :    -0.056200  p :    -0.064920
      px      :    -0.005719
      py      :    -0.003001
      dz2     :     0.000610  d :     0.094197
      dxz     :     0.087527
      dyz     :     0.001900
      dx2y2   :     0.002225
      dxy     :     0.001934
      f0      :     0.003871  f :     0.025885
      f+1     :    -0.000313
      f-1     :     0.000124
      f+2     :     0.003194
      f-2     :     0.017184
      f+3     :     0.000736
      f-3     :     0.001088

  3 C s       :     0.007083  s :     0.007083
      pz      :     0.180576  p :     0.187382
      px      :     0.003802
      py      :     0.003003
      dz2     :    -0.001842  d :     0.006155
      dxz     :    -0.003218
      dyz     :     0.013399
      dx2y2   :    -0.001077
      dxy     :    -0.001108
      f0      :     0.002371  f :    -0.001429
      f+1     :    -0.000436
      f-1     :    -0.000378
      f+2     :     0.000431
      f-2     :    -0.002428
      f+3     :    -0.000545
      f-3     :    -0.000443

  4 C s       :     0.001247  s :     0.001247
      pz      :     0.049351  p :     0.047419
      px      :     0.000034
      py      :    -0.001966
      dz2     :    -0.000493  d :     0.037881
      dxz     :    -0.001003
      dyz     :     0.038326
      dx2y2   :     0.000860
      dxy     :     0.000191
      f0      :     0.003489  f :     0.013948
      f+1     :    -0.000130
      f-1     :    -0.000254
      f+2     :     0.010672
      f-2     :    -0.000292
      f+3     :    -0.000026
      f-3     :     0.000488

  5 C s       :    -0.000942  s :    -0.000942
      pz      :    -0.013308  p :    -0.015856
      px      :    -0.001729
      py      :    -0.000819
      dz2     :     0.000184  d :     0.031708
      dxz     :     0.031132
      dyz     :     0.000327
      dx2y2   :     0.000232
      dxy     :    -0.000167
      f0      :     0.000906  f :     0.002479
      f+1     :    -0.000119
      f-1     :     0.000033
      f+2     :     0.001349
      f-2     :     0.000515
      f+3     :    -0.000358
      f-3     :     0.000153

  6 H s       :     0.000237  s :     0.000237
      pz      :    -0.001419  p :    -0.001735
      px      :    -0.000142
      py      :    -0.000174
      dz2     :    -0.000018  d :     0.001574
      dxz     :     0.002761
      dyz     :    -0.000951
      dx2y2   :    -0.000105
      dxy     :    -0.000112

  7 C s       :    -0.000673  s :    -0.000673
      pz      :     0.010391  p :     0.006455
      px      :    -0.001712
      py      :    -0.002225
      dz2     :    -0.000098  d :     0.036953
      dxz     :     0.032926
      dyz     :     0.003646
      dx2y2   :     0.000132
      dxy     :     0.000347
      f0      :     0.000840  f :     0.004064
      f+1     :    -0.000169
      f-1     :    -0.000027
      f+2     :     0.001067
      f-2     :     0.001613
      f+3     :     0.000372
      f-3     :     0.000368

  8 N s       :     0.001042  s :     0.001042
      pz      :     0.060518  p :     0.063483
      px      :     0.000564
      py      :     0.002401
      dz2     :     0.000021  d :     0.009711
      dxz     :     0.008302
      dyz     :     0.001757
      dx2y2   :    -0.000297
      dxy     :    -0.000072
      f0      :     0.000761  f :     0.001947
      f+1     :    -0.000069
      f-1     :    -0.000061
      f+2     :     0.000535
      f-2     :     0.000942
      f+3     :    -0.000190
      f-3     :     0.000028

  9 H s       :    -0.006330  s :    -0.006330
      pz      :     0.032284  p :     0.034573
      px      :     0.001871
      py      :     0.000417
      dz2     :     0.000022  d :     0.018638
      dxz     :     0.015430
      dyz     :     0.002099
      dx2y2   :     0.000464
      dxy     :     0.000623

 10 H s       :     0.002129  s :     0.002129
      pz      :    -0.008244  p :    -0.009591
      px      :    -0.000543
      py      :    -0.000803
      dz2     :     0.000002  d :    -0.000958
      dxz     :     0.005009
      dyz     :    -0.005126
      dx2y2   :    -0.000338
      dxy     :    -0.000505

 11 H s       :    -0.006330  s :    -0.006330
      pz      :     0.032284  p :     0.034573
      px      :     0.001871
      py      :     0.000417
      dz2     :     0.000022  d :     0.018638
      dxz     :     0.015430
      dyz     :     0.002099
      dx2y2   :     0.000464
      dxy     :     0.000624

 12 C s       :    -0.000673  s :    -0.000673
      pz      :     0.010391  p :     0.006455
      px      :    -0.001712
      py      :    -0.002225
      dz2     :    -0.000098  d :     0.036952
      dxz     :     0.032927
      dyz     :     0.003645
      dx2y2   :     0.000132
      dxy     :     0.000347
      f0      :     0.000839  f :     0.004064
      f+1     :    -0.000169
      f-1     :    -0.000027
      f+2     :     0.001067
      f-2     :     0.001613
      f+3     :     0.000372
      f-3     :     0.000368

 13 N s       :     0.001042  s :     0.001042
      pz      :     0.060517  p :     0.063482
      px      :     0.000564
      py      :     0.002401
      dz2     :     0.000021  d :     0.009711
      dxz     :     0.008302
      dyz     :     0.001757
      dx2y2   :    -0.000297
      dxy     :    -0.000072
      f0      :     0.000761  f :     0.001947
      f+1     :    -0.000069
      f-1     :    -0.000061
      f+2     :     0.000535
      f-2     :     0.000942
      f+3     :    -0.000190
      f-3     :     0.000028



                      *****************************
                      * MAYER POPULATION ANALYSIS *
                      *****************************

  NA   - Mulliken gross atomic population
  ZA   - Total nuclear charge
  QA   - Mulliken gross atomic charge
  VA   - Mayer's total valence
  BVA  - Mayer's bonded valence
  FA   - Mayer's free valence

  ATOM       NA         ZA         QA         VA         BVA        FA
  0 C      4.5565     6.0000     1.4435     1.2491     1.2283     0.0208
  1 C      6.9455     6.0000    -0.9455     2.4551     2.3107     0.1444
  2 C      6.4816     6.0000    -0.4816     2.8706     2.8404     0.0302
  3 C      6.9455     6.0000    -0.9455     2.4552     2.3107     0.1444
  4 C      4.5565     6.0000     1.4435     1.2491     1.2283     0.0208
  5 C      7.1314     6.0000    -1.1314     2.5306     2.5297     0.0010
  6 H      1.2192     1.0000    -0.2192     1.3657     1.3657    -0.0000
  7 C      5.5464     6.0000     0.4536     2.9960     2.9936     0.0023
  8 N      7.9031     7.0000    -0.9031     2.0730     2.0644     0.0086
  9 H      0.8786     1.0000     0.1214     1.1493     1.1488     0.0005
 10 H      0.5075     1.0000     0.4925     0.5525     0.5522     0.0003
 11 H      0.8786     1.0000     0.1214     1.1493     1.1488     0.0005
 12 C      5.5464     6.0000     0.4536     2.9960     2.9937     0.0023
 13 N      7.9031     7.0000    -0.9031     2.0730     2.0644     0.0086

  Mayer bond orders larger than 0.100000
B(  0-C ,  1-C ) :  -0.1667 B(  0-C ,  2-C ) :   0.2323 B(  0-C ,  4-C ) :   0.4993 
B(  0-C ,  5-C ) :   0.2733 B(  0-C ,  6-H ) :  -0.2652 B(  0-C , 11-H ) :  -0.1903 
B(  0-C , 12-C ) :   0.7439 B(  0-C , 13-N ) :   0.1507 B(  1-C ,  2-C ) :   1.0933 
B(  1-C ,  3-C ) :  -0.1299 B(  1-C ,  5-C ) :  -0.2292 B(  1-C , 11-H ) :   1.2443 
B(  1-C , 12-C ) :   0.3819 B(  2-C ,  3-C ) :   1.0934 B(  2-C ,  4-C ) :   0.2323 
B(  2-C ,  6-H ) :  -0.1085 B(  2-C ,  9-H ) :  -0.1354 B(  2-C , 10-H ) :   0.6422 
B(  2-C , 11-H ) :  -0.1354 B(  3-C ,  4-C ) :  -0.1667 B(  3-C ,  5-C ) :  -0.2292 
B(  3-C ,  7-C ) :   0.3819 B(  3-C ,  9-H ) :   1.2443 B(  4-C ,  5-C ) :   0.2732 
B(  4-C ,  6-H ) :  -0.2652 B(  4-C ,  7-C ) :   0.7439 B(  4-C ,  8-N ) :   0.1508 
B(  4-C ,  9-H ) :  -0.1903 B(  5-C ,  6-H ) :   1.7171 B(  5-C ,  7-C ) :   0.1434 
B(  5-C ,  8-N ) :   0.1113 B(  5-C ,  9-H ) :   0.1340 B(  5-C , 11-H ) :   0.1340 
B(  5-C , 12-C ) :   0.1434 B(  5-C , 13-N ) :   0.1113 B(  6-H ,  9-H ) :   0.1046 
B(  6-H , 11-H ) :   0.1046 B(  7-C ,  8-N ) :   1.5765 B(  7-C , 12-C ) :   0.2632 
B( 12-C , 13-N ) :   1.5765 

-------
TIMINGS
-------

Total SCF time: 0 days 0 hours 2 min 18 sec 

[...]
     29      -0.001442  -0.001436   0.000864  -0.000097  -0.000396  -0.001243
     30      -0.095887  -0.035526  -0.000174   0.841536  -0.455545   0.000018
     31       0.000002  -0.000000  -0.012733  -0.000021   0.000013   0.199892
     32       0.000390   0.000830  -0.000000   0.001958  -0.000871  -0.000001
     33      -0.234960  -0.211588  -0.143187   0.121968  -0.202926   0.292443
     34      -0.485710  -0.384549  -0.455442   0.034569  -0.230754   0.525341
     35      -0.001439  -0.001434  -0.000861  -0.000100  -0.000393   0.001237
     36       0.015695   0.007265   0.039160   0.025831   0.019383   0.004052
     37      -0.014810   0.011470  -0.035021   0.000138   0.015596  -0.003488
     38      -0.000024   0.000002   0.000005  -0.000000  -0.000003  -0.000010
     39      -0.015670   0.007872   0.047130  -0.017712   0.006589  -0.023932
     40      -0.003774   0.000693   0.040888  -0.005962   0.004294  -0.011269
     41      -0.000008  -0.000001   0.000001   0.000019   0.000004  -0.000007
                 36         37         38         39         40         41    
      0       0.001412   0.095378  -0.000338  -0.003291  -0.001372   0.000359
      1      -0.052618   0.064235   0.000318   0.000996  -0.001786   0.001883
      2       0.000006  -0.000013   0.000000   0.000000   0.000001  -0.000001
      3      -0.042596   0.004455  -0.010405   0.001569  -0.051805   0.053175
      4      -0.029919  -0.003294   0.008094  -0.000003   0.030725  -0.028517
      5       0.000001   0.000009  -0.000007   0.000001  -0.000027   0.000026
      6       0.057403  -0.000000  -0.000002   0.000000   0.001887  -0.000000
      7      -0.000001  -0.004909  -0.083001   0.001432   0.000002  -0.023667
      8       0.000004   0.000000   0.000000  -0.000000   0.000001   0.000000
      9      -0.042595  -0.004455   0.010405  -0.001569  -0.051799  -0.053184
     10       0.029921  -0.003294   0.008094  -0.000003  -0.030719  -0.028519
     11       0.000001  -0.000009   0.000007  -0.000001  -0.000026  -0.000025
     12       0.001414  -0.095375   0.000338   0.003291  -0.001371  -0.000359
     13       0.052618   0.064239   0.000318   0.000996   0.001786   0.001883
     14       0.000005   0.000013  -0.000000  -0.000000   0.000001   0.000001
     15      -0.127524   0.000001  -0.000000  -0.000002   0.001859   0.000000
     16       0.000003  -0.000723  -0.002035  -0.086992  -0.000000   0.002060
     17      -0.000003   0.000000   0.000000   0.000000  -0.000002  -0.000000
     18       0.044284  -0.000001   0.000001   0.000024  -0.001315  -0.000001
     19      -0.000001  -0.002575   0.022795   0.995695   0.000002  -0.020932
     20       0.000131  -0.000002  -0.000000  -0.000005  -0.000005   0.000000
     21       0.486025   0.494758  -0.000125   0.000046   0.000679  -0.000147
     22      -0.284969  -0.289138   0.000035  -0.000304  -0.000740  -0.000171
     23      -0.000090  -0.000071  -0.000000   0.000000  -0.000000   0.000001
     24      -0.351095  -0.344562   0.000077  -0.000389  -0.000325   0.000211
     25       0.203128   0.198851  -0.000050   0.000277   0.000254  -0.000078
     26       0.000063   0.000054  -0.000000   0.000000  -0.000001   0.000001
     27      -0.018861  -0.003321  -0.148418   0.016651   0.610087   0.593030
     28      -0.036630  -0.008005  -0.087638   0.008455   0.352256   0.339906
     29       0.000055  -0.000030  -0.000077   0.000011   0.000324   0.000311
     30      -0.014734   0.000000   0.000023  -0.000000  -0.003495   0.000005
     31       0.000001  -0.002541   0.965827  -0.017196  -0.000017   0.239577
     32       0.000003  -0.000000  -0.000005   0.000000   0.000001  -0.000001
     33      -0.018860   0.003321   0.148415  -0.016651   0.610151  -0.592931
     34       0.036631  -0.008005  -0.087645   0.008456  -0.352330   0.339885
     35       0.000054   0.000031   0.000079  -0.000011   0.000330  -0.000317
     36       0.486036  -0.494772   0.000125  -0.000046   0.000679   0.000147
     37       0.284947  -0.289118   0.000035  -0.000304   0.000740  -0.000170
     38      -0.000091   0.000072   0.000000  -0.000000  -0.000000  -0.000001
     39      -0.351102   0.344571  -0.000077   0.000389  -0.000325  -0.000211
     40      -0.203112   0.198837  -0.000050   0.000277  -0.000254  -0.000078
     41       0.000063  -0.000054   0.000000  -0.000000  -0.000001  -0.000001


-----------
IR SPECTRUM
-----------

 Mode   freq       eps      Int      T**2         TX        TY        TZ
       cm**-1   L/(mol*cm) km/mol    a.u.
----------------------------------------------------------------------------
  6:    111.69   0.003537   17.87  0.009882  (-0.000002 -0.099410  0.000001)
  7:    115.07   0.001623    8.20  0.004402  (-0.000160 -0.000002 -0.066346)
  8:    130.39   0.000000    0.00  0.000000  (-0.000001 -0.000146 -0.000004)
  9:    190.93   0.000663    3.35  0.001084  (-0.032921  0.000001 -0.000190)
 10:    324.23   0.000000    0.00  0.000000  ( 0.000000 -0.000035 -0.000000)
 11:    397.06   0.005116   25.85  0.004021  ( 0.000442 -0.000001 -0.063406)
 12:    427.50   0.013752   69.50  0.010039  (-0.100193  0.000002 -0.000003)
 13:    469.11   0.000110    0.56  0.000073  ( 0.000000  0.008561 -0.000001)
 14:    489.70   0.008374   42.32  0.005336  ( 0.000256  0.000000  0.073049)
 15:    562.42   0.000139    0.70  0.000077  (-0.000001  0.008797  0.000000)
 16:    563.40   0.000000    0.00  0.000000  ( 0.000001  0.000311  0.000001)
 17:    616.42   0.000034    0.17  0.000017  (-0.003280 -0.000000  0.002530)
 18:    627.17   0.028437  143.71  0.014150  (-0.000315  0.000001  0.118952)
 19:    660.82   0.002003   10.12  0.000946  ( 0.000020  0.000000  0.030759)
 20:    671.79   0.000000    0.00  0.000000  (-0.000001 -0.000136  0.000003)
 21:    694.34   0.000002    0.01  0.000001  (-0.000002  0.000899 -0.000001)
 22:    881.33   0.028049  141.75  0.009932  ( 0.099658 -0.000002 -0.000261)
 23:    904.34   0.003959   20.00  0.001366  (-0.000007 -0.000001 -0.036959)
 24:    949.34   0.000203    1.02  0.000067  (-0.000484  0.000000 -0.008146)
 25:    982.49   0.000002    0.01  0.000001  (-0.000002 -0.000727  0.000001)
 26:   1068.87   0.270905  1369.04  0.079092  ( 0.281234 -0.000006  0.000115)
 27:   1094.54   0.001977    9.99  0.000564  ( 0.000001 -0.023744  0.000000)
 28:   1143.27   0.013625   68.86  0.003719  (-0.060984  0.000001 -0.000094)
 29:   1267.64   0.000042    0.21  0.000010  ( 0.000001  0.003196  0.000001)
 30:   1287.41   0.042457  214.56  0.010291  ( 0.101447 -0.000003 -0.000108)
 31:   1357.11   0.000122    0.62  0.000028  ( 0.005302 -0.000001 -0.000067)
 32:   1402.59   0.000484    2.45  0.000108  (-0.000022  0.010379  0.000001)
 33:   1408.04   0.191743  968.99  0.042496  ( 0.206145 -0.000003 -0.000075)
 34:   1478.42   0.209961  1061.06  0.044318  ( 0.210519 -0.000004  0.000009)
 35:   1514.33   0.000252    1.27  0.000052  (-0.000000  0.007207  0.000001)
 36:   2122.27   0.876835  4431.16  0.128932  ( 0.359071 -0.000008 -0.000061)
 37:   2215.42   0.070634  356.95  0.009949  (-0.000004 -0.099747 -0.000001)
 38:   3146.85   0.004659   23.55  0.000462  (-0.000000 -0.021495  0.000000)
 39:   3169.95   0.001226    6.20  0.000121  (-0.000001 -0.010985 -0.000000)
 40:   3189.83   0.007826   39.55  0.000766  (-0.027669  0.000002  0.000060)
 41:   3196.70   0.005066   25.60  0.000495  (-0.000002 -0.022238  0.000000)

* The epsilon (eps) is given for a Dirac delta lineshape.
** The dipole moment derivative (T) already includes vibrational overlap.

The first frequency considered to be a vibration is 6
The total number of vibrations considered is 36


--------------------------
THERMOCHEMISTRY AT 298.15K
--------------------------

Temperature         ...   298.15 K
Pressure            ...     1.00 atm
Total Mass          ...   128.13 AMU
Quasi RRHO          ...     True
Cut-Off Frequency   ...     1.00 cm^-1

Throughout the following assumptions are being made:
  (1) The electronic state is orbitally nondegenerate
      but the spin degeneracy is treated
  (2) There are no thermally accessible electronically excited states
  (3) Hindered rotations indicated by low frequency modes are not
      treated as such but are treated as vibrations and this may
      cause some error
  (4) All equations used are the standard statistical mechanics
      equations for an ideal gas
  (5) All vibrations are strictly harmonic

freq.     111.69  E(vib)   ...       0.45 
freq.     115.07  E(vib)   ...       0.44 
freq.     130.39  E(vib)   ...       0.43 
freq.     190.93  E(vib)   ...       0.36 
freq.     324.23  E(vib)   ...       0.25 
freq.     397.06  E(vib)   ...       0.20 
freq.     427.50  E(vib)   ...       0.18 
freq.     469.11  E(vib)   ...       0.16 
freq.     489.70  E(vib)   ...       0.15 
freq.     562.42  E(vib)   ...       0.11 
freq.     563.40  E(vib)   ...       0.11 
freq.     616.42  E(vib)   ...       0.09 
freq.     627.17  E(vib)   ...       0.09 
freq.     660.82  E(vib)   ...       0.08 
freq.     671.79  E(vib)   ...       0.08 
freq.     694.34  E(vib)   ...       0.07 
freq.     881.33  E(vib)   ...       0.04 
freq.     904.34  E(vib)   ...       0.03 
freq.     949.34  E(vib)   ...       0.03 
freq.     982.49  E(vib)   ...       0.02 
freq.    1068.87  E(vib)   ...       0.02 
freq.    1094.54  E(vib)   ...       0.02 
freq.    1143.27  E(vib)   ...       0.01 
freq.    1267.64  E(vib)   ...       0.01 
freq.    1287.41  E(vib)   ...       0.01 
freq.    1357.11  E(vib)   ...       0.01 
freq.    1402.59  E(vib)   ...       0.00 
freq.    1408.04  E(vib)   ...       0.00 
freq.    1478.42  E(vib)   ...       0.00 
freq.    1514.33  E(vib)   ...       0.00 
freq.    2122.27  E(vib)   ...       0.00 
freq.    2215.42  E(vib)   ...       0.00 
freq.    3146.85  E(vib)   ...       0.00 
freq.    3169.95  E(vib)   ...       0.00 
freq.    3189.83  E(vib)   ...       0.00 
freq.    3196.70  E(vib)   ...       0.00 

------------
INNER ENERGY
------------

The inner energy is: U= E(el) + E(ZPE) + E(vib) + E(rot) + E(trans)
    E(el)   - is the total energy from the electronic structure calculation
              = E(kin-el) + E(nuc-el) + E(el-el) + E(nuc-nuc)
    E(ZPE)  - the the zero temperature vibrational energy from the frequency calculation
    E(vib)  - the the finite temperature correction to E(ZPE) due to population
              of excited vibrational states
    E(rot)  - is the rotational thermal energy
    E(trans)- is the translational thermal energy

Summary of contributions to the inner energy U:
Electronic energy                ...   -416.75847917 Eh
Zero point energy                ...      0.09302389 Eh      58.37 kcal/mol
Thermal vibrational correction   ...      0.00549567 Eh       3.45 kcal/mol
Thermal rotational correction    ...      0.00141627 Eh       0.89 kcal/mol
Thermal translational correction ...      0.00141627 Eh       0.89 kcal/mol
-----------------------------------------------------------------------
Total thermal energy                   -416.65712706 Eh


Summary of corrections to the electronic energy:
(perhaps to be used in another calculation)
Total thermal correction                  0.00832821 Eh       5.23 kcal/mol
Non-thermal (ZPE) correction              0.09302389 Eh      58.37 kcal/mol
-----------------------------------------------------------------------
Total correction                          0.10135211 Eh      63.60 kcal/mol


--------
ENTHALPY
--------

The enthalpy is H = U + kB*T
                kB is Boltzmann's constant
Total thermal energy              ...   -416.65712706 Eh 
Thermal Enthalpy correction       ...      0.00094421 Eh       0.59 kcal/mol
-----------------------------------------------------------------------
Total Enthalpy                    ...   -416.65618285 Eh


Note: Rotational entropy computed according to Herzberg 
Infrared and Raman Spectra, Chapter V,1, Van Nostrand Reinhold, 1945 
Point Group:  C2, Symmetry Number:   2  
Rotational constants in cm-1:     0.087907     0.030655     0.022729 

Vibrational entropy computed according to the QRRHO of S. Grimme
Chem.Eur.J. 2012 18 9955 using a reference frequency of 100.0 cm-1


-------
ENTROPY
-------

The entropy contributions are T*S = T*(S(el)+S(vib)+S(rot)+S(trans))
     S(el)   - electronic entropy
     S(vib)  - vibrational entropy
     S(rot)  - rotational entropy
     S(trans)- translational entropy
The entropies will be listed as multiplied by the temperature to get
units of energy

Electronic entropy                ...      0.00065446 Eh      0.41 kcal/mol
Vibrational entropy               ...      0.00921717 Eh      5.78 kcal/mol
Rotational entropy                ...      0.01343588 Eh      8.43 kcal/mol
Translational entropy             ...      0.01922234 Eh     12.06 kcal/mol
-----------------------------------------------------------------------
Final entropy term                ...      0.04252985 Eh     26.69 kcal/mol

In case the symmetry of your molecule has not been determined correctly
or in case you have a reason to use a different symmetry number we print 
out the resulting rotational entropy values for sn=1,12:

 non-linear molecules -----------------------------------
|  sn= 1 | S(rot)=       0.01409034 Eh      8.84 kcal/mol|
|  sn= 2 | S(rot)=       0.01343588 Eh      8.43 kcal/mol|
|  sn= 3 | S(rot)=       0.01305305 Eh      8.19 kcal/mol|
|  sn= 4 | S(rot)=       0.01278143 Eh      8.02 kcal/mol|
|  sn= 5 | S(rot)=       0.01257074 Eh      7.89 kcal/mol|
|  sn= 6 | S(rot)=       0.01239859 Eh      7.78 kcal/mol|
|  sn= 7 | S(rot)=       0.01225305 Eh      7.69 kcal/mol|
|  sn= 8 | S(rot)=       0.01212697 Eh      7.61 kcal/mol|
|  sn= 9 | S(rot)=       0.01201576 Eh      7.54 kcal/mol|
|  sn=10 | S(rot)=       0.01191628 Eh      7.48 kcal/mol|
|  sn=11 | S(rot)=       0.01182629 Eh      7.42 kcal/mol|
|  sn=12 | S(rot)=       0.01174414 Eh      7.37 kcal/mol|
 linear molecules ---------------------------------------
|  Dinfh | S(rot)=       0.00889869 Eh      5.58 kcal/mol|
|  Cinfv | S(rot)=       0.00955314 Eh      5.99 kcal/mol|
 --------------------------------------------------------


-------------------
GIBBS FREE ENERGY
-------------------

The Gibbs free energy is G = H - T*S

Total enthalpy                    ...   -416.65618285 Eh 
Total entropy correction          ...     -0.04252985 Eh    -26.69 kcal/mol
-----------------------------------------------------------------------
Final Gibbs free energy         ...   -416.69871271 Eh

For completeness - the Gibbs free energy minus the electronic energy
G-E(el)                           ...      0.05976646 Eh     37.50 kcal/mol


Maximum memory used throughout the entire PROP-calculation: 107.6 MB

--------------------------------
SUGGESTED CITATIONS FOR THIS RUN
--------------------------------

Below you find a list of papers that are relevant to this ORCA run
We neither can nor want to force you to cite these papers, but we appreciate if you do
You receive ORCA, which is the product of decades of hard work by many enthusiastic individuals, for free
The only thing we kindly ask in return is that you cite our papers,
We deeply appreciate it, if you show your appreciation for ORCA by not just citing the generic ORCA reference.

Please note that relegating all ORCA citations to the supporting information does *not* help us.
SI sections are not indexed - citations you put there will not count into any citation statistics
But we need these citations in order to attract the funding resources that allow us to do what we are doing

Therefore, if you are a happy ORCA user, please consider citing a few of the papers listed below in the main body of your paper

In addition to the list printed below, the program has created the file cs_rporg_162_red_freq_06.bibtex that contains the list in bibtex format
You can import this file easily into all common literature databanks and citation aid programs


List of essential papers. We consider these as the minimum necessary citations

  1. Neese,F.
     Software update: the ORCA program system, version 5.0
     WIRES Comput. Molec. Sci., 2022 12(1)e1606
     doi.org/10.1002/wcms.1606

List of papers to cite with high priority. The work reported in these papers was absolutely
necessary for this run to complete.
Our perspective: the developers of density functionals and basis sets usually get cited in chemistry papers
Good! But without the algorithms to do something with them, the functionals or basis sets would not do anything.
Hence, in our opinion, the algorithm design and method developments papers are equally worthy of getting cited

  1. Neese,F.
     An improvement of the resolution of the identity approximation for the formation of the Coulomb matrix
     J. Comp. Chem., 2003 24(14)1740-1747
     doi.org/10.1002/jcc.10318
  2. Bykov,D.; Petrenko,T.; Izsak,R.; Kossmann,S.; Becker,U.; Valeev,E.; Neese,F.
     Efficient implementation of the analytic second derivatives of Hartree-Fock and hybrid DFT energies: a detailed analysis of different approximations
     Molec. Phys., 2015 113 1961-1977
     doi.org/10.1080/00268976.2015.1025114
  3. Garcia-Rates,M.; Neese,F.
     Efficient implementation of the analytical second derivatives of hartree-fock and hybrid DFT energies within the framework of the conductor-like polarizable continuum model
     J. Comput. Chem., 2019 40 1816-1828
     doi.org/10.1002/jcc.25833
  4. Garcia-Rates,M.; Neese,F.
     Effect of the Solute Cavity on the Solvation Energy and its Derivatives within the Framework of the Gaussian Charge Scheme
     J. Comput. Chem., 2020 41 922-939
     doi.org/10.1002/jcc.26139
  5. Neese,F.
     The SHARK Integral Generation and Digestion System
     J. Comp. Chem., 2022  1-16
     doi.org/10.1002/jcc.26942
  6. Lehtola,S.; Steigemann,C.; Oliveira,M.; Marques,M.
     Recent developments in Libxc - A comprehensive library of functionals for density functional theory
     Software X, 2018 7 
     doi.org/10.1016/j.softx.2017.11.002
  7. Grimme,S.; Antony,J.; Ehrlich,S.; Krieg,H.
     A consistent and accurate ab initio parametrization of density functional dispersion correction (DFT-D) for the 94 elements H-Pu
     J. Chem. Phys., 2010 132 154104-XXXX
     doi.org/10.1063/1.3382344
  8. Grimme,S.; Ehrlich,S.; Goerigk,L.
     Effect of the damping function in dispersion corrected density functional theory
     J. Comput. Chem., 2011 32(7)1456-1465
     doi.org/10.1002/jcc.21759

List of suggested additional citations. These are papers that are important in the 'surrounding' of 
of this run, or papers that preceded the highly important papers. If you like your results we are grateful for a citation.

  1. Neese,F.
     The ORCA program system
     WIRES Comput. Molec. Sci., 2012 2(1)73-78
     doi.org/10.1002/wcms.81
  2. Neese,F.
     Software update: the ORCA program system, version 4.0
     WIRES Comput. Molec. Sci., 2018 8(1)1-6
     doi.org/10.1002/wcms.1327
  3. Neese,F.; Wennmohs,F.; Becker,U.; Riplinger,C.
     The ORCA quantum chemistry program package
     J. Chem. Phys., 2020 152 Art. No. L224108
     doi.org/10.1063/5.0004608

List of optional additional citations

  1. Neese,F.
     Approximate second-order SCF convergence for spin unrestricted wavefunctions
     Chem. Phys. Lett., 2000 325(1-3)93-98
     doi.org/10.1016/s0009-2614(00)00662-x

Timings for individual modules:

Sum of individual times          ...     1508.952 sec (=  25.149 min)
Startup calculation              ...        5.932 sec (=   0.099 min)   0.4 %
SCF iterations                   ...      145.498 sec (=   2.425 min)   9.6 %
Property integrals               ...      668.846 sec (=  11.147 min)  44.3 %
SCF Response                     ...      582.454 sec (=   9.708 min)  38.6 %
Property calculations            ...      106.221 sec (=   1.770 min)   7.0 %
                             ****ORCA TERMINATED NORMALLY****
TOTAL RUN TIME: 0 days 0 hours 25 minutes 12 seconds 379 msec
