
                                 *****************
                                 * O   R   C   A *
                                 *****************

                                            #,                                       
                                            ###                                      
                                            ####                                     
                                            #####                                    
                                            ######                                   
                                           ########,                                 
                                     ,,################,,,,,                         
                               ,,#################################,,                 
                          ,,##########################################,,             
                       ,#########################################, ''#####,          
                    ,#############################################,,   '####,        
                  ,##################################################,,,,####,       
                ,###########''''           ''''###############################       
              ,#####''   ,,,,##########,,,,          '''####'''          '####       
            ,##' ,,,,###########################,,,                        '##       
           ' ,,###''''                  '''############,,,                           
         ,,##''                                '''############,,,,        ,,,,,,###''
      ,#''                                            '''#######################'''  
     '                                                          ''''####''''         
             ,#######,   #######,   ,#######,      ##                                
            ,#'     '#,  ##    ##  ,#'     '#,    #''#        ,####,   ,####,        
            ##       ##  ##   ,#'  ##            #'  '#       #'       #'  '#        
            ##       ##  #######   ##           ,######,      #####,   #    #        
            '#,     ,#'  ##    ##  '#,     ,#' ,#      #,     #,   #   #,  ,#        
             '#######'   ##     ##  '#######'  #'      '#     '####' # '####'        



                #########################################################
                #                        -***-                          #
                #          Department of theory and spectroscopy        #
                #                                                       #
                #                      Frank Neese                      #
                #                                                       #
                #     Directorship, Architecture, Infrastructure        #
                #                    SHARK, DRIVERS                     #
                #        Core code/Algorithms in most modules           #
                #                                                       #
                #        Max Planck Institute fuer Kohlenforschung      #
                #                Kaiser Wilhelm Platz 1                 #
                #                 D-45470 Muelheim/Ruhr                 #
                #                      Germany                          #
                #                                                       #
                #                  All rights reserved                  #
                #                        -***-                          #
                #########################################################


                         Program Version 6.0.0  -   RELEASE  -


 With contributions from (in alphabetic order):
   Daniel Aravena         : Magnetic Suceptibility
   Michael Atanasov       : Ab Initio Ligand Field Theory (pilot matlab implementation)
   Alexander A. Auer      : GIAO ZORA, VPT2 properties, NMR spectrum
   Ute Becker             : All parallelization in ORCA, NUMFREQ, NUMCALC
   Giovanni Bistoni       : ED, misc. LED, open-shell LED, HFLD
   Martin Brehm           : Molecular dynamics
   Dmytro Bykov           : pre 5.0 version of the SCF Hessian
   Marcos Casanova-Páez   : Triplet and SCS-CIS(D). UHF-(DLPNO)-IP/EA/STEOM-CCSD. UHF-CVS-IP/STEOM-CCSD
   Vijay G. Chilkuri      : MRCI spin determinant printing, contributions to CSF-ICE
   Pauline Colinet        : FMM embedding
   Dipayan Datta          : RHF DLPNO-CCSD density
   Achintya Kumar Dutta   : EOM-CC, STEOM-CC
   Nicolas Foglia         : Exact transition moments, OPA infrastructure, MCD improvements
   Dmitry Ganyushin       : Spin-Orbit,Spin-Spin,Magnetic field MRCI
   Miquel Garcia          : C-PCM and meta-GGA Hessian, CCSD/C-PCM, Gaussian charge scheme
   Tiago L. C. Gouveia    : GS-ROHF, GS-ROCIS
   Yang Guo               : DLPNO-NEVPT2, F12-NEVPT2, CIM, IAO-localization
   Andreas Hansen         : Spin unrestricted coupled pair/coupled cluster methods
   Ingolf Harden          : AUTO-CI MPn and infrastructure 
   Benjamin Helmich-Paris : MC-RPA, TRAH-(SCF,CASSCF), AVAS, COSX integrals, SCF dyn. polar.
   Lee Huntington         : MR-EOM, pCC
   Robert Izsak           : Overlap fitted RIJCOSX, COSX-SCS-MP3, EOM
   Riya Kayal             : Wick's Theorem for AUTO-CI, AUTO-CI UHF-CCSDT
   Emily Kempfer          : AUTO-CI, RHF CISDT and CCSDT
   Christian Kollmar      : KDIIS, OOCD, Brueckner-CCSD(T), CCSD density, CASPT2, CASPT2-K, improved NEVPT2
   Axel Koslowski         : Symmetry handling
   Simone Kossmann        : Meta GGA functionals, TD-DFT gradient, OOMP2, (MP2 Hessian; deprecated post 5.0)
   Lucas Lang             : DCDCAS
   Marvin Lechner         : AUTO-CI (C++ implementation), FIC-MRCC
   Spencer Leger          : CASSCF response
   Dagmar Lenk            : GEPOL surface, SMD, ORCA-2-JSON
   Dimitrios Liakos       : Extrapolation schemes; Compound Job, initial MDCI parallelization
   Dimitrios Manganas     : Further ROCIS development; embedding schemes. LFT, Crystal Embedding
   Dimitrios Pantazis     : SARC Basis sets
   Anastasios Papadopoulos: AUTO-CI, single reference methods and gradients
   Taras Petrenko         : pre 6.0 DFT Hessian and TD-DFT gradient, (ASA, deprecated), ECA, 1-Electron XAS/XES, NRVS
   Peter Pinski           : DLPNO-MP2, DLPNO-MP2 Gradient
   Christoph Reimann      : Effective Core Potentials
   Marius Retegan         : Local ZFS, SOC
   Christoph Riplinger    : Optimizer, TS searches, QM/MM, DLPNO-CCSD(T), (RO)-DLPNO pert. Triples
   Michael Roemelt        : Original ROCIS implementation
   Masaaki Saitow         : Open-shell DLPNO-CCSD energy and density
   Barbara Sandhoefer     : DKH picture change effects
   Kantharuban Sivalingam : CASSCF convergence/infrastructure, NEVPT2 and variants, FIC-MRCI
   Bernardo de Souza      : ESD, SOC TD-DFT
   Georgi Stoychev        : AutoAux, RI-MP2 NMR, DLPNO-MP2 response, X2C
   Van Anh Tran           : RI-MP2 g-tensors
   Willem Van den Heuvel  : Paramagnetic NMR
   Zikuan Wang            : NOTCH, Electric field optimization 
   Frank Wennmohs         : Technical directorship and infrastructure
   Hang Xu                : AUTO-CI-Response properties 


 We gratefully acknowledge several colleagues who have allowed us to
 interface, adapt or use parts of their codes:
   Stefan Grimme, W. Hujo, H. Kruse, P. Pracht,  : VdW corrections, initial TS optimization,
                  C. Bannwarth, S. Ehlert,         DFT functionals, gCP, sTDA/sTD-DF
                  L. Wittmann, M. Mueller
   Ed Valeev, F. Pavosevic, A. Kumar             : LibInt (2-el integral package), F12 methods
   Garnet Chan, S. Sharma, J. Yang, R. Olivares  : DMRG
   Ulf Ekstrom                                   : XCFun DFT Library
   Mihaly Kallay                                 : mrcc  (arbitrary order and MRCC methods)
   Frank Weinhold                                : gennbo (NPA and NBO analysis)
   Simon Mueller                                 : openCOSMO-RS
   Christopher J. Cramer and Donald G. Truhlar   : smd solvation model
   Lars Goerigk                                  : TD-DFT with DH, B97 family of functionals
   V. Asgeirsson, H. Jonsson                     : NEB implementation
   FAccTs GmbH                                   : IRC, NEB, NEB-TS, DLPNO-Multilevel, CI-OPT
                                                   MM, QMMM, 2- and 3-layer-ONIOM, Crystal-QMMM,
                                                   LR-CPCM, SF, NACMEs, symmetry and pop. for TD-DFT,
                                                   nearIR, NL-DFT gradient (VV10), updates on ESD,
                                                   ML-optimized integration grids, MBIS, APM,
                                                   GOAT, DOCKER, SOLVATOR, interface openCOSMO-RS
   S Lehtola, MJT Oliveira, MAL Marques          : LibXC Library
   Liviu Ungur et al                             : ANISO software


 Your calculation uses the libint2 library for the computation of 2-el integrals
 For citations please refer to: http://libint.valeyev.net

 Your ORCA version has been built with support for libXC version: 6.2.2
 For citations please refer to: https://libxc.gitlab.io

 This ORCA versions uses:
   CBLAS   interface :  Fast vector & matrix operations
   LAPACKE interface :  Fast linear algebra routines
   SCALAPACK package :  Parallel linear algebra routines
   Shared memory     :  Shared parallel matrices
   BLAS/LAPACK       :  OpenBLAS 0.3.27  USE64BITINT DYNAMIC_ARCH NO_AFFINITY SkylakeX SINGLE_THREADED
        Core in use  :  SkylakeX
   Copyright (c) 2011-2014, The OpenBLAS Project


NOTE: MaxCore=3000 MB was set to SCF,MP2,MDCI,CIPSI,MRCI and CIS
      => If you want to overwrite this, your respective input block should be placed after the MaxCore statement
Your calculation utilizes the atom-pairwise dispersion correction
with the Becke-Johnson damping scheme (D3BJ)


Your calculation utilizes the SMD solvation module
Please cite in your paper:
A.V. Marenich, C.J. Cramer, D.G. Truhlar J. Phys. Chem. B, 113, (2009), 6378 

Warning: RI is on but no J-basis has been assigned. Assigning Def2/J (nothing to worry about!)
================================================================================

----- Orbital basis set information -----
Your calculation utilizes the basis: aug-cc-pVTZ 
    H, B-Ne : Obtained from the ccRepo (grant-hill.group.shef.ac.uk/ccrepo) Feb. 2017
              R. A. Kendall, T. H. Dunning, Jr., R. J. Harrison, J. Chem. Phys. 96, 6796 (1992)
         He : Obtained from the ccRepo (grant-hill.group.shef.ac.uk/ccrepo) Feb. 2017
              D. E. Woon, T. H. Dunning, Jr., J. Chem. Phys. 100, 2975 (1994)
  Li-Be, Na : Obtained from the ccRepo (grant-hill.group.shef.ac.uk/ccrepo) Feb. 2017
              B. P. Prascher, D. E. Woon, K. A. Peterson, T. H. Dunning, Jr., A. K. Wilson, Theor. Chem. Acc. 128, 69 (2011)
         Mg : Obtained from the Peterson Research Group Website (tyr0.chem.wsu.edu/~kipeters) Feb. 2017
              B. P. Prascher, D. E. Woon, K. A. Peterson, T. H. Dunning, Jr., A. K. Wilson, Theor. Chem. Acc. 128, 69 (2011)
      Al-Ar : Obtained from the ccRepo (grant-hill.group.shef.ac.uk/ccrepo) Feb. 2017
              D. E. Woon, T. H. Dunning, Jr., J. Chem. Phys. 98, 1358 (1993)
      Sc-Zn : Obtained from the ccRepo (grant-hill.group.shef.ac.uk/ccrepo) Feb. 2017
              N. B. Balabanov, K. A. Peterson, J. Chem. Phys. 123, 064107 (2005)
              N. B. Balabanov, K. A. Peterson, J. Chem. Phys. 125, 074110 (2006)
      Ga-Kr : Obtained from the ccRepo (grant-hill.group.shef.ac.uk/ccrepo) Feb. 2017
              A. K. Wilson, D. E. Woon, K. A. Peterson, T. H. Dunning, Jr., J. Chem. Phys. 110, 7667 (1999)
     Ag, Au : Obtained from the Peterson Research Group Website (tyr0.chem.wsu.edu/~kipeters) Feb. 2017
              K. A. Peterson, C. Puzzarini, Theor. Chem. Acc. 114, 283 (2005)

----- AuxJ basis set information -----
Your calculation utilizes the auxiliary basis: def2/J
   F. Weigend, Phys. Chem. Chem. Phys. 8, 1057 (2006).

================================================================================
                                        WARNINGS
                       Please study these warnings very carefully!
================================================================================


WARNING: your system is open-shell and RHF/RKS was chosen
  ===> : WILL SWITCH to UHF/UKS


================================================================================
                                       INPUT FILE
================================================================================
NAME = cs_rporg_100_ox_solv_02.inp
|  1> !B3LYP aug-cc-pVTZ d3 TightSCF SlowConv RIJCOSX defgrid2
|  2>  
|  3> %pal
|  4> nprocs 4
|  5> end
|  6>  
|  7> %scf
|  8> MaxIter 1500
|  9> end
| 10>  
| 11> %maxcore 3000
| 12>  
| 13> !CPCM
| 14> %cpcm smd true
| 15> SMDsolvent "MeCN"
| 16> surfacetype gepol_ses
| 17> rsolv 2.19
| 18> end 
| 19>  
| 20> * xyz 1 2
| 21> C           0.86770061929664     -1.42689432299132      0.00000897101558
| 22> C           2.10468085183811     -0.72689058389273     -0.00000825447661
| 23> C           2.18067581844409      0.67999913600521     -0.00001076122154
| 24> C           1.03283927538202      1.45145343690800      0.00000700381243
| 25> C          -0.22537653673213      0.77678989280940      0.00001343275561
| 26> C          -0.25105693451531     -0.64408759720608      0.00001506224490
| 27> O          -1.55281870061497     -1.07751154880539      0.00002630462179
| 28> C          -2.31401480280601     -0.00668804123383      0.00001929043081
| 29> C          -1.56234358562406      1.18487206630760      0.00001231970991
| 30> H          -1.97074260676972      2.19593761753153      0.00001018835187
| 31> H          -3.39348512015147     -0.17364143845796      0.00002005021122
| 32> H           1.07805269996545      2.54351477894486     -0.00000377489980
| 33> H           3.16218666325774      1.15998906195145     -0.00002790877216
| 34> H           3.03083245792013     -1.30967197800346     -0.00002115939682
| 35> H           0.82193140110952     -2.51820987986727      0.00000983561282
| 36> *
| 37> 
| 38>                          ****END OF INPUT****
================================================================================

                       ****************************
                       * Single Point Calculation *
                       ****************************

---------------------------------
CARTESIAN COORDINATES (ANGSTROEM)
---------------------------------
  C      0.867701   -1.426894    0.000009
  C      2.104681   -0.726891   -0.000008
  C      2.180676    0.679999   -0.000011
  C      1.032839    1.451453    0.000007
  C     -0.225377    0.776790    0.000013
  C     -0.251057   -0.644088    0.000015
  O     -1.552819   -1.077512    0.000026
  C     -2.314015   -0.006688    0.000019
  C     -1.562344    1.184872    0.000012
  H     -1.970743    2.195938    0.000010
  H     -3.393485   -0.173641    0.000020
  H      1.078053    2.543515   -0.000004
  H      3.162187    1.159989   -0.000028
  H      3.030832   -1.309672   -0.000021
  H      0.821931   -2.518210    0.000010

----------------------------
CARTESIAN COORDINATES (A.U.)
----------------------------
  NO LB      ZA    FRAG     MASS         X           Y           Z
   0 C     6.0000    0    12.011    1.639717   -2.696439    0.000017
   1 C     6.0000    0    12.011    3.977270   -1.373624   -0.000016
   2 C     6.0000    0    12.011    4.120880    1.285012   -0.000020
   3 C     6.0000    0    12.011    1.951783    2.742849    0.000013
   4 C     6.0000    0    12.011   -0.425900    1.467920    0.000025
   5 C     6.0000    0    12.011   -0.474429   -1.217149    0.000028
   6 O     8.0000    0    15.999   -2.934402   -2.036202    0.000050
   7 C     6.0000    0    12.011   -4.372854   -0.012639    0.000036
   8 C     6.0000    0    12.011   -2.952402    2.239084    0.000023
   9 H     1.0000    0     1.008   -3.724164    4.149721    0.000019
  10 H     1.0000    0     1.008   -6.412758   -0.328135    0.000038
  11 H     1.0000    0     1.008    2.037224    4.806546   -0.000007
  12 H     1.0000    0     1.008    5.975667    2.192062   -0.000053
  13 H     1.0000    0     1.008    5.727443   -2.474921   -0.000040
  14 H     1.0000    0     1.008    1.553225   -4.758727    0.000019

--------------------------------
INTERNAL COORDINATES (ANGSTROEM)
--------------------------------
 C      0   0   0     0.000000000000     0.00000000     0.00000000
 C      1   0   0     1.421311130874     0.00000000     0.00000000
 C      2   1   0     1.408940708089   122.59730385     0.00000000
 C      3   2   1     1.382993300159   120.81291860     0.00000000
 C      4   3   2     1.427682712521   117.89468033     0.00000000
 C      1   2   3     1.365432105300   115.51369960     0.00000000
 O      6   1   2     1.372020414435   126.60382920   179.99974754
 C      7   6   1     1.313804586081   106.99188756   180.00043299
 C      5   4   3     1.397859774853   134.82574906   180.00101693
 H      9   5   4     1.090432624855   128.96897738     0.00000000
 H      8   7   6     1.092304720705   116.61532203   179.99961347
 H      4   3   2     1.092996902397   121.53401870   180.00055688
 H      3   2   1     1.092590439181   119.15200017   180.00021375
 H      2   1   3     1.094253604489   118.31441992   180.00007038
 H      1   2   3     1.092274904048   121.90695147   179.99994413

---------------------------
INTERNAL COORDINATES (A.U.)
---------------------------
 C      0   0   0     0.000000000000     0.00000000     0.00000000
 C      1   0   0     2.685888788446     0.00000000     0.00000000
 C      2   1   0     2.662512077221   122.59730385     0.00000000
 C      3   2   1     2.613478582349   120.81291860     0.00000000
 C      4   3   2     2.697929332798   117.89468033     0.00000000
 C      1   2   3     2.580292733480   115.51369960     0.00000000
 O      6   1   2     2.592742833431   126.60382920   179.99974754
 C      7   6   1     2.482730861183   106.99188756   180.00043299
 C      5   4   3     2.641572148096   134.82574906   180.00101693
 H      9   5   4     2.060619028470   128.96897738     0.00000000
 H      8   7   6     2.064156776922   116.61532203   179.99961347
 H      4   3   2     2.065464810755   121.53401870   180.00055688
 H      3   2   1     2.064696706594   119.15200017   180.00021375
 H      2   1   3     2.067839633540   118.31441992   180.00007038
 H      1   2   3     2.064100431606   121.90695147   179.99994413

---------------------
BASIS SET INFORMATION
---------------------
There are 3 groups of distinct atoms

 Group   1 Type C   : 19s6p3d2f contracted to 5s4p3d2f pattern {88111/3111/111/11}
 Group   2 Type O   : 19s6p3d2f contracted to 5s4p3d2f pattern {88111/3111/111/11}
 Group   3 Type H   : 6s3p2d contracted to 4s3p2d pattern {3111/111/11}

Atom   0C    basis set group =>   1
Atom   1C    basis set group =>   1
Atom   2C    basis set group =>   1
Atom   3C    basis set group =>   1
Atom   4C    basis set group =>   1
Atom   5C    basis set group =>   1
Atom   6O    basis set group =>   2
Atom   7C    basis set group =>   1
Atom   8C    basis set group =>   1
Atom   9H    basis set group =>   3
Atom  10H    basis set group =>   3
Atom  11H    basis set group =>   3
Atom  12H    basis set group =>   3
Atom  13H    basis set group =>   3
Atom  14H    basis set group =>   3
---------------------------------
AUXILIARY/J BASIS SET INFORMATION
---------------------------------
There are 3 groups of distinct atoms

 Group   1 Type C   : 12s5p4d2f1g contracted to 6s4p3d1f1g pattern {711111/2111/211/2/1}
 Group   2 Type O   : 12s5p4d2f1g contracted to 6s4p3d1f1g pattern {711111/2111/211/2/1}
 Group   3 Type H   : 5s2p1d contracted to 3s1p1d pattern {311/2/1}

Atom   0C    basis set group =>   1
Atom   1C    basis set group =>   1
Atom   2C    basis set group =>   1
Atom   3C    basis set group =>   1
Atom   4C    basis set group =>   1
Atom   5C    basis set group =>   1
Atom   6O    basis set group =>   2
Atom   7C    basis set group =>   1
Atom   8C    basis set group =>   1
Atom   9H    basis set group =>   3
Atom  10H    basis set group =>   3
Atom  11H    basis set group =>   3
Atom  12H    basis set group =>   3
Atom  13H    basis set group =>   3
Atom  14H    basis set group =>   3


           ************************************************************
           *        Program running with 4 parallel MPI-processes     *
           *              working on a common directory               *
           ************************************************************
------------------------------------------------------------------------------
                             ORCA STARTUP CALCULATIONS
                           -- RI-GTO INTEGRALS CHOSEN --
------------------------------------------------------------------------------
------------------------------------------------------------------------------
                   ___                                                        
                  /   \      - P O W E R E D   B Y -                         
                 /     \                                                     
                 |  |  |   _    _      __       _____    __    __             
                 |  |  |  | |  | |    /  \     |  _  \  |  |  /  |          
                  \  \/   | |  | |   /    \    | | | |  |  | /  /          
                 / \  \   | |__| |  /  /\  \   | |_| |  |  |/  /          
                |  |  |   |  __  | /  /__\  \  |    /   |      \           
                |  |  |   | |  | | |   __   |  |    \   |  |\   \          
                \     /   | |  | | |  |  |  |  | |\  \  |  | \   \       
                 \___/    |_|  |_| |__|  |__|  |_| \__\ |__|  \__/        
                                                                              
                      - O R C A' S   B I G   F R I E N D -                    
                                      &                                       
                       - I N T E G R A L  F E E D E R -                       
                                                                              
 v1 FN, 2020, v2 2021, v3 2022-2024                                           
------------------------------------------------------------------------------


----------------------
SHARK INTEGRAL PACKAGE
----------------------

Number of atoms                             ...     15
Number of basis functions                   ...    606
Number of shells                            ...    234
Maximum angular momentum                    ...      3
Integral batch strategy                     ... SHARK/LIBINT Hybrid
RI-J (if used) integral strategy            ... SPLIT-RIJ (Revised 2003 algorithm where possible)
Printlevel                                  ...      1
Contraction scheme used                     ... PARTIAL GENERAL contraction
Prescreening option                         ... SCHWARTZ
   Thresh                                   ... 2.500e-11
   Tcut                                     ... 2.500e-12
   Tpresel                                  ... 2.500e-12 
Coulomb Range Separation                    ... NOT USED
Exchange Range Separation                   ... NOT USED
Multipole approximations                    ... NOT USED
Finite Nucleus Model                        ... NOT USED
CABS basis                                  ... NOT available
Auxiliary Coulomb fitting basis             ... AVAILABLE
   # of basis functions in Aux-J            ...    507
   # of shells in Aux-J                     ...    165
   Maximum angular momentum in Aux-J        ...      4
Auxiliary J/K fitting basis                 ... NOT available
Auxiliary Correlation fitting basis         ... NOT available
Auxiliary 'external' fitting basis          ... NOT available

Checking pre-screening integrals            ... done (  0.1 sec) Dimension = 234
Save PGC pre-screening integrals            ... done (  0.1 sec) Dimension = 234
Calculate PGC overlap integrals             ... done (  0.1 sec) Dimension = 180
Calculating pre-screening integrals (ORCA)  ... done (  0.3 sec) Dimension = 180
Check shell pair data                       ... done (  0.1 sec)
Shell pair information
Shell pair cut-off parameter TPreSel        ...   2.5e-12
Total number of shell pairs                 ...     27495
Shell pairs after pre-screening             ...     23633
Total number of primitive shell pairs       ...     35025
Primitive shell pairs kept                  ...     28201
          la=0 lb=0:   5378 shell pairs
          la=1 lb=0:   5934 shell pairs
          la=1 lb=1:   1425 shell pairs
          la=2 lb=0:   4258 shell pairs
          la=2 lb=1:   2018 shell pairs
          la=2 lb=2:    747 shell pairs
          la=3 lb=0:   2061 shell pairs
          la=3 lb=1:    952 shell pairs
          la=3 lb=2:    689 shell pairs
          la=3 lb=3:    171 shell pairs

Calculating one electron integrals          ... done (  0.1 sec)
Calculating RI/J V-Matrix + Cholesky decomp.... done (  0.1 sec)
Calculating Nuclear repulsion               ... done (  0.0 sec) ENN=    401.690172169411 Eh

Diagonalization of the overlap matrix:
Smallest eigenvalue                        ... 7.372e-07
Time for diagonalization                   ...    0.054 sec
Threshold for overlap eigenvalues          ... 1.000e-07
Number of eigenvalues below threshold      ... 0

IMPORTANT:
Smallest eigenvalue of S below the DiffSThresh (1.000e-06) while
Thresh>1e-12 and/or TCut>1e-13! In order to avoid SCF convergence issues,
Thresh will be set to at least 1e-12 and TCut to at least 1e-13.
This can be turned off by adding %SCF DiffSThresh -1 END to the input.

Time for construction of square roots      ...    0.050 sec
Total time needed                          ...    0.142 sec

-------------------
DFT GRID GENERATION
-------------------

General Integration Accuracy     IntAcc      ... 4.388
Radial Grid Type                 RadialGrid  ... OptM3 with GC (2021)
Angular Grid (max. ang.)         AngularGrid ... 4 (Lebedev-302)
Angular grid pruning method      GridPruning ... 4 (adaptive)
Weight generation scheme         WeightScheme... mBecke (2022)
Basis function cutoff            BFCut       ... 1.0000e-11
Integration weight cutoff        WCut        ... 1.0000e-14
Partially contracted basis set               ... off
Rotationally invariant grid construction     ... off
Angular grids for H and He will be reduced by one unit
Diffuse basis detected: some atoms will have their outermost
                        angular grid increased by 1.

Total number of grid points                  ...    77000
Total number of batches                      ...     1211
Average number of points per batch           ...       63
Average number of grid points per atom       ...     5133

---------------------
SHARK GRID GENERATION
---------------------

General Integration Accuracy     IntAcc      ... 4.388
Radial Grid Type                 RadialGrid  ... OptM3 with GC (2021)
Angular Grid (max. ang.)         AngularGrid ... 4 (Lebedev-302)
Angular grid pruning method      GridPruning ... 4 (adaptive)
Weight generation scheme         WeightScheme... mBecke (2022)
Basis function cutoff            BFCut       ... 1.0000e-11
Integration weight cutoff        WCut        ... 1.0000e-14
Partially contracted basis set               ... off
Rotationally invariant grid construction     ... off
Angular grids for H and He will be reduced by one unit
Diffuse basis detected: some atoms will have their outermost
                        angular grid increased by 1.
Steep s-basis detected: some atoms will have their radial
                        grid points doubled.

Total number of grid points                  ...   133878
Total number of batches                      ...     2098
Average number of points per batch           ...       63
Average number of grid points per atom       ...     8925

--------------------
COSX GRID GENERATION
--------------------

GRIDX 1
-------
General Integration Accuracy     IntAcc      ... 3.816
Radial Grid Type                 RadialGrid  ... OptM3 with GC (2021)
Angular Grid (max. ang.)         AngularGrid ... 1 (Lebedev-50)
Angular grid pruning method      GridPruning ... 4 (adaptive)
Weight generation scheme         WeightScheme... mBecke (2022)
Basis function cutoff            BFCut       ... 1.0000e-11
Integration weight cutoff        WCut        ... 1.0000e-14
Partially contracted basis set               ... on
Rotationally invariant grid construction     ... off
Angular grids for H and He will be reduced by one unit
Diffuse basis detected: some atoms will have their outermost
                        angular grid increased by 1.

Total number of grid points                  ...     9685
Total number of batches                      ...       81
Average number of points per batch           ...      119
Average number of grid points per atom       ...      646
UseSFitting                                  ... on

GRIDX 2
-------
General Integration Accuracy     IntAcc      ... 4.020
Radial Grid Type                 RadialGrid  ... OptM3 with GC (2021)
Angular Grid (max. ang.)         AngularGrid ... 2 (Lebedev-110)
Angular grid pruning method      GridPruning ... 4 (adaptive)
Weight generation scheme         WeightScheme... mBecke (2022)
Basis function cutoff            BFCut       ... 1.0000e-11
Integration weight cutoff        WCut        ... 1.0000e-14
Partially contracted basis set               ... on
Rotationally invariant grid construction     ... off
Angular grids for H and He will be reduced by one unit
Diffuse basis detected: some atoms will have their outermost
                        angular grid increased by 1.

Total number of grid points                  ...    24022
Total number of batches                      ...      198
Average number of points per batch           ...      121
Average number of grid points per atom       ...     1601
UseSFitting                                  ... on

GRIDX 3
-------
General Integration Accuracy     IntAcc      ... 4.338
Radial Grid Type                 RadialGrid  ... OptM3 with GC (2021)
Angular Grid (max. ang.)         AngularGrid ... 3 (Lebedev-194)
Angular grid pruning method      GridPruning ... 4 (adaptive)
Weight generation scheme         WeightScheme... mBecke (2022)
Basis function cutoff            BFCut       ... 1.0000e-11
Integration weight cutoff        WCut        ... 1.0000e-14
Partially contracted basis set               ... on
Rotationally invariant grid construction     ... off
Angular grids for H and He will be reduced by one unit
Diffuse basis detected: some atoms will have their outermost
                        angular grid increased by 1.

Total number of grid points                  ...    53218
Total number of batches                      ...      421
Average number of points per batch           ...      126
Average number of grid points per atom       ...     3548
UseSFitting                                  ... on
Initializing property integral containers    ... done (  0.1 sec)

SHARK setup successfully completed in   7.1 seconds

Maximum memory used throughout the entire STARTUP-calculation: 64.6 MB


           ************************************************************
           *        Program running with 4 parallel MPI-processes     *
           *              working on a common directory               *
           ************************************************************
-------------------------------------------------------------------------------
                                 ORCA GUESS
                   Start orbitals & Density for SCF / CASSCF
-------------------------------------------------------------------------------

------------
SCF SETTINGS
------------
Hamiltonian:
 Density Functional     Method          .... DFT(GTOs)
 Exchange Functional    Exchange        .... B88
   X-Alpha parameter    XAlpha          ....  0.666667
   Becke's b parameter  XBeta           ....  0.004200
 Correlation Functional Correlation     .... LYP
 LDA part of GGA corr.  LDAOpt          .... VWN-5
 Gradients option       PostSCFGGA      .... off
 Hybrid DFT is turned on
   Fraction HF Exchange ScalHFX         ....  0.200000
   Scaling of DF-GGA-X  ScalDFX         ....  0.720000
   Scaling of DF-GGA-C  ScalDFC         ....  0.810000
   Scaling of DF-LDA-C  ScalLDAC        ....  1.000000
   Perturbative correction              ....  0.000000
   NL short-range parameter             ....  4.800000
 RI-approximation to the Coulomb term is turned on
   Number of AuxJ basis functions       .... 507
   RIJ-COSX (HFX calculated with COS-X)).... on


General Settings:
 Integral files         IntName         .... cs_rporg_100_ox_solv_02
 Hartree-Fock type      HFTyp           .... UHF
 Total Charge           Charge          ....    1
 Multiplicity           Mult            ....    2
 Number of Electrons    NEL             ....   61
 Basis Dimension        Dim             ....  552
 Nuclear Repulsion      ENuc            ....    401.6901721694 Eh

Convergence Acceleration:
 AO-DIIS                CNVDIIS         .... on
   Start iteration      DIISMaxIt       ....     0
   Startup error        DIISStart       ....  0.200000
   # of expansion vecs  DIISMaxEq       ....     5
   Bias factor          DIISBfac        ....   1.050
   Max. coefficient     DIISMaxC        ....  10.000
 MO-DIIS                CNVKDIIS        .... off
 Trust-Rad. Augm. Hess. CNVTRAH         .... auto
   Auto Start mean grad. ratio tolernc. ....  1.125000
   Auto Start start iteration           ....    50
   Auto Start num. interpolation iter.  ....    10
   Max. Number of Micro iterations      ....    24
   Max. Number of Macro iterations      .... Maxiter - #DIIS iter
   Number of Davidson start vectors     ....     2
   Converg. threshold    (grad. norm)   ....   1.000e-05
   Grad. Scal. Fac. for Micro threshold ....   0.100
   Minimum threshold for Micro iter.    ....   1.000e-02
   NR start threshold (gradient norm)   ....   1.000e-04
   Initial trust radius                 ....   0.400
   Minimum AH scaling param. (alpha)    ....   1.000
   Maximum AH scaling param. (alpha)    .... 1000.000
   Quad. conv. algorithm                .... NR
   White noise on init. David. guess    .... on
   Maximum white noise                  ....   0.010
   Pseudo random numbers                .... off
   Inactive MOs                         .... canonical
   Orbital update algorithm             .... Taylor
   Preconditioner                       .... Diag
   Full preconditioner red. dimension   ....   250
 SOSCF                  CNVSOSCF        .... on
   Start iteration      SOSCFMaxIt      ....   150
   Startup grad/error   SOSCFStart      ....  0.001000
   Hessian update       SOSCFHessUp     .... L-BFGS
 Level Shifting         CNVShift        .... on
   Level shift para.    LevelShift      ....    0.2500
   Turn off err/grad.   ShiftErr        ....    0.0000
 Zerner damping         CNVZerner       .... off
 Static damping         CNVDamp         .... on
   Fraction old density DampFac         ....    0.8500
   Max. Damping (<1)    DampMax         ....    0.9800
   Min. Damping (>=0)   DampMin         ....    0.0000
   Turn off err/grad.   DampErr         ....    0.0300

SCF Procedure:
 Maximum # iterations   MaxIter         ....  1500
 SCF integral mode      SCFMode         .... Direct
   Integral package                     .... SHARK and LIBINT hybrid scheme
 Reset frequency        DirectResetFreq ....    20
 Integral Threshold     Thresh          ....  1.000e-12 Eh
 Primitive CutOff       TCut            ....  1.000e-13 Eh

Convergence Tolerance:
 Convergence Check Mode ConvCheckMode   .... Total+1el-Energy
 Convergence forced     ConvForced      .... 0
 Energy Change          TolE            ....  1.000e-08 Eh
 1-El. energy change                    ....  1.000e-05 Eh
 Orbital Gradient       TolG            ....  1.000e-05
 Orbital Rotation angle TolX            ....  1.000e-05
 DIIS Error             TolErr          ....  5.000e-07

------------------------------
INITIAL GUESS: MODEL POTENTIAL
------------------------------
Loading Hartree-Fock densities                     ... done
Calculating cut-offs                               ... done
Initializing the effective Hamiltonian             ... done
Setting up the integral package (SHARK)            ... done
Starting the Coulomb interaction                   ... done (   0.4 sec)
Making the grid                                    ... done (   0.3 sec)
Mapping shells                                     ... done
Starting the XC term evaluation                    ... done (   0.7 sec)
  promolecular density results
     # of electrons  =     61.993267574
     EX              =    -51.129710361
     EC              =     -2.102630102
     EX+EC           =    -53.232340463
Transforming the Hamiltonian                       ... done (   0.0 sec)
Diagonalizing the Hamiltonian                      ... done (   0.1 sec)
Back transforming the eigenvectors                 ... done (   0.1 sec)
Now organizing SCF variables                       ... done
                      ------------------
                      INITIAL GUESS DONE (   1.7 sec)
                      ------------------
             **** ENERGY FILE WAS UPDATED (cs_rporg_100_ox_solv_02.en.tmp) ****
Finished Guess after   2.7 sec
Maximum memory used throughout the entire GUESS-calculation: 44.8 MB


           ************************************************************
           *        Program running with 4 parallel MPI-processes     *
           *              working on a common directory               *
           ************************************************************

-------------------------------------------------------------------------------------------
                                      ORCA LEAN-SCF
                              memory conserving SCF solver
-------------------------------------------------------------------------------------------

--------------------
CPCM SOLVATION MODEL
--------------------
CPCM parameters:
  Epsilon                                         ...      35.6880
  Refrac                                          ...       1.3442
  Rsolv                                           ...       2.1900
  Surface type                                    ...    GEPOL SES
  Discretization scheme                           ... Constant num. charges
  Epsilon function type                           ...         CPCM
Solvent:                                          ... ACETONITRILE
SMD-CDS solvent descriptors:
  Soln                                            ...       1.3442
  Soln25                                          ...       1.3416
  Sola                                            ...       0.0700
  Solb                                            ...       0.3200
  Solg                                            ...      41.2500
  Solc                                            ...       0.0000
  Solh                                            ...       0.0000
Radii:
  Scheme                                          ... Element-dependent radii
  Radius for C  used is    3.4960 Bohr (=   1.8500 Ang.)
  Radius for O  used is    4.0969 Bohr (=   2.1680 Ang.)
  Radius for H  used is    2.2677 Bohr (=   1.2000 Ang.)
Calculating surface                               ...        done! (  0.0s)
Cavity surface points                             ...          502
Cavity Volume                                     ...     915.3739
Cavity Surface-area                               ...     529.1021
Calculating surface distance matrix               ...        done! (  0.0s)
Performing Cholesky decomposition & store         ...        done! (  0.0s)
Overall time for CPCM initialization              ...                 0.0s

----------------------------------------D-I-I-S--------------------------------------------
Iteration    Energy (Eh)           Delta-E    RMSDP     MaxDP     DIISErr   Damp  Time(sec)
-------------------------------------------------------------------------------------------
               ***  Starting incremental Fock matrix formation  ***
    1    -383.2527062876401374     0.00e+00  4.61e-04  2.29e-02  6.71e-02  0.850  19.4
Warning: op=1 Small HOMO/LUMO gap (   0.055) - skipping pre-diagonalization
         Will do a full diagonalization
    2    -383.2824952382443939    -2.98e-02  4.06e-04  1.85e-02  5.25e-02  0.850  12.1
                               ***Turning on AO-DIIS***
    3    -383.3033480876492263    -2.09e-02  2.99e-04  1.36e-02  3.77e-02  0.850  11.7
    4    -383.3172062005604062    -1.39e-02  2.46e-04  1.13e-02  3.01e-02  0.850  11.8
    5    -383.3273650342279666    -1.02e-02  2.06e-04  9.46e-03  2.52e-02  0.850  11.3
    6    -383.3353917984186978    -8.03e-03  1.15e-03  5.31e-02  2.15e-02  0.000  10.7
    7    -383.3757978148415191    -4.04e-02  5.73e-05  2.91e-03  2.13e-03  0.000  11.1
    8    -383.3758790730714168    -8.13e-05  1.69e-05  9.50e-04  1.72e-03  0.000  10.8
    9    -383.3759255532142447    -4.65e-05  1.41e-05  6.95e-04  1.01e-03  0.000  10.6
                              *** Initializing SOSCF ***
---------------------------------------S-O-S-C-F--------------------------------------
Iteration    Energy (Eh)           Delta-E    RMSDP     MaxDP     MaxGrad    Time(sec)
--------------------------------------------------------------------------------------
   10    -383.3759495807325379    -2.40e-05  1.05e-05  5.69e-04  6.86e-04    11.3
               *** Restarting incremental Fock matrix formation ***
   11    -383.3759576927515695    -8.11e-06  4.42e-05  1.77e-03  4.22e-04    19.1
   12    -383.3759667916063449    -9.10e-06  4.36e-05  1.85e-03  2.42e-04    16.8
   13    -383.3759695017327545    -2.71e-06  3.86e-05  1.67e-03  3.81e-04    17.0
   14    -383.3759726180538223    -3.12e-06  5.35e-06  2.72e-04  8.60e-05    16.6
   15    -383.3759727424185826    -1.24e-07  2.90e-06  1.25e-04  7.63e-05    15.3
   16    -383.3759729012755884    -1.59e-07  1.19e-06  7.48e-05  2.62e-05    14.6
   17    -383.3759729273691050    -2.61e-08  8.51e-07  5.01e-05  1.23e-05    14.8
   18    -383.3759729447189670    -1.73e-08  5.14e-07  3.23e-05  9.62e-06    14.8
   19    -383.3759729419754763     2.74e-09  4.17e-07  4.32e-05  6.45e-06    14.6
                 **** Energy Check signals convergence ****

               *****************************************************
               *                     SUCCESS                       *
               *           SCF CONVERGED AFTER  19 CYCLES          *
               *****************************************************

Recomputing exchange energy using gridx3       ... done (   26.720 sec)
Old exchange energy                            :    -10.306394488 Eh
New exchange energy                            :    -10.306455659 Eh
Exchange energy change after final integration :     -0.000061171 Eh
Total energy after final integration           :   -383.376034113 Eh

SMD CDS free energy correction energy :                -1.64834     Kcal/mol
Total Energy after SMD CDS correction =              -383.378660906 Eh
             **** ENERGY FILE WAS UPDATED (cs_rporg_100_ox_solv_02.en.tmp) ****

----------------
TOTAL SCF ENERGY
----------------

Total Energy       :       -383.37866090551233 Eh          -10432.26373 eV

Components:
Nuclear Repulsion  :        401.69017216941091 Eh           10930.54528 eV
Electronic Energy  :       -784.97822326559162 Eh          -21360.34339 eV
One Electron Energy:      -1301.94625698153413 Eh          -35427.75876 eV
Two Electron Energy:        516.96803371594251 Eh           14067.41537 eV
CPCM Dielectric    :         -0.08792184579482 Eh              -2.39248 eV
SMD CDS (Gcds)     :         -0.00262679234302 Eh              -0.07148 eV

Virial components:
Potential Energy   :       -764.40720476033835 Eh          -20800.57752 eV
Kinetic Energy     :        381.02854385482601 Eh           10368.31379 eV
Virial Ratio       :          2.00616782413966

DFT components:
N(Alpha)           :       30.999992095008 electrons
N(Beta)            :       29.999993637066 electrons
N(Total)           :       60.999985732074 electrons
E(X)               :      -40.977792110053 Eh       
E(C)               :       -2.445937823081 Eh       
E(XC)              :      -43.423729933134 Eh       

CPCM Solvation Model Properties:
Surface-charge          :         -1.03073940212607
Corrected charge        :         -1.00000000000000
Outlying charge corr.   :          0.00007223365526 Eh               0.00197 eV
Free-energy (cav+disp)  :         -0.00262679234302 Eh              -0.07148 eV

---------------
SCF CONVERGENCE
---------------

  Last Energy change         ...   -2.7435e-09  Tolerance :   1.0000e-08
  Last MAX-Density change    ...    4.3178e-05  Tolerance :   1.0000e-07
  Last RMS-Density change    ...    4.1704e-07  Tolerance :   5.0000e-09
  Last DIIS Error            ...    6.8577e-04  Tolerance :   5.0000e-07
  Last Orbital Gradient      ...    6.4519e-06  Tolerance :   1.0000e-05
  Last Orbital Rotation      ...    1.3355e-05  Tolerance :   1.0000e-05


----------------------
UHF SPIN CONTAMINATION
----------------------

Warning: in a DFT calculation there is little theoretical justification to 
         calculate <S**2> as in Hartree-Fock theory. We will do it anyways
         but you should keep in mind that the values have only limited relevance

Expectation value of <S**2>     :     0.766338
Ideal value S*(S+1) for S=0.5   :     0.750000
Deviation                       :     0.016338

----------------
ORBITAL ENERGIES
----------------
                 SPIN UP ORBITALS
  NO   OCC          E(Eh)            E(eV) 
   0   1.0000     -19.255207      -523.9608 
   1   1.0000     -10.310567      -280.5648 
   2   1.0000     -10.282657      -279.8053 
   3   1.0000     -10.241820      -278.6941 
   4   1.0000     -10.238613      -278.6068 
   5   1.0000     -10.238086      -278.5925 
   6   1.0000     -10.232849      -278.4500 
   7   1.0000     -10.228029      -278.3188 
   8   1.0000     -10.209112      -277.8041 
   9   1.0000      -1.185948       -32.2713 
  10   1.0000      -0.906782       -24.6748 
  11   1.0000      -0.853596       -23.2275 
  12   1.0000      -0.802099       -21.8262 
  13   1.0000      -0.774858       -21.0850 
  14   1.0000      -0.683996       -18.6125 
  15   1.0000      -0.646502       -17.5922 
  16   1.0000      -0.629336       -17.1251 
  17   1.0000      -0.564421       -15.3587 
  18   1.0000      -0.542309       -14.7570 
  19   1.0000      -0.525385       -14.2964 
  20   1.0000      -0.516092       -14.0436 
  21   1.0000      -0.478385       -13.0175 
  22   1.0000      -0.468008       -12.7351 
  23   1.0000      -0.454852       -12.3772 
  24   1.0000      -0.430204       -11.7064 
  25   1.0000      -0.405632       -11.0378 
  26   1.0000      -0.401614       -10.9285 
  27   1.0000      -0.382811       -10.4168 
  28   1.0000      -0.350951        -9.5499 
  29   1.0000      -0.293455        -7.9853 
  30   1.0000      -0.274458        -7.4684 
  31   0.0000      -0.085057        -2.3145 
  32   0.0000      -0.037830        -1.0294 
  33   0.0000      -0.011273        -0.3068 
  34   0.0000      -0.005628        -0.1531 
  35   0.0000       0.005785         0.1574 
  36   0.0000       0.010437         0.2840 
  37   0.0000       0.023648         0.6435 
  38   0.0000       0.027431         0.7464 
  39   0.0000       0.033626         0.9150 
  40   0.0000       0.035576         0.9681 
  41   0.0000       0.049653         1.3511 

                 SPIN DOWN ORBITALS
  NO   OCC          E(Eh)            E(eV) 
   0   1.0000     -19.254384      -523.9384 
   1   1.0000     -10.305597      -280.4296 
   2   1.0000     -10.281372      -279.7704 
   3   1.0000     -10.239453      -278.6297 
   4   1.0000     -10.238158      -278.5944 
   5   1.0000     -10.233769      -278.4750 
   6   1.0000     -10.229617      -278.3620 
   7   1.0000     -10.228023      -278.3186 
   8   1.0000     -10.210595      -277.8444 
   9   1.0000      -1.182424       -32.1754 
  10   1.0000      -0.901860       -24.5409 
  11   1.0000      -0.845576       -23.0093 
  12   1.0000      -0.798892       -21.7390 
  13   1.0000      -0.763157       -20.7666 
  14   1.0000      -0.680020       -18.5043 
  15   1.0000      -0.641082       -17.4447 
  16   1.0000      -0.624920       -17.0049 
  17   1.0000      -0.561786       -15.2870 
  18   1.0000      -0.538350       -14.6493 
  19   1.0000      -0.513864       -13.9830 
  20   1.0000      -0.511215       -13.9109 
  21   1.0000      -0.476922       -12.9777 
  22   1.0000      -0.465233       -12.6596 
  23   1.0000      -0.452847       -12.3226 
  24   1.0000      -0.427281       -11.6269 
  25   1.0000      -0.399903       -10.8819 
  26   1.0000      -0.390364       -10.6223 
  27   1.0000      -0.381344       -10.3769 
  28   1.0000      -0.325699        -8.8627 
  29   1.0000      -0.287646        -7.8272 
  30   0.0000      -0.200647        -5.4599 
  31   0.0000      -0.057715        -1.5705 
  32   0.0000      -0.026912        -0.7323 
  33   0.0000      -0.005367        -0.1460 
  34   0.0000       0.006032         0.1641 
  35   0.0000       0.007882         0.2145 
  36   0.0000       0.010523         0.2863 
  37   0.0000       0.024095         0.6557 
  38   0.0000       0.027536         0.7493 
  39   0.0000       0.035016         0.9528 
  40   0.0000       0.036111         0.9826 
*Only the first 10 virtual orbitals were printed.

                    ********************************
                    * MULLIKEN POPULATION ANALYSIS *
                    ********************************

--------------------------------------------
MULLIKEN ATOMIC CHARGES AND SPIN POPULATIONS
--------------------------------------------
   0 C :   -0.911967    0.014721
   1 C :   -0.058422    0.281968
   2 C :   -0.523399   -0.098033
   3 C :   -0.537506    0.214035
   4 C :    1.074271    0.029313
   5 C :    0.483596    0.065746
   6 O :   -0.505516    0.014660
   7 C :   -0.330762    0.301250
   8 C :   -0.575439    0.199137
   9 H :    0.453777   -0.005653
  10 H :    0.654156   -0.003896
  11 H :    0.140730   -0.013229
  12 H :    0.644846   -0.000638
  13 H :    0.396720   -0.001717
  14 H :    0.594916    0.002336
Sum of atomic charges         :    1.0000000
Sum of atomic spin populations:    1.0000000

-----------------------------------------------------
MULLIKEN REDUCED ORBITAL CHARGES AND SPIN POPULATIONS
-----------------------------------------------------
CHARGE
  0 C s       :     3.876115  s :     3.876115
      pz      :     0.909766  p :     2.823986
      px      :     0.806532
      py      :     1.107688
      dz2     :     0.013729  d :     0.233050
      dxz     :     0.022312
      dyz     :     0.014712
      dx2y2   :     0.145469
      dxy     :     0.036828
      f0      :     0.000866  f :    -0.021184
      f+1     :    -0.000432
      f-1     :     0.001323
      f+2     :     0.000252
      f-2     :     0.001253
      f+3     :    -0.020693
      f-3     :    -0.003753

  1 C s       :     3.509563  s :     3.509563
      pz      :     0.813272  p :     2.681855
      px      :     0.936141
      py      :     0.932443
      dz2     :    -0.023526  d :    -0.127229
      dxz     :     0.005503
      dyz     :     0.023000
      dx2y2   :    -0.024275
      dxy     :    -0.107931
      f0      :     0.001339  f :    -0.005767
      f+1     :     0.000052
      f-1     :    -0.000116
      f+2     :     0.000666
      f-2     :     0.000425
      f+3     :    -0.006037
      f-3     :    -0.002097

  2 C s       :     3.489377  s :     3.489377
      pz      :     0.944664  p :     2.869047
      px      :     0.971957
      py      :     0.952427
      dz2     :     0.005898  d :     0.170430
      dxz     :     0.017098
      dyz     :     0.010987
      dx2y2   :     0.103142
      dxy     :     0.033305
      f0      :     0.001068  f :    -0.005455
      f+1     :    -0.000351
      f-1     :     0.000364
      f+2     :     0.000656
      f-2     :     0.000369
      f+3     :    -0.004531
      f-3     :    -0.003031

  3 C s       :     3.900001  s :     3.900001
      pz      :     0.886299  p :     2.641992
      px      :     0.797085
      py      :     0.958608
      dz2     :    -0.022982  d :     0.014165
      dxz     :     0.012531
      dyz     :     0.007272
      dx2y2   :     0.067548
      dxy     :    -0.050204
      f0      :     0.001122  f :    -0.018653
      f+1     :     0.000332
      f-1     :     0.001407
      f+2     :     0.000053
      f-2     :     0.001362
      f+3     :    -0.019653
      f-3     :    -0.003276

  4 C s       :     2.782490  s :     2.782490
      pz      :     0.900119  p :     2.033935
      px      :     0.243254
      py      :     0.890562
      dz2     :     0.008235  d :     0.181214
      dxz     :    -0.028918
      dyz     :    -0.008338
      dx2y2   :     0.129815
      dxy     :     0.080419
      f0      :     0.001495  f :    -0.071911
      f+1     :    -0.005755
      f-1     :     0.000271
      f+2     :    -0.000826
      f-2     :     0.000247
      f+3     :    -0.056675
      f-3     :    -0.010668

  5 C s       :     3.427565  s :     3.427565
      pz      :     0.933798  p :     2.160340
      px      :     0.286734
      py      :     0.939808
      dz2     :    -0.044998  d :    -0.073685
      dxz     :     0.028325
      dyz     :    -0.023184
      dx2y2   :    -0.030977
      dxy     :    -0.002850
      f0      :     0.003032  f :     0.002183
      f+1     :    -0.001992
      f-1     :    -0.000665
      f+2     :     0.008254
      f-2     :     0.003614
      f+3     :    -0.003956
      f-3     :    -0.006104

  6 O s       :     4.131076  s :     4.131076
      pz      :     1.610689  p :     4.268713
      px      :     1.231735
      py      :     1.426289
      dz2     :    -0.004511  d :     0.095099
      dxz     :     0.029348
      dyz     :     0.017878
      dx2y2   :     0.028142
      dxy     :     0.024243
      f0      :     0.001474  f :     0.010627
      f+1     :     0.000242
      f-1     :    -0.000109
      f+2     :     0.001353
      f-2     :     0.001481
      f+3     :     0.002068
      f-3     :     0.004117

  7 C s       :     3.754193  s :     3.754193
      pz      :     0.743624  p :     2.445301
      px      :     0.956106
      py      :     0.745571
      dz2     :     0.000509  d :     0.089059
      dxz     :     0.001245
      dyz     :     0.044543
      dx2y2   :     0.027094
      dxy     :     0.015668
      f0      :     0.003155  f :     0.042210
      f+1     :    -0.000538
      f-1     :     0.001534
      f+2     :     0.000809
      f-2     :     0.010668
      f+3     :     0.003527
      f-3     :     0.023056

  8 C s       :     3.682214  s :     3.682214
      pz      :     0.912183  p :     2.859155
      px      :     1.006737
      py      :     0.940235
      dz2     :     0.015184  d :     0.038172
      dxz     :     0.007264
      dyz     :     0.021202
      dx2y2   :    -0.031781
      dxy     :     0.026303
      f0      :     0.001347  f :    -0.004101
      f+1     :     0.000905
      f-1     :     0.001380
      f+2     :     0.001434
      f-2     :     0.001441
      f+3     :    -0.016059
      f-3     :     0.005451

  9 H s       :     0.535826  s :     0.535826
      pz      :     0.015873  p :     0.007575
      px      :     0.015136
      py      :    -0.023435
      dz2     :    -0.001121  d :     0.002822
      dxz     :     0.000480
      dyz     :     0.003280
      dx2y2   :     0.000081
      dxy     :     0.000103

 10 H s       :     0.365961  s :     0.365961
      pz      :     0.003284  p :    -0.021146
      px      :    -0.016708
      py      :    -0.007722
      dz2     :    -0.001385  d :     0.001030
      dxz     :     0.001684
      dyz     :     0.000430
      dx2y2   :     0.000940
      dxy     :    -0.000640

 11 H s       :     0.803719  s :     0.803719
      pz      :     0.011184  p :     0.050462
      px      :    -0.007771
      py      :     0.047049
      dz2     :    -0.000898  d :     0.005090
      dxz     :     0.000129
      dyz     :     0.003838
      dx2y2   :     0.000696
      dxy     :     0.001325

 12 H s       :     0.393639  s :     0.393639
      pz      :     0.016755  p :    -0.045927
      px      :    -0.061050
      py      :    -0.001632
      dz2     :    -0.000398  d :     0.007442
      dxz     :     0.003502
      dyz     :     0.001065
      dx2y2   :     0.001961
      dxy     :     0.001312

 13 H s       :     0.579679  s :     0.579679
      pz      :     0.010894  p :     0.017042
      px      :     0.005569
      py      :     0.000579
      dz2     :    -0.000458  d :     0.006559
      dxz     :     0.002828
      dyz     :     0.000865
      dx2y2   :     0.002317
      dxy     :     0.001007

 14 H s       :     0.439750  s :     0.439750
      pz      :     0.013909  p :    -0.038164
      px      :    -0.007334
      py      :    -0.044739
      dz2     :    -0.000656  d :     0.003499
      dxz     :    -0.000029
      dyz     :     0.004423
      dx2y2   :    -0.000149
      dxy     :    -0.000091


SPIN
  0 C s       :     0.000655  s :     0.000655
      pz      :     0.014434  p :     0.003441
      px      :    -0.012849
      py      :     0.001857
      dz2     :     0.000122  d :     0.010951
      dxz     :     0.009412
      dyz     :    -0.002045
      dx2y2   :     0.001371
      dxy     :     0.002091
      f0      :    -0.000122  f :    -0.000326
      f+1     :    -0.000008
      f-1     :    -0.000018
      f+2     :     0.000181
      f-2     :    -0.000092
      f+3     :    -0.000177
      f-3     :    -0.000091

  1 C s       :    -0.006804  s :    -0.006804
      pz      :     0.262536  p :     0.287423
      px      :     0.011542
      py      :     0.013345
      dz2     :    -0.001365  d :     0.001742
      dxz     :     0.002253
      dyz     :     0.000761
      dx2y2   :    -0.003035
      dxy     :     0.003127
      f0      :    -0.000370  f :    -0.000392
      f+1     :    -0.000297
      f-1     :    -0.000297
      f+2     :     0.000151
      f-2     :     0.000136
      f+3     :     0.000412
      f-3     :    -0.000126

  2 C s       :     0.004018  s :     0.004018
      pz      :    -0.088653  p :    -0.112288
      px      :    -0.007694
      py      :    -0.015941
      dz2     :     0.000494  d :     0.010585
      dxz     :    -0.001215
      dyz     :     0.006290
      dx2y2   :     0.002042
      dxy     :     0.002973
      f0      :    -0.000056  f :    -0.000348
      f+1     :     0.000100
      f-1     :     0.000040
      f+2     :     0.000205
      f-2     :    -0.000012
      f+3     :    -0.000536
      f-3     :    -0.000089

  3 C s       :    -0.013533  s :    -0.013533
      pz      :     0.207531  p :     0.228117
      px      :     0.013229
      py      :     0.007357
      dz2     :    -0.001240  d :     0.000851
      dxz     :     0.000411
      dyz     :     0.000912
      dx2y2   :     0.000078
      dxy     :     0.000690
      f0      :    -0.000263  f :    -0.001400
      f+1     :    -0.000201
      f-1     :    -0.000194
      f+2     :    -0.000241
      f-2     :     0.000073
      f+3     :    -0.000466
      f-3     :    -0.000109

  4 C s       :     0.012981  s :     0.012981
      pz      :     0.023226  p :     0.023975
      px      :     0.002180
      py      :    -0.001431
      dz2     :    -0.000729  d :    -0.005513
      dxz     :    -0.006412
      dyz     :     0.000078
      dx2y2   :    -0.002868
      dxy     :     0.004418
      f0      :    -0.000283  f :    -0.002131
      f+1     :     0.000019
      f-1     :     0.000041
      f+2     :    -0.000794
      f-2     :    -0.000059
      f+3     :    -0.001451
      f-3     :     0.000396

  5 C s       :    -0.010118  s :    -0.010118
      pz      :     0.065670  p :     0.076625
      px      :     0.001304
      py      :     0.009651
      dz2     :     0.000510  d :    -0.002481
      dxz     :    -0.001247
      dyz     :    -0.000293
      dx2y2   :    -0.000447
      dxy     :    -0.001004
      f0      :    -0.000090  f :     0.001719
      f+1     :     0.000045
      f-1     :    -0.000158
      f+2     :     0.000084
      f-2     :    -0.000126
      f+3     :     0.001787
      f-3     :     0.000178

  6 O s       :    -0.004950  s :    -0.004950
      pz      :     0.021403  p :     0.010804
      px      :    -0.006023
      py      :    -0.004575
      dz2     :     0.000294  d :     0.007772
      dxz     :     0.006657
      dyz     :     0.001819
      dx2y2   :    -0.001217
      dxy     :     0.000219
      f0      :    -0.000015  f :     0.001033
      f+1     :    -0.000009
      f-1     :    -0.000002
      f+2     :     0.000300
      f-2     :     0.000632
      f+3     :     0.000027
      f-3     :     0.000100

  7 C s       :    -0.009497  s :    -0.009497
      pz      :     0.279651  p :     0.298710
      px      :     0.014042
      py      :     0.005018
      dz2     :    -0.001484  d :     0.012159
      dxz     :     0.002208
      dyz     :     0.011061
      dx2y2   :     0.000648
      dxy     :    -0.000274
      f0      :    -0.000334  f :    -0.000123
      f+1     :    -0.000347
      f-1     :    -0.000281
      f+2     :     0.000117
      f-2     :     0.001117
      f+3     :    -0.000067
      f-3     :    -0.000327

  8 C s       :     0.013475  s :     0.013475
      pz      :     0.163552  p :     0.181809
      px      :     0.007955
      py      :     0.010302
      dz2     :    -0.000806  d :     0.005042
      dxz     :     0.001851
      dyz     :     0.002382
      dx2y2   :    -0.001685
      dxy     :     0.003300
      f0      :    -0.000239  f :    -0.001189
      f+1     :    -0.000192
      f-1     :    -0.000147
      f+2     :     0.000102
      f-2     :     0.000030
      f+3     :     0.000314
      f-3     :    -0.001057

  9 H s       :    -0.010000  s :    -0.010000
      pz      :     0.002378  p :     0.003847
      px      :     0.000286
      py      :     0.001184
      dz2     :     0.000086  d :     0.000499
      dxz     :    -0.000084
      dyz     :     0.000387
      dx2y2   :     0.000156
      dxy     :    -0.000046

 10 H s       :    -0.010274  s :    -0.010274
      pz      :     0.003611  p :     0.005374
      px      :     0.000683
      py      :     0.001080
      dz2     :     0.000059  d :     0.001004
      dxz     :     0.000648
      dyz     :     0.000015
      dx2y2   :     0.000027
      dxy     :     0.000254

 11 H s       :    -0.020165  s :    -0.020165
      pz      :     0.004908  p :     0.005956
      px      :     0.001042
      py      :     0.000006
      dz2     :     0.000069  d :     0.000979
      dxz     :    -0.000020
      dyz     :     0.000751
      dx2y2   :     0.000054
      dxy     :     0.000125

 12 H s       :     0.001927  s :     0.001927
      pz      :    -0.002855  p :    -0.002202
      px      :     0.000940
      py      :    -0.000286
      dz2     :     0.000022  d :    -0.000363
      dxz     :    -0.000277
      dyz     :    -0.000071
      dx2y2   :    -0.000034
      dxy     :    -0.000003

 13 H s       :    -0.010216  s :    -0.010216
      pz      :     0.005041  p :     0.007323
      px      :     0.001525
      py      :     0.000757
      dz2     :     0.000068  d :     0.001176
      dxz     :     0.000765
      dyz     :     0.000166
      dx2y2   :     0.000141
      dxy     :     0.000035

 14 H s       :     0.002206  s :     0.002206
      pz      :     0.000302  p :     0.000050
      px      :    -0.000393
      py      :     0.000141
      dz2     :     0.000028  d :     0.000080
      dxz     :    -0.000066
      dyz     :     0.000137
      dx2y2   :    -0.000013
      dxy     :    -0.000006



                     *******************************
                     * LOEWDIN POPULATION ANALYSIS *
                     *******************************

-------------------------------------------
LOEWDIN ATOMIC CHARGES AND SPIN POPULATIONS
-------------------------------------------
   0 C :    0.300793    0.057090
   1 C :    0.274395    0.148534
   2 C :    0.250078    0.028771
   3 C :    0.296515    0.109843
   4 C :   -0.103184    0.079475
   5 C :   -0.330116    0.053550
   6 O :    0.666074    0.061428
   7 C :    0.093848    0.209394
   8 C :    0.340040    0.147322
   9 H :   -0.120254    0.019897
  10 H :   -0.116245    0.035075
  11 H :   -0.130919    0.021857
  12 H :   -0.152220   -0.007896
  13 H :   -0.135999    0.033075
  14 H :   -0.132805    0.002584

----------------------------------------------------
LOEWDIN REDUCED ORBITAL CHARGES AND SPIN POPULATIONS
----------------------------------------------------
CHARGE
  0 C s       :     2.496183  s :     2.496183
      pz      :     0.579185  p :     2.270764
      px      :     0.837415
      py      :     0.854164
      dz2     :     0.065041  d :     0.617616
      dxz     :     0.096521
      dyz     :     0.039561
      dx2y2   :     0.243520
      dxy     :     0.172973
      f0      :     0.021116  f :     0.314644
      f+1     :     0.029747
      f-1     :     0.020557
      f+2     :     0.012152
      f-2     :     0.051661
      f+3     :     0.122491
      f-3     :     0.056921

  1 C s       :     2.498769  s :     2.498769
      pz      :     0.520920  p :     2.222215
      px      :     0.840479
      py      :     0.860817
      dz2     :     0.067771  d :     0.676611
      dxz     :     0.060803
      dyz     :     0.095728
      dx2y2   :     0.188547
      dxy     :     0.263763
      f0      :     0.019886  f :     0.328009
      f+1     :     0.022667
      f-1     :     0.027590
      f+2     :     0.049706
      f-2     :     0.017601
      f+3     :     0.132546
      f-3     :     0.058014

  2 C s       :     2.491950  s :     2.491950
      pz      :     0.602112  p :     2.292774
      px      :     0.846246
      py      :     0.844416
      dz2     :     0.068028  d :     0.648125
      dxz     :     0.045121
      dyz     :     0.075748
      dx2y2   :     0.217695
      dxy     :     0.241533
      f0      :     0.020138  f :     0.317073
      f+1     :     0.022538
      f-1     :     0.028963
      f+2     :     0.029632
      f-2     :     0.024082
      f+3     :     0.133839
      f-3     :     0.057882

  3 C s       :     2.494381  s :     2.494381
      pz      :     0.543153  p :     2.237231
      px      :     0.842730
      py      :     0.851347
      dz2     :     0.064684  d :     0.654488
      dxz     :     0.116900
      dyz     :     0.037312
      dx2y2   :     0.266548
      dxy     :     0.169044
      f0      :     0.020419  f :     0.317386
      f+1     :     0.028703
      f-1     :     0.019958
      f+2     :     0.013461
      f-2     :     0.052039
      f+3     :     0.126181
      f-3     :     0.056626

  4 C s       :     2.458645  s :     2.458645
      pz      :     0.593755  p :     2.256156
      px      :     0.856136
      py      :     0.806265
      dz2     :     0.089073  d :     0.885504
      dxz     :     0.136675
      dyz     :     0.100373
      dx2y2   :     0.273108
      dxy     :     0.286276
      f0      :     0.031837  f :     0.502880
      f+1     :     0.039725
      f-1     :     0.033050
      f+2     :     0.080414
      f-2     :     0.030111
      f+3     :     0.183623
      f-3     :     0.104120

  5 C s       :     2.450502  s :     2.450502
      pz      :     0.621509  p :     2.195764
      px      :     0.739359
      py      :     0.834896
      dz2     :     0.101511  d :     1.036430
      dxz     :     0.172273
      dyz     :     0.128254
      dx2y2   :     0.305438
      dxy     :     0.328954
      f0      :     0.042796  f :     0.647420
      f+1     :     0.050859
      f-1     :     0.037322
      f+2     :     0.086682
      f-2     :     0.056739
      f+3     :     0.224287
      f-3     :     0.148735

  6 O s       :     2.974621  s :     2.974621
      pz      :     1.254472  p :     3.759310
      px      :     1.166753
      py      :     1.338085
      dz2     :     0.044566  d :     0.460231
      dxz     :     0.086389
      dyz     :     0.041780
      dx2y2   :     0.151169
      dxy     :     0.136326
      f0      :     0.008858  f :     0.139765
      f+1     :     0.010177
      f-1     :     0.008035
      f+2     :     0.012989
      f-2     :     0.016039
      f+3     :     0.036271
      f-3     :     0.047396

  7 C s       :     2.508302  s :     2.508302
      pz      :     0.509834  p :     2.126093
      px      :     0.847067
      py      :     0.769193
      dz2     :     0.077816  d :     0.806213
      dxz     :     0.057214
      dyz     :     0.149301
      dx2y2   :     0.311283
      dxy     :     0.210599
      f0      :     0.032741  f :     0.465545
      f+1     :     0.027601
      f-1     :     0.037229
      f+2     :     0.010771
      f-2     :     0.088466
      f+3     :     0.102439
      f-3     :     0.166297

  8 C s       :     2.503071  s :     2.503071
      pz      :     0.560240  p :     2.241674
      px      :     0.826126
      py      :     0.855308
      dz2     :     0.064182  d :     0.598068
      dxz     :     0.080236
      dyz     :     0.045934
      dx2y2   :     0.181180
      dxy     :     0.226535
      f0      :     0.021627  f :     0.317147
      f+1     :     0.025306
      f-1     :     0.025033
      f+2     :     0.031229
      f-2     :     0.031125
      f+3     :     0.081553
      f-3     :     0.101274

  9 H s       :     0.659386  s :     0.659386
      pz      :     0.065619  p :     0.269431
      px      :     0.071459
      py      :     0.132353
      dz2     :     0.020337  d :     0.191436
      dxz     :     0.008931
      dyz     :     0.046215
      dx2y2   :     0.056670
      dxy     :     0.059284

 10 H s       :     0.670663  s :     0.670663
      pz      :     0.056860  p :     0.258980
      px      :     0.141469
      py      :     0.060651
      dz2     :     0.022414  d :     0.186602
      dxz     :     0.047350
      dyz     :     0.006278
      dx2y2   :     0.042747
      dxy     :     0.067813

 11 H s       :     0.651782  s :     0.651782
      pz      :     0.066623  p :     0.278581
      px      :     0.069321
      py      :     0.142636
      dz2     :     0.022246  d :     0.200556
      dxz     :     0.003104
      dyz     :     0.051865
      dx2y2   :     0.044690
      dxy     :     0.078650

 12 H s       :     0.653817  s :     0.653817
      pz      :     0.076708  p :     0.290123
      px      :     0.127481
      py      :     0.085933
      dz2     :     0.022668  d :     0.208281
      dxz     :     0.048730
      dyz     :     0.012056
      dx2y2   :     0.067324
      dxy     :     0.057504

 13 H s       :     0.651632  s :     0.651632
      pz      :     0.064132  p :     0.282534
      px      :     0.124058
      py      :     0.094344
      dz2     :     0.022827  d :     0.201834
      dxz     :     0.035849
      dyz     :     0.016738
      dx2y2   :     0.074261
      dxy     :     0.052159

 14 H s       :     0.651557  s :     0.651557
      pz      :     0.069037  p :     0.278463
      px      :     0.067530
      py      :     0.141896
      dz2     :     0.021893  d :     0.202785
      dxz     :     0.002724
      dyz     :     0.055562
      dx2y2   :     0.045476
      dxy     :     0.077129


SPIN
  0 C s       :    -0.000448  s :    -0.000448
      pz      :     0.008978  p :     0.005729
      px      :    -0.002623
      py      :    -0.000626
      dz2     :    -0.000060  d :     0.034430
      dxz     :     0.032408
      dyz     :     0.000637
      dx2y2   :     0.000524
      dxy     :     0.000921
      f0      :     0.001269  f :     0.017379
      f+1     :    -0.000109
      f-1     :    -0.000027
      f+2     :     0.001480
      f-2     :     0.013989
      f+3     :     0.000370
      f-3     :     0.000409

  1 C s       :     0.004187  s :     0.004187
      pz      :     0.147413  p :     0.153632
      px      :     0.002708
      py      :     0.003511
      dz2     :    -0.001060  d :    -0.005986
      dxz     :    -0.001889
      dyz     :    -0.001661
      dx2y2   :    -0.000702
      dxy     :    -0.000673
      f0      :    -0.002086  f :    -0.003299
      f+1     :    -0.000297
      f-1     :    -0.000252
      f+2     :    -0.002450
      f-2     :     0.002417
      f+3     :    -0.000208
      f-3     :    -0.000422

  2 C s       :    -0.001931  s :    -0.001931
      pz      :    -0.039646  p :    -0.045701
      px      :    -0.002130
      py      :    -0.003924
      dz2     :     0.000279  d :     0.050106
      dxz     :     0.011021
      dyz     :     0.036845
      dx2y2   :     0.001159
      dxy     :     0.000801
      f0      :     0.002418  f :     0.026297
      f+1     :     0.000046
      f-1     :    -0.000040
      f+2     :     0.015758
      f-2     :     0.007032
      f+3     :     0.000473
      f-3     :     0.000611

  3 C s       :     0.003028  s :     0.003028
      pz      :     0.109520  p :     0.113734
      px      :     0.001939
      py      :     0.002275
      dz2     :    -0.000840  d :    -0.006015
      dxz     :    -0.003357
      dyz     :    -0.000368
      dx2y2   :    -0.000989
      dxy     :    -0.000461
      f0      :    -0.001488  f :    -0.000904
      f+1     :    -0.000170
      f-1     :    -0.000267
      f+2     :    -0.000573
      f-2     :     0.002280
      f+3     :    -0.000426
      f-3     :    -0.000261

  4 C s       :    -0.000254  s :    -0.000254
      pz      :     0.021721  p :     0.018440
      px      :    -0.001618
      py      :    -0.001663
      dz2     :    -0.000090  d :     0.036922
      dxz     :     0.034209
      dyz     :     0.001543
      dx2y2   :     0.000766
      dxy     :     0.000494
      f0      :     0.001136  f :     0.024366
      f+1     :    -0.000126
      f-1     :    -0.000059
      f+2     :     0.010723
      f-2     :     0.011951
      f+3     :     0.000212
      f-3     :     0.000530

  5 C s       :     0.001181  s :     0.001181
      pz      :     0.037328  p :     0.038282
      px      :     0.000583
      py      :     0.000371
      dz2     :    -0.000168  d :    -0.005567
      dxz     :    -0.001652
      dyz     :    -0.003161
      dx2y2   :    -0.000275
      dxy     :    -0.000311
      f0      :    -0.000186  f :     0.019655
      f+1     :    -0.000077
      f-1     :    -0.000088
      f+2     :     0.005463
      f-2     :     0.014968
      f+3     :    -0.000482
      f-3     :     0.000058

  6 O s       :     0.000562  s :     0.000562
      pz      :     0.024331  p :     0.020600
      px      :    -0.001762
      py      :    -0.001969
      dz2     :     0.000072  d :     0.028222
      dxz     :     0.016726
      dyz     :     0.010407
      dx2y2   :     0.000162
      dxy     :     0.000854
      f0      :     0.001228  f :     0.012044
      f+1     :    -0.000025
      f-1     :    -0.000013
      f+2     :     0.002315
      f-2     :     0.008181
      f+3     :     0.000191
      f-3     :     0.000167

  7 C s       :     0.004460  s :     0.004460
      pz      :     0.167866  p :     0.171438
      px      :     0.002426
      py      :     0.001147
      dz2     :    -0.001019  d :     0.023220
      dxz     :     0.001647
      dyz     :     0.023069
      dx2y2   :    -0.000499
      dxy     :     0.000022
      f0      :    -0.000845  f :     0.010275
      f+1     :    -0.000367
      f-1     :    -0.000282
      f+2     :     0.001407
      f-2     :     0.010213
      f+3     :     0.000120
      f-3     :     0.000029

  8 C s       :     0.001903  s :     0.001903
      pz      :     0.091158  p :     0.090649
      px      :     0.000122
      py      :    -0.000632
      dz2     :    -0.000679  d :     0.037079
      dxz     :     0.032154
      dyz     :     0.005212
      dx2y2   :    -0.000439
      dxy     :     0.000831
      f0      :     0.000311  f :     0.017691
      f+1     :    -0.000235
      f-1     :    -0.000202
      f+2     :     0.003543
      f-2     :     0.013844
      f+3     :     0.000204
      f-3     :     0.000227

  9 H s       :    -0.002712  s :    -0.002712
      pz      :     0.011333  p :     0.012024
      px      :    -0.000120
      py      :     0.000811
      dz2     :    -0.000039  d :     0.010585
      dxz     :    -0.000422
      dyz     :     0.010880
      dx2y2   :     0.000085
      dxy     :     0.000082

 10 H s       :    -0.005322  s :    -0.005322
      pz      :     0.020953  p :     0.022830
      px      :     0.001835
      py      :     0.000042
      dz2     :    -0.000027  d :     0.017568
      dxz     :     0.014452
      dyz     :     0.002440
      dx2y2   :     0.000497
      dxy     :     0.000206

 11 H s       :    -0.003162  s :    -0.003162
      pz      :     0.012761  p :     0.013952
      px      :     0.000038
      py      :     0.001153
      dz2     :    -0.000029  d :     0.011068
      dxz     :    -0.000090
      dyz     :     0.010625
      dx2y2   :     0.000403
      dxy     :     0.000158

 12 H s       :     0.001126  s :     0.001126
      pz      :    -0.005442  p :    -0.006358
      px      :    -0.000490
      py      :    -0.000426
      dz2     :    -0.000007  d :    -0.002664
      dxz     :    -0.002884
      dyz     :     0.000774
      dx2y2   :    -0.000275
      dxy     :    -0.000271

 13 H s       :    -0.004067  s :    -0.004067
      pz      :     0.019558  p :     0.021227
      px      :     0.001174
      py      :     0.000495
      dz2     :    -0.000032  d :     0.015915
      dxz     :     0.012142
      dyz     :     0.002986
      dx2y2   :     0.000317
      dxy     :     0.000501

 14 H s       :    -0.000103  s :    -0.000103
      pz      :     0.000974  p :     0.000724
      px      :    -0.000278
      py      :     0.000028
      dz2     :    -0.000010  d :     0.001963
      dxz     :     0.001375
      dyz     :     0.000831
      dx2y2   :    -0.000038
      dxy     :    -0.000195



                      *****************************
                      * MAYER POPULATION ANALYSIS *
                      *****************************

  NA   - Mulliken gross atomic population
  ZA   - Total nuclear charge
  QA   - Mulliken gross atomic charge
  VA   - Mayer's total valence
  BVA  - Mayer's bonded valence
  FA   - Mayer's free valence

  ATOM       NA         ZA         QA         VA         BVA        FA
  0 C      6.9120     6.0000    -0.9120     3.2290     3.2265     0.0025
  1 C      6.0584     6.0000    -0.0584     2.6068     2.5379     0.0689
  2 C      6.5234     6.0000    -0.5234     3.1039     3.0958     0.0081
  3 C      6.5375     6.0000    -0.5375     2.6742     2.6306     0.0436
  4 C      4.9257     6.0000     1.0743     2.3335     2.3288     0.0047
  5 C      5.5164     6.0000     0.4836     2.2480     2.2417     0.0063
  6 O      8.5055     8.0000    -0.5055     1.8838     1.8814     0.0024
  7 C      6.3308     6.0000    -0.3308     2.7726     2.6856     0.0869
  8 C      6.5754     6.0000    -0.5754     3.2144     3.1836     0.0307
  9 H      0.5462     1.0000     0.4538     0.6817     0.6817     0.0001
 10 H      0.3458     1.0000     0.6542     0.4458     0.4456     0.0001
 11 H      0.8593     1.0000     0.1407     1.2290     1.2286     0.0004
 12 H      0.3552     1.0000     0.6448     0.2234     0.2234     0.0000
 13 H      0.6033     1.0000     0.3967     0.8374     0.8373     0.0001
 14 H      0.4051     1.0000     0.5949     0.3824     0.3824     0.0000

  Mayer bond orders larger than 0.100000
B(  0-C ,  1-C ) :   1.1486 B(  0-C ,  2-C ) :   0.3560 B(  0-C ,  4-C ) :   0.1438 
B(  0-C ,  5-C ) :   1.2572 B(  0-C ,  6-O ) :   0.1236 B(  0-C , 14-H ) :   0.2167 
B(  1-C ,  2-C ) :   1.1147 B(  1-C ,  3-C ) :  -0.3399 B(  1-C ,  5-C ) :  -0.6013 
B(  1-C ,  8-C ) :   0.1376 B(  1-C , 12-H ) :   0.1505 B(  1-C , 13-H ) :   0.7506 
B(  1-C , 14-H ) :   0.1310 B(  2-C ,  3-C ) :   1.1938 B(  2-C ,  5-C ) :   0.1613 
B(  2-C ,  8-C ) :   0.1740 B(  2-C , 12-H ) :   0.2757 B(  3-C ,  4-C ) :   0.7103 
B(  3-C ,  5-C ) :  -0.6640 B(  3-C ,  8-C ) :   0.1363 B(  3-C ,  9-H ) :   0.1299 
B(  3-C , 11-H ) :   1.3387 B(  4-C ,  5-C ) :   1.1545 B(  4-C ,  7-C ) :  -0.3021 
B(  4-C ,  8-C ) :   0.7067 B(  5-C ,  6-O ) :   0.4399 B(  5-C ,  8-C ) :   0.2837 
B(  5-C , 11-H ) :   0.1606 B(  5-C , 13-H ) :   0.1169 B(  6-O ,  7-C ) :   1.3962 
B(  7-C ,  8-C ) :   1.0406 B(  7-C , 10-H ) :   0.4828 B(  8-C ,  9-H ) :   0.7200 


-------
TIMINGS
-------

Total SCF time: 0 days 0 hours 4 min 53 sec 

Total time                  ....     293.329 sec
Sum of individual times     ....     292.440 sec  ( 99.7%)

SCF preparation             ....       1.072 sec  (  0.4%)
Fock matrix formation       ....     276.575 sec  ( 94.3%)
  Startup                   ....       1.574 sec  (  0.6% of F)
  Split-RI-J                ....      13.482 sec  (  4.9% of F)
  Chain of spheres X        ....     181.711 sec  ( 65.7% of F)
  XC integration            ....      69.736 sec  ( 25.2% of F)
    XC Preparation          ....       0.000 sec  (  0.0% of XC)
    Basis function eval.    ....       7.994 sec  ( 11.5% of XC)
    Density eval.           ....      18.206 sec  ( 26.1% of XC)
    XC-Functional eval.     ....       0.810 sec  (  1.2% of XC)
    XC-Potential eval.      ....      39.539 sec  ( 56.7% of XC)
  CPCM terms                ....       5.660 sec  (  2.0% of F)
Diagonalization             ....       0.000 sec  (  0.0%)
Density matrix formation    ....       3.584 sec  (  1.2%)
Total Energy calculation    ....       1.719 sec  (  0.6%)
Population analysis         ....       0.375 sec  (  0.1%)
Orbital Transformation      ....       0.952 sec  (  0.3%)
Orbital Orthonormalization  ....       0.000 sec  (  0.0%)
DIIS solution               ....       5.042 sec  (  1.7%)
SOSCF solution              ....       3.121 sec  (  1.1%)
Finished LeanSCF after 293.6 sec

Maximum memory used throughout the entire LEANSCF-calculation: 83.5 MB


-------------------------------------------------------------------------------
                          DFT DISPERSION CORRECTION                            
                                                                               
                              DFTD3 V3.1  Rev 1                                
                          USING Becke-Johnson damping                          
-------------------------------------------------------------------------------
The B3LYP functional is recognized
Active option DFTDOPT                   ...         4   

molecular C6(AA) [au] = 2822.820023 


            DFT-D V3
 parameters
 s6 scaling factor         :     1.0000 
 a1 scaling factor         :     0.3981 
 s8 scaling factor         :     1.9889 
 a2 scaling factor         :     4.4211 
 ad hoc parameters k1-k3   :    16.0000     1.3333    -4.0000 

 Edisp/kcal,au: -17.073968611939  -0.027209098024 
 E6   /kcal   :  -7.798764614 
 E8   /kcal   :  -9.275203998 
 % E8         :  54.323656138 

-------------------------   ----------------
Dispersion correction           -0.027209098
-------------------------   ----------------


-------------------------   --------------------
FINAL SINGLE POINT ENERGY      -383.405870003536
-------------------------   --------------------



           ************************************************************
           *        Program running with 4 parallel MPI-processes     *
           *              working on a common directory               *
           ************************************************************

------------------------------------------------------------------------------
                              ORCA PROPERTY CALCULATIONS
------------------------------------------------------------------------------

GBWName                                 ... cs_rporg_100_ox_solv_02.gbw
Number of atoms                         ...     15
Number of basis functions               ...    606
Max core memory                         ...   3000 MB

Electric properties:
Dipole moment                           ... YES
Quadrupole moment                       ...  NO
Static polarizability (Dipole/Dipole)   ...  NO
Static polarizability (Dipole/Quad.)    ...  NO
Static polarizability (Quad./Quad.)     ...  NO
Static polarizability (Velocity)        ...  NO

Atomic electric properties:
Dipole moment                           ...  NO
Quadrupole moment                       ...  NO
Static polarizability                   ...  NO

Choice of electric origin               ... Center of mass
Position of electric origin             ...    -0.001208     0.002413     0.000017

General magnetic properties:
Magnetizability                         ...  NO

EPR properties:
g-Tensor (aka g-matrix)                 ...  NO
Zero-Field splitting spin-orbit         ...  NO
Zero-field splitting spin-spin          ...  NO
Hyperfine couplings                     ...  NO (   0 nuclei)
Quadrupole couplings                    ...  NO (   0 nuclei)
Contact density                         ...  NO (   0 nuclei)

NMR properties:
Chemical shifts                         ...  NO (   0 nuclei)
Spin-rotation constants                 ...  NO (   0 nuclei)
Spin-spin couplings                     ...  NO (   0 nuclei,    0 pairs)

Choice of magnetic origin               ... GIAO
Position of magnetic origin             ...     0.000000     0.000000     0.000000

Properties with geometric perturbations:
SCF Hessian                             ...  NO
IR spectrum                             ...  NO
VCD spectrum                            ...  NO
X-ray spectroscopy properties:
SCF XES/XAS/RIXS spectra                ...  NO


-------------
DIPOLE MOMENT
-------------

Method             : SCF
Type of density    : Electron Density
Multiplicity       :   2
Irrep              :   0
Energy             :  -383.3786609055123336 Eh
Relativity type    : 
Basis              : AO
                                X                 Y                 Z
Electronic contribution:     -2.988362529      -1.151896535      -0.000447232
Nuclear contribution   :      2.540715655       1.757441244      -0.000063826
                        -----------------------------------------
Total Dipole Moment    :     -0.447646874       0.605544710      -0.000511058
                        -----------------------------------------
Magnitude (a.u.)       :      0.753042084
Magnitude (Debye)      :      1.914080863



--------------------
Rotational spectrum 
--------------------
 
Rotational constants in cm-1:             0.129539             0.055719             0.038960 
Rotational constants in MHz :          3883.478039          1670.401185          1168.006371 

Dipole components along the rotational axes: 
x,y,z [a.u.] :    -0.434417    -0.615105    -0.000513 
x,y,z [Debye]:    -1.104201    -1.563472    -0.001303 

 

Dipole moment calculation done in   0.1 sec 

Maximum memory used throughout the entire PROP-calculation: 47.0 MB

--------------------------------
SUGGESTED CITATIONS FOR THIS RUN
--------------------------------

Below you find a list of papers that are relevant to this ORCA run
We neither can nor want to force you to cite these papers, but we appreciate if you do
You receive ORCA, which is the product of decades of hard work by many enthusiastic individuals, for free
The only thing we kindly ask in return is that you cite our papers,
We deeply appreciate it, if you show your appreciation for ORCA by not just citing the generic ORCA reference.

Please note that relegating all ORCA citations to the supporting information does *not* help us.
SI sections are not indexed - citations you put there will not count into any citation statistics
But we need these citations in order to attract the funding resources that allow us to do what we are doing

Therefore, if you are a happy ORCA user, please consider citing a few of the papers listed below in the main body of your paper

In addition to the list printed below, the program has created the file cs_rporg_100_ox_solv_02.bibtex that contains the list in bibtex format
You can import this file easily into all common literature databanks and citation aid programs


List of essential papers. We consider these as the minimum necessary citations

  1. Neese,F.
     Software update: the ORCA program system, version 5.0
     WIRES Comput. Molec. Sci., 2022 12(1)e1606
     doi.org/10.1002/wcms.1606

List of papers to cite with high priority. The work reported in these papers was absolutely
necessary for this run to complete.
Our perspective: the developers of density functionals and basis sets usually get cited in chemistry papers
Good! But without the algorithms to do something with them, the functionals or basis sets would not do anything.
Hence, in our opinion, the algorithm design and method developments papers are equally worthy of getting cited

  1. Neese,F.
     An improvement of the resolution of the identity approximation for the formation of the Coulomb matrix
     J. Comp. Chem., 2003 24(14)1740-1747
     doi.org/10.1002/jcc.10318
  2. Neese,F.; Wennmohs,F.; Hansen,A.; Becker,U.
     Efficient, approximate and parallel Hartree-Fock and hybrid DFT calculations. A 'chain-of-spheres' algorithm for the Hartree-Fock exchange
     Chem. Phys., 2009 356(1-3)98-109
     doi.org/10.1016/j.chemphys.2008.10.036
  3. Garcia-Rates,M.; Neese,F.
     Effect of the Solute Cavity on the Solvation Energy and its Derivatives within the Framework of the Gaussian Charge Scheme
     J. Comput. Chem., 2020 41 922-939
     doi.org/10.1002/jcc.26139
  4. Helmich-Paris,B.; de Souza,B.; Neese,F.; Izsák,R.
     An improved chain of spheres for exchange algorithm
     J. Chem. Phys., 2021 155 104109
     doi.org/doi: 10.1063/5.0058766.
  5. Neese,F.
     The SHARK Integral Generation and Digestion System
     J. Comp. Chem., 2022  1-16
     doi.org/10.1002/jcc.26942
  6. Grimme,S.; Antony,J.; Ehrlich,S.; Krieg,H.
     A consistent and accurate ab initio parametrization of density functional dispersion correction (DFT-D) for the 94 elements H-Pu
     J. Chem. Phys., 2010 132 154104-XXXX
     doi.org/10.1063/1.3382344
  7. Grimme,S.; Ehrlich,S.; Goerigk,L.
     Effect of the damping function in dispersion corrected density functional theory
     J. Comput. Chem., 2011 32(7)1456-1465
     doi.org/10.1002/jcc.21759

List of suggested additional citations. These are papers that are important in the 'surrounding' of 
of this run, or papers that preceded the highly important papers. If you like your results we are grateful for a citation.

  1. Izsak,R.; Neese,F.
     An overlap fitted chain of spheres exchange method
     J. Chem. Phys., 2011 135 144105
     doi.org/10.1063/1.3646921
  2. Izsak,R.; Hansen,A.; Neese,F.
     The resolution of identity and chain of spheres approximations for the LPNO-CCSD singles Fock term
     Molec. Phys., 2012 110 2413-2417
     doi.org/10.1080/00268976.2012.687466
  3. Neese,F.
     The ORCA program system
     WIRES Comput. Molec. Sci., 2012 2(1)73-78
     doi.org/10.1002/wcms.81
  4. Izsak,R.; Neese,F.; Klopper,W.
     Robust fitting techniques in the chain of spheres approximation to the Fock exchange: The role of the complementary space
     J. Chem. Phys., 2013 139 
     doi.org/10.1063/1.4819264
  5. Neese,F.
     Software update: the ORCA program system, version 4.0
     WIRES Comput. Molec. Sci., 2018 8(1)1-6
     doi.org/10.1002/wcms.1327
  6. Neese,F.; Wennmohs,F.; Becker,U.; Riplinger,C.
     The ORCA quantum chemistry program package
     J. Chem. Phys., 2020 152 Art. No. L224108
     doi.org/10.1063/5.0004608

List of optional additional citations

  1. Neese,F.
     Approximate second-order SCF convergence for spin unrestricted wavefunctions
     Chem. Phys. Lett., 2000 325(1-3)93-98
     doi.org/10.1016/s0009-2614(00)00662-x

Timings for individual modules:

Sum of individual times          ...      309.893 sec (=   5.165 min)
Startup calculation              ...        8.906 sec (=   0.148 min)   2.9 %
SCF iterations                   ...      298.919 sec (=   4.982 min)  96.5 %
Property calculations            ...        2.067 sec (=   0.034 min)   0.7 %
                             ****ORCA TERMINATED NORMALLY****
TOTAL RUN TIME: 0 days 0 hours 5 minutes 12 seconds 831 msec
