 vasp.6.3.2 27Jun22 (build Oct 25 2024 11:36:28) complex                        
  
 executed on             LinuxIFC date 2024.12.19  06:49:10
 running on   80 total cores
 distrk:  each k-point on   80 cores,    1 groups
 distr:  one band on NCORE=  10 cores,    8 groups


--------------------------------------------------------------------------------------------------------


 INCAR:
   SYSTEM = 007_red
   ISTART = 1
   ICHARG = 2
   INIWAV = 1
   NELM = 100
   ALGO = fast   	
   ISPIN = 2
   EDIFF = 1E-05
   ISMEAR = 0
   SIGMA = 0.05
   PREC = accurate
   ENCUT = 500
   LREAL = auto  	
   LWAVE = .TRUE.
   LCHARG = .FALSE.
   LAECHG = .FALSE.
   LVHAR = .FALSE.
   LVTOT = .FALSE.
   EDIFFG = -0.02
   IBRION = 2
   NSW = 500
   ISIF = 2
   POTIM = 0.5
   IVDW = 11
   LPLANE = .TRUE.
   NCORE = 10
   LSCALU = .FALSE.
   NSIM = 4
   LSOL = .TRUE.
   ISOL = 2
   R_SOLV = 2.1900
   EPSILON_INF = 1.8069
   N_MOL = 0.0115
   P_MOL = 0.82
   EB_K = 35.6880

 POTCAR:    PAW_PBE C 08Apr2002                   
 POTCAR:    PAW_PBE H 15Jun2001                   
 -----------------------------------------------------------------------------
|                                                                             |
|           W    W    AA    RRRRR   N    N  II  N    N   GGGG   !!!           |
|           W    W   A  A   R    R  NN   N  II  NN   N  G    G  !!!           |
|           W    W  A    A  R    R  N N  N  II  N N  N  G       !!!           |
|           W WW W  AAAAAA  RRRRR   N  N N  II  N  N N  G  GGG   !            |
|           WW  WW  A    A  R   R   N   NN  II  N   NN  G    G                |
|           W    W  A    A  R    R  N    N  II  N    N   GGGG   !!!           |
|                                                                             |
|     You use a magnetic or noncollinear calculation, but did not specify     |
|     the initial magnetic moment with the MAGMOM tag. Note that a            |
|     default of 1 will be used for all atoms. This ferromagnetic setup       |
|     may break the symmetry of the crystal, in particular it may rule        |
|     out finding an antiferromagnetic solution. Thence, we recommend         |
|     setting the initial magnetic moment manually or verifying carefully     |
|     that this magnetic setup is desired.                                    |
|                                                                             |
 -----------------------------------------------------------------------------

 POTCAR:    PAW_PBE C 08Apr2002                   
   SHA256 =  253f7b50bb8d59471dbedb8285d89021f4a42ed1a2c5d38a03a736e69125dd95 C/POTCAR              
   COPYR  = (c) Copyright 08Apr2002 Georg Kresse                                                    
   COPYR  = This file is part of the software VASP. Any use, copying, and all other rights are regul
   COPYR  = If you do not have a valid VASP license, you may not use, copy or distribute this file. 
   VRHFIN =C: s2p2                                                                                  
   LEXCH  = PE                                                                                      
   EATOM  =   147.1560 eV,   10.8157 Ry                                                             
                                                                                                    
   TITEL  = PAW_PBE C 08Apr2002                                                                     
   LULTRA =        F    use ultrasoft PP ?                                                          
   IUNSCR =        1    unscreen: 0-lin 1-nonlin 2-no                                               
   RPACOR =    1.200    partial core radius                                                         
   POMASS =   12.011; ZVAL   =    4.000    mass and valenz                                          
   RCORE  =    1.500    outmost cutoff radius                                                       
   RWIGS  =    1.630; RWIGS  =    0.863    wigner-seitz radius (au A)                               
   ENMAX  =  400.000; ENMIN  =  300.000 eV                                                          
   ICORE  =        2    local potential                                                             
   LCOR   =        T    correct aug charges                                                         
   LPAW   =        T    paw PP                                                                      
   EAUG   =  644.873                                                                                
   DEXC   =    0.000                                                                                
   RMAX   =    1.529    core radius for proj-oper                                                   
   RAUG   =    1.300    factor for augmentation sphere                                              
   RDEP   =    1.501    radius for radial grids                                                     
   RDEPT  =    1.300    core radius for aug-charge                                                  
                                                                                                    
   Atomic configuration                                                                             
    4 entries                                                                                       
     n  l   j            E        occ.                                                              
     1  0  0.50      -273.3789   2.0000                                                             
     2  0  0.50       -13.7508   2.0000                                                             
     2  1  0.50        -5.2854   2.0000                                                             
     3  2  1.50        -5.4423   0.0000                                                             
   Description                                                                                      
     l       E           TYP  RCUT    TYP  RCUT                                                     
     0    -13.7508458     23  1.200                                                                 
     0     -8.2022199     23  1.200                                                                 
     1     -5.2854383     23  1.500                                                                 
     1     34.0145650     23  1.500                                                                 
     2     -5.4423304      7  1.500                                                                 
  local pseudopotential read in
  partial core-charges read in
  partial kinetic energy density read in
  atomic valenz-charges read in
  non local Contribution for L=           0  read in
    real space projection operators read in
  non local Contribution for L=           0  read in
    real space projection operators read in
  non local Contribution for L=           1  read in
    real space projection operators read in
  non local Contribution for L=           1  read in
    real space projection operators read in
    PAW grid and wavefunctions read in
 
   number of l-projection  operators is LMAX  =           4
   number of lm-projection operators is LMMAX =           8
 
 POTCAR:    PAW_PBE H 15Jun2001                   
   SHA256 =  030f79b5d3ab3cf0e668861823c8fb652ff669f3e15e46930bd03bfd63a607b6 H/POTCAR              
   COPYR  = (c) Copyright 15Jun2001 Georg Kresse                                                    
   COPYR  = This file is part of the software VASP. Any use, copying, and all other rights are regul
   COPYR  = If you do not have a valid VASP license, you may not use, copy or distribute this file. 
   VRHFIN =H: ultrasoft test                                                                        
   LEXCH  = PE                                                                                      
   EATOM  =    12.4884 eV,    0.9179 Ry                                                             
                                                                                                    
   TITEL  = PAW_PBE H 15Jun2001                                                                     
   LULTRA =        F    use ultrasoft PP ?                                                          
   IUNSCR =        0    unscreen: 0-lin 1-nonlin 2-no                                               
   RPACOR =    0.000    partial core radius                                                         
   POMASS =    1.000; ZVAL   =    1.000    mass and valenz                                          
   RCORE  =    1.100    outmost cutoff radius                                                       
   RWIGS  =    0.700; RWIGS  =    0.370    wigner-seitz radius (au A)                               
   ENMAX  =  250.000; ENMIN  =  200.000 eV                                                          
   RCLOC  =    0.701    cutoff for local pot                                                        
   LCOR   =        T    correct aug charges                                                         
   LPAW   =        T    paw PP                                                                      
   EAUG   =  400.000                                                                                
   RMAX   =    1.123    core radius for proj-oper                                                   
   RAUG   =    1.200    factor for augmentation sphere                                              
   RDEP   =    1.112    radius for radial grids                                                     
   RDEPT  =    0.926    core radius for aug-charge                                                  
                                                                                                    
   Atomic configuration                                                                             
    2 entries                                                                                       
     n  l   j            E        occ.                                                              
     1  0  0.50        -6.4927   1.0000                                                             
     2  1  0.50        -3.4015   0.0000                                                             
   Description                                                                                      
     l       E           TYP  RCUT    TYP  RCUT                                                     
     0     -6.4927494     23  1.100                                                                 
     0      6.8029130     23  1.100                                                                 
     1     -4.0817478     23  1.100                                                                 
  local pseudopotential read in
  atomic valenz-charges read in
  non local Contribution for L=           0  read in
    real space projection operators read in
  non local Contribution for L=           0  read in
    real space projection operators read in
  non local Contribution for L=           1  read in
    real space projection operators read in
    PAW grid and wavefunctions read in
 
   number of l-projection  operators is LMAX  =           3
   number of lm-projection operators is LMMAX =           5
 
 Optimization of the real space projectors (new method)

 maximal supplied QI-value         = 25.13
 optimisation between [QCUT,QGAM] = [ 11.31, 22.87] = [ 35.82,146.48] Ry 
 Optimized for a Real-space Cutoff    1.03 Angstroem

   l    n(q)    QCUT    max X(q) W(low)/X(q) W(high)/X(q)  e(spline) 
   0      7    11.310   115.676    0.20E-03    0.90E-03    0.20E-06
   0      7    11.310    87.132    0.20E-03    0.89E-03    0.19E-06
   1      6    11.310     4.429    0.16E-03    0.28E-03    0.12E-06
   1      6    11.310     2.733    0.12E-03    0.21E-03    0.99E-07
 Optimization of the real space projectors (new method)

 maximal supplied QI-value         = 34.20
 optimisation between [QCUT,QGAM] = [ 11.29, 22.57] = [ 35.68,142.71] Ry 
 Optimized for a Real-space Cutoff    1.20 Angstroem

   l    n(q)    QCUT    max X(q) W(low)/X(q) W(high)/X(q)  e(spline) 
   0      8    11.287    19.460    0.22E-03    0.50E-03    0.19E-06
   0      8    11.287    12.209    0.21E-03    0.48E-03    0.18E-06
   1      8    11.287     4.655    0.21E-03    0.11E-04    0.26E-06
  PAW_PBE C 08Apr2002                   :
 energy of atom  1       EATOM= -147.1560
 kinetic energy error for atom=    0.0076 (will be added to EATOM!!)
  PAW_PBE H 15Jun2001                   :
 energy of atom  2       EATOM=  -12.4884
 kinetic energy error for atom=    0.0020 (will be added to EATOM!!)
 
 
 POSCAR: C H
  positions in direct lattice
  velocities in cartesian coordinates
 exchange correlation table for  LEXCH =        8
   RHO(1)=    0.500       N(1)  =     2000
   RHO(2)=  100.500       N(2)  =     4000
 
 POSCAR: C H
  positions in direct lattice
  velocities in cartesian coordinates
 
 POSCAR: C H
  positions in direct lattice
  velocities in cartesian coordinates
 


--------------------------------------------------------------------------------------------------------


 ion  position               nearest neighbor table
   1  0.535  0.470  0.500-  14 1.09   6 1.40   2 1.40
   2  0.552  0.500  0.500-  13 1.09   3 1.40   1 1.40
   3  0.535  0.530  0.500-  12 1.09   4 1.40   2 1.40
   4  0.500  0.530  0.500-  11 1.09   3 1.40   5 1.41
   5  0.482  0.500  0.500-   4 1.41   6 1.41   7 1.43
   6  0.500  0.470  0.500-   9 1.09   1 1.40   5 1.41
   7  0.446  0.500  0.500-   8 1.22   5 1.43
   8  0.416  0.500  0.500-  10 1.07   7 1.22
   9  0.486  0.446  0.500-   6 1.09
  10  0.389  0.500  0.500-   8 1.07
  11  0.486  0.554  0.500-   4 1.09
  12  0.548  0.554  0.500-   3 1.09
  13  0.579  0.500  0.500-   2 1.09
  14  0.548  0.446  0.500-   1 1.09
 
  LATTYP: Found a simple cubic cell.
 ALAT       =    40.0000000000
  
  Lattice vectors:
  
 A1 = (  40.0000000000,   0.0000000000,   0.0000000000)
 A2 = (   0.0000000000,  40.0000000000,   0.0000000000)
 A3 = (   0.0000000000,   0.0000000000,  40.0000000000)


Analysis of symmetry for initial positions (statically):
=====================================================================
 Subroutine PRICEL returns:
 Original cell was already a primitive cell.
 

 Routine SETGRP: Setting up the symmetry group for a 
 simple cubic supercell.


 Subroutine GETGRP returns: Found  1 space group operations
 (whereof  1 operations were pure point group operations)
 out of a pool of 48 trial point group operations.


The static configuration has the point symmetry C_1 .


Analysis of symmetry for dynamics (positions and initial velocities):
=====================================================================
 Subroutine PRICEL returns:
 Original cell was already a primitive cell.
 

 Routine SETGRP: Setting up the symmetry group for a 
 simple cubic supercell.


 Subroutine GETGRP returns: Found  1 space group operations
 (whereof  1 operations were pure point group operations)
 out of a pool of 48 trial point group operations.


The dynamic configuration has the point symmetry C_1 .


Analysis of constrained symmetry for selective dynamics:
=====================================================================
 Subroutine PRICEL returns:
 Original cell was already a primitive cell.
 

 Routine SETGRP: Setting up the symmetry group for a 
 simple cubic supercell.


 Subroutine GETGRP returns: Found  1 space group operations
 (whereof  1 operations were pure point group operations)
 out of a pool of 48 trial point group operations.


The constrained configuration has the point symmetry C_1 .


Analysis of structural, dynamic, and magnetic symmetry:
=====================================================================
 Subroutine PRICEL returns:
 Original cell was already a primitive cell.
 

 Routine SETGRP: Setting up the symmetry group for a 
 simple cubic supercell.


 Subroutine GETGRP returns: Found  1 space group operations
 (whereof  1 operations were pure point group operations)
 out of a pool of 48 trial point group operations.


The overall configuration has the point symmetry C_1 .


 Subroutine INISYM returns: Found  1 space group operations
 (whereof  1 operations are pure point group operations),
 and found     1 'primitive' translations


----------------------------------------------------------------------------------------

                                     Primitive cell                                     

  volume of cell :   64000.0000

  direct lattice vectors                    reciprocal lattice vectors
    40.000000000  0.000000000  0.000000000     0.025000000  0.000000000  0.000000000
     0.000000000 40.000000000  0.000000000     0.000000000  0.025000000  0.000000000
     0.000000000  0.000000000 40.000000000     0.000000000  0.000000000  0.025000000

  length of vectors
    40.000000000 40.000000000 40.000000000     0.025000000  0.025000000  0.025000000

  position of ions in fractional coordinates (direct lattice)
     0.534504788  0.469723458  0.500000044
     0.552051125  0.500000487  0.500000301
     0.534501774  0.530275762  0.500000044
     0.499620284  0.530425275  0.499998813
     0.481758204  0.499997169  0.499997025
     0.499622867  0.469570157  0.499998812
     0.446125333  0.500000668  0.499995763
     0.415718860  0.500011661  0.499997945
     0.485871389  0.446027428  0.499998265
     0.388896438  0.499997930  0.500013879
     0.485866405  0.553966521  0.499998265
     0.548066355  0.553941796  0.500000269
     0.579324484  0.500001916  0.500000306
     0.548071694  0.446058771  0.500000269

  ion indices of the primitive-cell ions
   primitive index   ion index
                 1           1
                 2           2
                 3           3
                 4           4
                 5           5
                 6           6
                 7           7
                 8           8
                 9           9
                10          10
                11          11
                12          12
                13          13
                14          14

----------------------------------------------------------------------------------------

 
 
 KPOINTS: K-Point Grid                            

Automatic generation of k-mesh.
 Grid dimensions read from file:
 generate k-points for:    1    1    1

 Generating k-lattice:

  Cartesian coordinates                     Fractional coordinates (reciprocal lattice)
     0.025000000  0.000000000  0.000000000     1.000000000  0.000000000  0.000000000
     0.000000000  0.025000000  0.000000000     0.000000000  1.000000000  0.000000000
     0.000000000  0.000000000  0.025000000     0.000000000  0.000000000  1.000000000

  Length of vectors
     0.025000000  0.025000000  0.025000000

  Shift w.r.t. Gamma in fractional coordinates (k-lattice)
     0.000000000  0.000000000  0.000000000

 
 Subroutine IBZKPT returns following result:
 ===========================================
 
 Found      1 irreducible k-points:
 
 Following reciprocal coordinates:
            Coordinates               Weight
  0.000000  0.000000  0.000000      1.000000
 
 Following cartesian coordinates:
            Coordinates               Weight
  0.000000  0.000000  0.000000      1.000000
 


--------------------------------------------------------------------------------------------------------




 Dimension of arrays:
   k-points           NKPTS =      1   k-points in BZ     NKDIM =      1   number of bands    NBANDS=     40
   number of dos      NEDOS =    301   number of ions     NIONS =     14
   non local maximal  LDIM  =      4   non local SUM 2l+1 LMDIM =      8
   total plane-waves  NPLWV = ******
   max r-space proj   IRMAX =   2915   max aug-charges    IRDMAX=   4885
   dimension x,y,z NGX =   294 NGY =  294 NGZ =  294
   dimension x,y,z NGXF=   588 NGYF=  588 NGZF=  588
   support grid    NGXF=   588 NGYF=  588 NGZF=  588
   ions per type =               8   6
   NGX,Y,Z   is equivalent  to a cutoff of  12.22, 12.22, 12.22 a.u.
   NGXF,Y,Z  is equivalent  to a cutoff of  24.44, 24.44, 24.44 a.u.

 SYSTEM =  007_red                                 
 POSCAR =  C H                                     

 Startparameter for this run:
   NWRITE =      2    write-flag & timer
   PREC   = accura    normal or accurate (medium, high low for compatibility)
   ISTART =      1    job   : 0-new  1-cont  2-samecut
   ICHARG =      2    charge: 1-file 2-atom 10-const
   ISPIN  =      2    spin polarized calculation?
   LNONCOLLINEAR =      F non collinear calculations
   LSORBIT =      F    spin-orbit coupling
   INIWAV =      1    electr: 0-lowe 1-rand  2-diag
   LASPH  =      F    aspherical Exc in radial PAW
 Electronic Relaxation 1
   ENCUT  =  500.0 eV  36.75 Ry    6.06 a.u.  72.93 72.93 72.93*2*pi/ulx,y,z
   ENINI  =  500.0     initial cutoff
   ENAUG  =  644.9 eV  augmentation charge cutoff
   NELM   =    100;   NELMIN=  2; NELMDL=  0     # of ELM steps 
   EDIFF  = 0.1E-04   stopping-criterion for ELM
   LREAL  =      T    real-space projection
   NLSPLINE    = F    spline interpolate recip. space projectors
   LCOMPAT=      F    compatible to vasp.4.4
   GGA_COMPAT  = T    GGA compatible to vasp.4.4-vasp.4.6
   LMAXPAW     = -100 max onsite density
   LMAXMIX     =    2 max onsite mixed and CHGCAR
   VOSKOWN=      0    Vosko Wilk Nusair interpolation
   ROPT   =   -0.00025  -0.00025
 Ionic relaxation
   EDIFFG = -.2E-01   stopping-criterion for IOM
   NSW    =    500    number of steps for IOM
   NBLOCK =      1;   KBLOCK =    500    inner block; outer block 
   IBRION =      2    ionic relax: 0-MD 1-quasi-New 2-CG
   NFREE  =      1    steps in history (QN), initial steepest desc. (CG)
   ISIF   =      2    stress and relaxation
   IWAVPR =     11    prediction:  0-non 1-charg 2-wave 3-comb
   ISYM   =      2    0-nonsym 1-usesym 2-fastsym
   LCORR  =      T    Harris-Foulkes like correction to forces

   POTIM  = 0.5000    time-step for ionic-motion
   TEIN   =    0.0    initial temperature
   TEBEG  =    0.0;   TEEND  =   0.0 temperature during run
   SMASS  =  -3.00    Nose mass-parameter (am)
   estimated Nose-frequenzy (Omega)   =  0.10E-29 period in steps = 0.13E+47 mass=  -0.366E-25a.u.
   SCALEE = 1.0000    scale energy and forces
   NPACO  =    256;   APACO  = 10.0  distance and # of slots for P.C.
   PSTRESS=    0.0 pullay stress

  Mass of Ions in am
   POMASS =  12.01  1.00
  Ionic Valenz
   ZVAL   =   4.00  1.00
  Atomic Wigner-Seitz radii
   RWIGS  =  -1.00 -1.00
  virtual crystal weights 
   VCA    =   1.00  1.00
   NELECT =      38.0000    total number of electrons
   NUPDOWN=      -1.0000    fix difference up-down

 DOS related values:
   EMIN   =  10.00;   EMAX   =-10.00  energy-range for DOS
   EFERMI =   0.00
   ISMEAR =     0;   SIGMA  =   0.05  broadening in eV -4-tet -1-fermi 0-gaus

 Electronic relaxation 2 (details)
   IALGO  =     68    algorithm
   LDIAG  =      T    sub-space diagonalisation (order eigenvalues)
   LSUBROT=      F    optimize rotation matrix (better conditioning)
   TURBO    =      0    0=normal 1=particle mesh
   IRESTART =      0    0=no restart 2=restart with 2 vectors
   NREBOOT  =      0    no. of reboots
   NMIN     =      0    reboot dimension
   EREF     =   0.00    reference energy to select bands
   IMIX   =      4    mixing-type and parameters
     AMIX     =   0.40;   BMIX     =  1.00
     AMIX_MAG =   1.60;   BMIX_MAG =  1.00
     AMIN     =   0.10
     WC   =   100.;   INIMIX=   1;  MIXPRE=   1;  MAXMIX= -45

 Intra band minimization:
   WEIMIN = 0.0010     energy-eigenvalue tresh-hold
   EBREAK =  0.63E-07  absolut break condition
   DEPER  =   0.30     relativ break condition  

   TIME   =   0.40     timestep for ELM

  volume/ion in A,a.u.               =    4571.43     30849.52
  Fermi-wavevector in a.u.,A,eV,Ry     =   0.137597  0.260021  0.257599  0.018933
  Thomas-Fermi vector in A             =   0.790967
 
 Write flags
   LWAVE        =      T    write WAVECAR
   LDOWNSAMPLE  =      F    k-point downsampling of WAVECAR
   LCHARG       =      F    write CHGCAR
   LVTOT        =      F    write LOCPOT, total local potential
   LVHAR        =      F    write LOCPOT, Hartree potential only
   LELF         =      F    write electronic localiz. function (ELF)
   LORBIT       =      0    0 simple, 1 ext, 2 COOP (PROOUT), +10 PAW based schemes


 Dipole corrections
   LMONO  =      F    monopole corrections only (constant potential shift)
   LDIPOL =      F    correct potential (dipole corrections)
   IDIPOL =      0    1-x, 2-y, 3-z, 4-all directions 
   EPSILON=  1.0000000 bulk dielectric constant

 Exchange correlation treatment:
   GGA     =    --    GGA type
   LEXCH   =     8    internal setting for exchange type
   LIBXC   =     F    Libxc                    
   VOSKOWN =     0    Vosko Wilk Nusair interpolation
   LHFCALC =     F    Hartree Fock is set to
   LHFONE  =     F    Hartree Fock one center treatment
   AEXX    =    0.0000 exact exchange contribution

 Linear response parameters
   LEPSILON=     F    determine dielectric tensor
   LRPA    =     F    only Hartree local field effects (RPA)
   LNABLA  =     F    use nabla operator in PAW spheres
   LVEL    =     F    velocity operator in full k-point grid
   CSHIFT  =0.1000    complex shift for real part using Kramers Kronig
   OMEGAMAX=  -1.0    maximum frequency
   DEG_THRESHOLD= 0.2000000E-02 threshold for treating states as degnerate
   RTIME   =   -0.100 relaxation time in fs
  (WPLASMAI=    0.000 imaginary part of plasma frequency in eV, 0.658/RTIME)
   DFIELD  = 0.0000000 0.0000000 0.0000000 field for delta impulse in time
 
  Optional k-point grid parameters
   LKPOINTS_OPT  =     F    use optional k-point grid
   KPOINTS_OPT_MODE=     1    mode for optional k-point grid
 
 Orbital magnetization related:
   ORBITALMAG=     F  switch on orbital magnetization
   LCHIMAG   =     F  perturbation theory with respect to B field
   DQ        =  0.001000  dq finite difference perturbation B field
   LLRAUG    =     F  two centre corrections for induced B field

 Solvation model:
   LSOL             =     T         switch on solvation model
   LSOL_SCF         =     T         include solvation in SCF
   ISOL             =     2         solvation model type
   EFERMI_ref       =  0.000000         reference Fermi level
   capacitance_init =  1.000000         initial capacitance
 Nonlinear solvation model:
   LNLDIEL     =     T         switch on non-linear dielectric mode
   LNLION      =     T         switch on non-linear ionic mode
   LNLTEST     =     F         test non-linear model in linear regime
   I_NLOC_SOL  =     1         type of nonlocal dielectric response
   NC_K        =  0.015000     cutoff charge density for cavities (1/Angstrom**3)
   TAU         =  0.000879     cavity formation energy (eV/Angstrom**2)
   SIGMA_K     =  0.600000     cavity width
   A_K         =  0.125000     smoothing length (Angstrom)
   R_SOLV      =  2.190000     solvent radius (Angstrom)
   R_CAV       =  0.000000     cavity radius (Angstrom)
   R_DIEL      =  1.000000     dielectric radius (Angstrom)
   R_ION       =  0.000000     ionic radius (Angstrom)
   R_B         =  0.000000     bound charge radius (Angstrom)
   SOLTEMP     =298.000000     solvent temperature (K)
   EB_K        = 35.688000     relative permittivity of the bulk solvent
   EPSILON_INF =  1.806900     optical relative permittivity of bulk solvent
   N_MOL       =  0.011500     molar density of solvent (1/Angstrom**3)
   P_MOL       =  0.820000     solvent dipole moment (e*Angstrom)
   C_MOLAR     =  0.000000     electrolyte concentration (mol/L)
   LAMBDA_D_K  =  0.000000     Debye length (Angstrom)
   ZION        =  1.000000     charge of ions in electrolyte (e)
   D_ION       = -1.000000     minimum ion packing diameter (Angstrom)



--------------------------------------------------------------------------------------------------------


 conjugate gradient relaxation of ions
   using selective dynamics as specified on POSCAR
 charge density and potential will be updated during run
 spin polarized calculation
 RMM-DIIS sequential band-by-band and
  variant of blocked Davidson during initial phase
 perform sub-space diagonalisation
    before iterative eigenvector-optimisation
 modified Broyden-mixing scheme, WC =      100.0
 initial mixing is a Kerker type mixing with AMIX =  0.4000 and BMIX =      1.0000
 Hartree-type preconditioning will be used
 using additional bands           21
 real space projection scheme for non local part
 use partial core corrections
 calculate Harris-corrections to forces 
   (improved forces if not selfconsistent)
 use gradient corrections 
 use of overlap-Matrix (Vanderbilt PP)
 Gauss-broadening in eV      SIGMA  =   0.05


--------------------------------------------------------------------------------------------------------


  energy-cutoff  :      500.00
  volume of cell :    64000.00
      direct lattice vectors                 reciprocal lattice vectors
    40.000000000  0.000000000  0.000000000     0.025000000  0.000000000  0.000000000
     0.000000000 40.000000000  0.000000000     0.000000000  0.025000000  0.000000000
     0.000000000  0.000000000 40.000000000     0.000000000  0.000000000  0.025000000

  length of vectors
    40.000000000 40.000000000 40.000000000     0.025000000  0.025000000  0.025000000


 
 old parameters found on file WAVECAR:
  energy-cutoff  :      500.00
  volume of cell :    64000.00
      direct lattice vectors                 reciprocal lattice vectors
    40.000000000  0.000000000  0.000000000     0.025000000  0.000000000  0.000000000
     0.000000000 40.000000000  0.000000000     0.000000000  0.025000000  0.000000000
     0.000000000  0.000000000 40.000000000     0.000000000  0.000000000  0.025000000

  length of vectors

 
 k-points in units of 2pi/SCALE and weight: K-Point Grid                            
   0.00000000  0.00000000  0.00000000       1.000
 
 k-points in reciprocal lattice and weights: K-Point Grid                            
   0.00000000  0.00000000  0.00000000       1.000
 
 position of ions in fractional coordinates (direct lattice) 
   0.53450479  0.46972346  0.50000004
   0.55205113  0.50000049  0.50000030
   0.53450177  0.53027576  0.50000004
   0.49962028  0.53042528  0.49999881
   0.48175820  0.49999717  0.49999702
   0.49962287  0.46957016  0.49999881
   0.44612533  0.50000067  0.49999576
   0.41571886  0.50001166  0.49999795
   0.48587139  0.44602743  0.49999826
   0.38889644  0.49999793  0.50001388
   0.48586641  0.55396652  0.49999827
   0.54806635  0.55394180  0.50000027
   0.57932448  0.50000192  0.50000031
   0.54807169  0.44605877  0.50000027
 
 position of ions in cartesian coordinates  (Angst):
  21.38019151 18.78893832 20.00000175
  22.08204502 20.00001947 20.00001202
  21.38007096 21.21103047 20.00000177
  19.98481135 21.21701100 19.99995250
  19.27032816 19.99988677 19.99988100
  19.98491468 18.78280629 19.99995248
  17.84501331 20.00002673 19.99983052
  16.62875440 20.00046646 19.99991781
  19.43485554 17.84109710 19.99993059
  15.55585754 19.99991720 20.00055515
  19.43465622 22.15866085 19.99993060
  21.92265420 22.15767185 20.00001077
  23.17297936 20.00007666 20.00001226
  21.92286776 17.84235083 20.00001077
 


--------------------------------------------------------------------------------------------------------


 k-point   1 :   0.0000 0.0000 0.0000  plane waves: 1624525

 maximum and minimum number of plane-waves per node :    162473   162437

 maximum number of plane-waves:   1624525
 maximum index in each direction: 
   IXMAX=   72   IYMAX=   72   IZMAX=   72
   IXMIN=  -72   IYMIN=  -72   IZMIN=  -72


 real space projection operators:
  total allocation   :       1549.95 KBytes
  max/ min on nodes  :        165.91        147.68


 parallel 3D FFT for wavefunctions:
    minimum data exchange during FFTs selected (reduces bandwidth)
 parallel 3D FFT for charge:
    minimum data exchange during FFTs selected (reduces bandwidth)


 total amount of memory used by VASP MPI-rank0   654176. kBytes
=======================================================================

   base      :      30000. kBytes
   nonlr-proj:        870. kBytes
   fftplans  :     167689. kBytes
   grid      :     429606. kBytes
   one-center:         12. kBytes
   wavefun   :      25999. kBytes
 
     INWAV:  cpu time      8.3625: real time      8.3810
 Broyden mixing: mesh for mixing (old mesh)
   NGX =145   NGY =145   NGZ =145
  (NGX  =588   NGY  =588   NGZ  =588)
  gives a total of ****** points

 initial charge density was supplied:
 charge density of overlapping atoms calculated
 number of electron      38.0000000 magnetization      14.0000000
 keeping initial charge density in first step


--------------------------------------------------------------------------------------------------------


 Maximum index for non-local projection operator          314
 Maximum index for augmentation-charges          277 (set IRDMAX)


--------------------------------------------------------------------------------------------------------


 First call to EWALD:  gamma=   0.044
 Maximum number of real-space cells 3x 3x 3
 Maximum number of reciprocal cells 3x 3x 3

    FEWALD:  cpu time      0.0021: real time      0.0021


--------------------------------------- Iteration      1(   1)  ---------------------------------------


    POTLOK:  cpu time     11.5760: real time     11.6024
    SETDIJ:  cpu time      0.2644: real time      0.2649
     EDDAV:  cpu time     28.5152: real time     28.5860
       DOS:  cpu time      0.0336: real time      0.0336
    CHARGE:  cpu time      2.3152: real time      2.3194
    MIXING:  cpu time      0.5715: real time      0.5711
    --------------------------------------------
      LOOP:  cpu time     43.2758: real time     43.3775

 eigenvalue-minimisations  :   208
 total energy-change (2. order) :-0.8817373E+02  (-0.7103323E+01)
 number of electron      38.0000003 magnetization      13.4606110
 augmentation part        0.9798569 magnetization      13.4871978

 Broyden mixing:
  rms(total) = 0.24396E+01    rms(broyden)= 0.24394E+01
  rms(prec ) = 0.24671E+01
  weight for this iteration     100.00

 Free energy of the ion-electron system (eV)
  ---------------------------------------------------
  alpha Z        PSCENC =         0.10622807
  Ewald energy   TEWEN  =      3251.66022136
  -Hartree energ DENC   =     -4063.58404331
  -exchange      EXHF   =         0.00000000
  -V(xc)+E(xc)   XCENC  =       119.53930366
  PAW double counting   =       877.91636232     -882.45100770
  entropy T*S    EENTRO =        -0.00000000
  eigenvalues    EBANDS =      -643.46675081
  atomic energy  EATOM  =      1252.10595265
  Solvation  Ecorr_sol  =         0.00000000
  ---------------------------------------------------
  free energy    TOTEN  =       -88.17373375 eV

  energy without entropy =      -88.17373375  energy(sigma->0) =      -88.17373375


--------------------------------------------------------------------------------------------------------




--------------------------------------- Iteration      1(   2)  ---------------------------------------


    --------------------------------------------
      INIT:  cpu time      0.5632: real time      0.5642
  FINALIZE:  cpu time     47.5893: real time     47.6957
    --------------------------------------------
    POTLOK:  cpu time     57.2585: real time     57.3983
    SETDIJ:  cpu time      0.2224: real time      0.2228
    EDDIAG:  cpu time      5.5013: real time      5.5125
  RMM-DIIS:  cpu time     17.9738: real time     18.0125
    ORTHCH:  cpu time      0.2885: real time      0.2892
       DOS:  cpu time      0.0026: real time      0.0026
    CHARGE:  cpu time      2.2508: real time      2.2502
    MIXING:  cpu time      0.4647: real time      0.5114
    --------------------------------------------
      LOOP:  cpu time     83.9625: real time     84.1996

 eigenvalue-minimisations  :   160
 total energy-change (2. order) : 0.4263611E+02  (-0.7053185E+01)
 number of electron      38.0000003 magnetization      12.8673766
 augmentation part        0.9728808 magnetization      12.8374814

 Broyden mixing:
  rms(total) = 0.11718E+01    rms(broyden)= 0.11718E+01
  rms(prec ) = 0.11950E+01
  weight for this iteration     100.00

 eigenvalues of (default mixing * dielectric matrix)
  average eigenvalue GAMMA=   0.9581
  0.9581

 Free energy of the ion-electron system (eV)
  ---------------------------------------------------
  alpha Z        PSCENC =         0.10622807
  Ewald energy   TEWEN  =      3251.66022136
  -Hartree energ DENC   =     -4143.34709860
  -exchange      EXHF   =         0.00000000
  -V(xc)+E(xc)   XCENC  =       157.03570674
  PAW double counting   =      1669.41998031    -1674.78473545
  entropy T*S    EENTRO =        -0.00000000
  eigenvalues    EBANDS =      -554.35305627
  atomic energy  EATOM  =      1252.10595265
  Solvation  Ecorr_sol  =        -3.38082549
  ---------------------------------------------------
  free energy    TOTEN  =       -45.53762668 eV

  energy without entropy =      -45.53762668  energy(sigma->0) =      -45.53762668


--------------------------------------------------------------------------------------------------------




--------------------------------------- Iteration      1(   3)  ---------------------------------------


    --------------------------------------------
      INIT:  cpu time      0.5665: real time      0.5673
  FINALIZE:  cpu time     57.0469: real time     57.1857
    --------------------------------------------
    POTLOK:  cpu time     66.7589: real time     66.9550
    SETDIJ:  cpu time      0.2000: real time      0.2004
    EDDIAG:  cpu time      5.5120: real time      5.5225
  RMM-DIIS:  cpu time     17.8486: real time     17.8871
    ORTHCH:  cpu time      0.3309: real time      0.3317
       DOS:  cpu time      0.0021: real time      0.0021
    CHARGE:  cpu time      2.2373: real time      2.2424
    MIXING:  cpu time      0.4726: real time      0.4736
    --------------------------------------------
      LOOP:  cpu time     93.3624: real time     93.6147

 eigenvalue-minimisations  :   160
 total energy-change (2. order) :-0.2532559E+02  (-0.3112212E+01)
 number of electron      38.0000003 magnetization      12.1665872
 augmentation part        0.9399562 magnetization      12.1114726

 Broyden mixing:
  rms(total) = 0.66541E+00    rms(broyden)= 0.66535E+00
  rms(prec ) = 0.67312E+00
  weight for this iteration     100.00

 eigenvalues of (default mixing * dielectric matrix)
  average eigenvalue GAMMA=   1.1503
  0.7870  1.5136

 Free energy of the ion-electron system (eV)
  ---------------------------------------------------
  alpha Z        PSCENC =         0.10622807
  Ewald energy   TEWEN  =      3251.66022136
  -Hartree energ DENC   =     -4208.68449283
  -exchange      EXHF   =         0.00000000
  -V(xc)+E(xc)   XCENC  =       138.82200225
  PAW double counting   =      2392.40379638    -2398.25006502
  entropy T*S    EENTRO =        -0.00000000
  eigenvalues    EBANDS =      -492.71720034
  atomic energy  EATOM  =      1252.10595265
  Solvation  Ecorr_sol  =        -6.30966411
  ---------------------------------------------------
  free energy    TOTEN  =       -70.86322160 eV

  energy without entropy =      -70.86322160  energy(sigma->0) =      -70.86322160


--------------------------------------------------------------------------------------------------------




--------------------------------------- Iteration      1(   4)  ---------------------------------------


    --------------------------------------------
      INIT:  cpu time      0.5860: real time      0.5869
  FINALIZE:  cpu time     60.3760: real time     60.5059
    --------------------------------------------
    POTLOK:  cpu time     70.1713: real time     70.3386
    SETDIJ:  cpu time      0.1801: real time      0.1804
    EDDIAG:  cpu time      5.4970: real time      5.5070
  RMM-DIIS:  cpu time     17.7772: real time     17.8152
    ORTHCH:  cpu time      0.3228: real time      0.3236
       DOS:  cpu time      0.0019: real time      0.0019
    CHARGE:  cpu time      2.2387: real time      2.2433
    MIXING:  cpu time      0.4813: real time      0.4823
    --------------------------------------------
      LOOP:  cpu time     96.6703: real time     96.8923

 eigenvalue-minimisations  :   160
 total energy-change (2. order) :-0.6831282E+01  (-0.1313256E+01)
 number of electron      38.0000002 magnetization      11.6420368
 augmentation part        0.9075936 magnetization      11.5930367

 Broyden mixing:
  rms(total) = 0.46086E+00    rms(broyden)= 0.46080E+00
  rms(prec ) = 0.46469E+00
  weight for this iteration     100.00

 eigenvalues of (default mixing * dielectric matrix)
  average eigenvalue GAMMA=   1.0969
  1.5784  1.0372  0.6750

 Free energy of the ion-electron system (eV)
  ---------------------------------------------------
  alpha Z        PSCENC =         0.10622807
  Ewald energy   TEWEN  =      3251.66022136
  -Hartree energ DENC   =     -4248.46555382
  -exchange      EXHF   =         0.00000000
  -V(xc)+E(xc)   XCENC  =       135.68044255
  PAW double counting   =      3012.86500612    -3018.85590543
  entropy T*S    EENTRO =        -0.00000000
  eigenvalues    EBANDS =      -454.80332781
  atomic energy  EATOM  =      1252.10595265
  Solvation  Ecorr_sol  =        -7.98756741
  ---------------------------------------------------
  free energy    TOTEN  =       -77.69450371 eV

  energy without entropy =      -77.69450371  energy(sigma->0) =      -77.69450371


--------------------------------------------------------------------------------------------------------




--------------------------------------- Iteration      1(   5)  ---------------------------------------


    --------------------------------------------
      INIT:  cpu time      0.5656: real time      0.5663
  FINALIZE:  cpu time     63.5048: real time     63.6511
    --------------------------------------------
    POTLOK:  cpu time     73.2486: real time     73.4293
    SETDIJ:  cpu time      0.1778: real time      0.1782
    EDDIAG:  cpu time      5.5044: real time      5.5149
  RMM-DIIS:  cpu time     17.7922: real time     17.8300
    ORTHCH:  cpu time      0.3477: real time      0.3485
       DOS:  cpu time      0.0020: real time      0.0020
    CHARGE:  cpu time      2.2524: real time      2.2570
    MIXING:  cpu time      0.4923: real time      0.4932
    --------------------------------------------
      LOOP:  cpu time     99.8176: real time    100.0531

 eigenvalue-minimisations  :   162
 total energy-change (2. order) :-0.3696040E+01  (-0.2739588E+00)
 number of electron      38.0000002 magnetization      10.6067692
 augmentation part        0.8954225 magnetization      10.5655316

 Broyden mixing:
  rms(total) = 0.31101E+00    rms(broyden)= 0.31099E+00
  rms(prec ) = 0.31355E+00
  weight for this iteration     100.00

 eigenvalues of (default mixing * dielectric matrix)
  average eigenvalue GAMMA=   1.3528
  1.9564  1.9564  0.8476  0.6510

 Free energy of the ion-electron system (eV)
  ---------------------------------------------------
  alpha Z        PSCENC =         0.10622807
  Ewald energy   TEWEN  =      3251.66022136
  -Hartree energ DENC   =     -4249.19455006
  -exchange      EXHF   =         0.00000000
  -V(xc)+E(xc)   XCENC  =       133.02457943
  PAW double counting   =      3186.90795995    -3192.77786704
  entropy T*S    EENTRO =        -0.00000000
  eigenvalues    EBANDS =      -455.83674205
  atomic energy  EATOM  =      1252.10595265
  Solvation  Ecorr_sol  =        -7.38632593
  ---------------------------------------------------
  free energy    TOTEN  =       -81.39054362 eV

  energy without entropy =      -81.39054362  energy(sigma->0) =      -81.39054362


--------------------------------------------------------------------------------------------------------




--------------------------------------- Iteration      1(   6)  ---------------------------------------


    --------------------------------------------
      INIT:  cpu time      0.5687: real time      0.5694
  FINALIZE:  cpu time     63.4347: real time     63.5756
    --------------------------------------------
    POTLOK:  cpu time     73.1814: real time     73.3567
    SETDIJ:  cpu time      0.1778: real time      0.1781
    EDDIAG:  cpu time      5.5035: real time      5.5137
  RMM-DIIS:  cpu time     17.7106: real time     17.7489
    ORTHCH:  cpu time      0.3220: real time      0.3228
       DOS:  cpu time      0.0020: real time      0.0020
    CHARGE:  cpu time      2.2379: real time      2.2425
    MIXING:  cpu time      0.5031: real time      0.5040
    --------------------------------------------
      LOOP:  cpu time     99.6384: real time     99.8687

 eigenvalue-minimisations  :   160
 total energy-change (2. order) :-0.6145417E+01  (-0.3019062E+00)
 number of electron      38.0000002 magnetization      10.1953345
 augmentation part        0.8907106 magnetization      10.1649648

 Broyden mixing:
  rms(total) = 0.16541E+00    rms(broyden)= 0.16539E+00
  rms(prec ) = 0.16640E+00
  weight for this iteration     100.00

 eigenvalues of (default mixing * dielectric matrix)
  average eigenvalue GAMMA=   1.3319
  2.3420  1.7574  1.1037  0.6534  0.8030

 Free energy of the ion-electron system (eV)
  ---------------------------------------------------
  alpha Z        PSCENC =         0.10622807
  Ewald energy   TEWEN  =      3251.66022136
  -Hartree energ DENC   =     -4249.47695663
  -exchange      EXHF   =         0.00000000
  -V(xc)+E(xc)   XCENC  =       128.23351507
  PAW double counting   =      3435.68590314    -3441.34141968
  entropy T*S    EENTRO =        -0.00000000
  eigenvalues    EBANDS =      -459.01111826
  atomic energy  EATOM  =      1252.10595265
  Solvation  Ecorr_sol  =        -5.49828609
  ---------------------------------------------------
  free energy    TOTEN  =       -87.53596037 eV

  energy without entropy =      -87.53596037  energy(sigma->0) =      -87.53596037


--------------------------------------------------------------------------------------------------------




--------------------------------------- Iteration      1(   7)  ---------------------------------------


    --------------------------------------------
      INIT:  cpu time      0.5677: real time      0.5689
  FINALIZE:  cpu time     63.4070: real time     63.5588
    --------------------------------------------
    POTLOK:  cpu time     73.1645: real time     73.3508
    SETDIJ:  cpu time      0.1757: real time      0.1761
    EDDIAG:  cpu time      5.4693: real time      5.4791
  RMM-DIIS:  cpu time     17.7507: real time     17.7893
    ORTHCH:  cpu time      0.3199: real time      0.3206
       DOS:  cpu time      0.0026: real time      0.0026
    CHARGE:  cpu time      2.2355: real time      2.2409
    MIXING:  cpu time      0.4994: real time      0.5005
    --------------------------------------------
      LOOP:  cpu time     99.6177: real time     99.8598

 eigenvalue-minimisations  :   160
 total energy-change (2. order) :-0.7739471E+00  (-0.7821743E-01)
 number of electron      38.0000002 magnetization       9.6068069
 augmentation part        0.8813095 magnetization       9.5859604

 Broyden mixing:
  rms(total) = 0.14547E+00    rms(broyden)= 0.14546E+00
  rms(prec ) = 0.14625E+00
  weight for this iteration     100.00

 eigenvalues of (default mixing * dielectric matrix)
  average eigenvalue GAMMA=   1.2195
  2.1455  2.1455  0.9008  0.9008  0.6122  0.6122

 Free energy of the ion-electron system (eV)
  ---------------------------------------------------
  alpha Z        PSCENC =         0.10622807
  Ewald energy   TEWEN  =      3251.66022136
  -Hartree energ DENC   =     -4253.99588984
  -exchange      EXHF   =         0.00000000
  -V(xc)+E(xc)   XCENC  =       127.82447055
  PAW double counting   =      3457.85873814    -3463.54507982
  entropy T*S    EENTRO =        -0.00000000
  eigenvalues    EBANDS =      -455.89500168
  atomic energy  EATOM  =      1252.10595265
  Solvation  Ecorr_sol  =        -4.42954689
  ---------------------------------------------------
  free energy    TOTEN  =       -88.30990744 eV

  energy without entropy =      -88.30990744  energy(sigma->0) =      -88.30990744


--------------------------------------------------------------------------------------------------------




--------------------------------------- Iteration      1(   8)  ---------------------------------------


    --------------------------------------------
      INIT:  cpu time      0.5723: real time      0.5732
  FINALIZE:  cpu time     66.6049: real time     66.7666
    --------------------------------------------
    POTLOK:  cpu time     76.3390: real time     76.5419
    SETDIJ:  cpu time      0.1776: real time      0.1780
    EDDIAG:  cpu time      5.4919: real time      5.5017
  RMM-DIIS:  cpu time     17.8075: real time     17.8481
    ORTHCH:  cpu time      0.3338: real time      0.3346
       DOS:  cpu time      0.0037: real time      0.0037
    CHARGE:  cpu time      2.2317: real time      2.2367
    MIXING:  cpu time      0.5122: real time      0.5132
    --------------------------------------------
      LOOP:  cpu time    102.8974: real time    103.1579

 eigenvalue-minimisations  :   161
 total energy-change (2. order) :-0.6943748E+00  (-0.2662046E-01)
 number of electron      38.0000002 magnetization       7.6739672
 augmentation part        0.8804032 magnetization       7.6579415

 Broyden mixing:
  rms(total) = 0.11453E+00    rms(broyden)= 0.11453E+00
  rms(prec ) = 0.11497E+00
  weight for this iteration     100.00

 eigenvalues of (default mixing * dielectric matrix)
  average eigenvalue GAMMA=   1.5594
  3.3253  2.8348  1.4870  1.1384  0.8446  0.6745  0.6115

 Free energy of the ion-electron system (eV)
  ---------------------------------------------------
  alpha Z        PSCENC =         0.10622807
  Ewald energy   TEWEN  =      3251.66022136
  -Hartree energ DENC   =     -4252.22827133
  -exchange      EXHF   =         0.00000000
  -V(xc)+E(xc)   XCENC  =       127.12766114
  PAW double counting   =      3401.59814841    -3407.26000486
  entropy T*S    EENTRO =        -0.00000000
  eigenvalues    EBANDS =      -459.27218287
  atomic energy  EATOM  =      1252.10595265
  Solvation  Ecorr_sol  =        -2.84203484
  ---------------------------------------------------
  free energy    TOTEN  =       -89.00428227 eV

  energy without entropy =      -89.00428227  energy(sigma->0) =      -89.00428227


--------------------------------------------------------------------------------------------------------




--------------------------------------- Iteration      1(   9)  ---------------------------------------


    --------------------------------------------
      INIT:  cpu time      0.5739: real time      0.5747
  FINALIZE:  cpu time     66.7397: real time     66.8971
    --------------------------------------------
    POTLOK:  cpu time     76.5293: real time     76.7219
    SETDIJ:  cpu time      0.1798: real time      0.1802
    EDDIAG:  cpu time      5.4908: real time      5.5024
  RMM-DIIS:  cpu time     18.3643: real time     18.4046
    ORTHCH:  cpu time      0.3514: real time      0.3522
       DOS:  cpu time      0.0014: real time      0.0014
    CHARGE:  cpu time      2.2367: real time      2.2418
    MIXING:  cpu time      0.5410: real time      0.5423
    --------------------------------------------
      LOOP:  cpu time    103.6947: real time    103.9468

 eigenvalue-minimisations  :   166
 total energy-change (2. order) :-0.6820332E+00  (-0.1052032E+00)
 number of electron      38.0000002 magnetization       7.3336487
 augmentation part        0.8772421 magnetization       7.3259387

 Broyden mixing:
  rms(total) = 0.84338E-01    rms(broyden)= 0.84331E-01
  rms(prec ) = 0.84836E-01
  weight for this iteration     100.00

 eigenvalues of (default mixing * dielectric matrix)
  average eigenvalue GAMMA=   1.6089
  4.8115  2.3488  1.8419  0.9952  0.8159  0.6231  0.7175  0.7175

 Free energy of the ion-electron system (eV)
  ---------------------------------------------------
  alpha Z        PSCENC =         0.10622807
  Ewald energy   TEWEN  =      3251.66022136
  -Hartree energ DENC   =     -4252.07603579
  -exchange      EXHF   =         0.00000000
  -V(xc)+E(xc)   XCENC  =       126.53947658
  PAW double counting   =      3308.68495170    -3314.31566160
  entropy T*S    EENTRO =        -0.00000000
  eigenvalues    EBANDS =      -464.01778132
  atomic energy  EATOM  =      1252.10595265
  Solvation  Ecorr_sol  =         1.62633289
  ---------------------------------------------------
  free energy    TOTEN  =       -89.68631546 eV

  energy without entropy =      -89.68631546  energy(sigma->0) =      -89.68631546


--------------------------------------------------------------------------------------------------------




--------------------------------------- Iteration      1(  10)  ---------------------------------------


    --------------------------------------------
      INIT:  cpu time      0.5739: real time      0.5749
  FINALIZE:  cpu time     69.8822: real time     70.0795
    --------------------------------------------
    POTLOK:  cpu time     79.6606: real time     79.8964
    SETDIJ:  cpu time      0.1832: real time      0.1835
    EDDIAG:  cpu time      5.4749: real time      5.4870
  RMM-DIIS:  cpu time     18.3195: real time     18.3603
    ORTHCH:  cpu time      0.3525: real time      0.3533
       DOS:  cpu time      0.0020: real time      0.0020
    CHARGE:  cpu time      2.2353: real time      2.2418
    MIXING:  cpu time      0.5500: real time      0.5512
    --------------------------------------------
      LOOP:  cpu time    106.7780: real time    107.0755

 eigenvalue-minimisations  :   164
 total energy-change (2. order) :-0.6232955E+00  (-0.1429965E-01)
 number of electron      38.0000002 magnetization       6.6885520
 augmentation part        0.8747892 magnetization       6.6847355

 Broyden mixing:
  rms(total) = 0.52276E-01    rms(broyden)= 0.52272E-01
  rms(prec ) = 0.52607E-01
  weight for this iteration     100.00

 eigenvalues of (default mixing * dielectric matrix)
  average eigenvalue GAMMA=   1.6393
  5.7153  2.0513  2.0513  1.1800  0.7871  0.7871  0.6122  0.8103  0.7591

 Free energy of the ion-electron system (eV)
  ---------------------------------------------------
  alpha Z        PSCENC =         0.10622807
  Ewald energy   TEWEN  =      3251.66022136
  -Hartree energ DENC   =     -4253.95296676
  -exchange      EXHF   =         0.00000000
  -V(xc)+E(xc)   XCENC  =       126.03934458
  PAW double counting   =      3332.80717090    -3338.45274223
  entropy T*S    EENTRO =        -0.00000000
  eigenvalues    EBANDS =      -462.66749941
  atomic energy  EATOM  =      1252.10595265
  Solvation  Ecorr_sol  =         2.04467984
  ---------------------------------------------------
  free energy    TOTEN  =       -90.30961099 eV

  energy without entropy =      -90.30961099  energy(sigma->0) =      -90.30961099


--------------------------------------------------------------------------------------------------------




--------------------------------------- Iteration      1(  11)  ---------------------------------------


    --------------------------------------------
      INIT:  cpu time      0.5746: real time      0.5759
  FINALIZE:  cpu time     57.1211: real time     57.2916
    --------------------------------------------
    POTLOK:  cpu time     66.8742: real time     67.0993
    SETDIJ:  cpu time      0.1775: real time      0.1778
    EDDIAG:  cpu time      5.4746: real time      5.4861
  RMM-DIIS:  cpu time     17.7605: real time     17.8002
    ORTHCH:  cpu time      0.3532: real time      0.3542
       DOS:  cpu time      0.0015: real time      0.0015
    CHARGE:  cpu time      2.2391: real time      2.2442
    MIXING:  cpu time      0.5705: real time      0.5717
    --------------------------------------------
      LOOP:  cpu time     93.4511: real time     93.7350

 eigenvalue-minimisations  :   160
 total energy-change (2. order) :-0.6267684E+00  (-0.4873773E-02)
 number of electron      38.0000002 magnetization       5.7313435
 augmentation part        0.8745614 magnetization       5.7288558

 Broyden mixing:
  rms(total) = 0.39559E-01    rms(broyden)= 0.39557E-01
  rms(prec ) = 0.39755E-01
  weight for this iteration     100.00

 eigenvalues of (default mixing * dielectric matrix)
  average eigenvalue GAMMA=   1.7796
  6.7790  2.3369  2.3369  1.6749  0.7902  0.7902  0.8879  0.8879  0.6943  0.6178

 Free energy of the ion-electron system (eV)
  ---------------------------------------------------
  alpha Z        PSCENC =         0.10622807
  Ewald energy   TEWEN  =      3251.66022136
  -Hartree energ DENC   =     -4254.20956588
  -exchange      EXHF   =         0.00000000
  -V(xc)+E(xc)   XCENC  =       125.46360834
  PAW double counting   =      3343.34188430    -3348.99208719
  entropy T*S    EENTRO =        -0.00000000
  eigenvalues    EBANDS =      -463.25451720
  atomic energy  EATOM  =      1252.10595265
  Solvation  Ecorr_sol  =         2.84189613
  ---------------------------------------------------
  free energy    TOTEN  =       -90.93637942 eV

  energy without entropy =      -90.93637942  energy(sigma->0) =      -90.93637942


--------------------------------------------------------------------------------------------------------




--------------------------------------- Iteration      1(  12)  ---------------------------------------


    --------------------------------------------
      INIT:  cpu time      0.5827: real time      0.5860
  FINALIZE:  cpu time     57.1319: real time     57.2829
    --------------------------------------------
    POTLOK:  cpu time     66.9320: real time     67.1255
    SETDIJ:  cpu time      0.1853: real time      0.1857
    EDDIAG:  cpu time      5.5417: real time      5.5532
  RMM-DIIS:  cpu time     17.9921: real time     18.0315
    ORTHCH:  cpu time      0.3510: real time      0.3518
       DOS:  cpu time      0.0039: real time      0.0040
    CHARGE:  cpu time      2.2612: real time      2.2666
    MIXING:  cpu time      0.5930: real time      0.5942
    --------------------------------------------
      LOOP:  cpu time     93.8602: real time     94.1123

 eigenvalue-minimisations  :   161
 total energy-change (2. order) :-0.4634845E+00  (-0.3470436E-02)
 number of electron      38.0000002 magnetization       5.1652814
 augmentation part        0.8737318 magnetization       5.1638597

 Broyden mixing:
  rms(total) = 0.28237E-01    rms(broyden)= 0.28236E-01
  rms(prec ) = 0.28370E-01
  weight for this iteration     100.00

 eigenvalues of (default mixing * dielectric matrix)
  average eigenvalue GAMMA=   1.8420
  7.7254  2.7873  2.0468  2.0468  1.0729  0.9323  0.7734  0.7734  0.8221  0.6578
  0.6243

 Free energy of the ion-electron system (eV)
  ---------------------------------------------------
  alpha Z        PSCENC =         0.10622807
  Ewald energy   TEWEN  =      3251.66022136
  -Hartree energ DENC   =     -4254.00574082
  -exchange      EXHF   =         0.00000000
  -V(xc)+E(xc)   XCENC  =       124.99548752
  PAW double counting   =      3334.12101484    -3339.78339918
  entropy T*S    EENTRO =        -0.00000000
  eigenvalues    EBANDS =      -464.49774373
  atomic energy  EATOM  =      1252.10595265
  Solvation  Ecorr_sol  =         3.89811538
  ---------------------------------------------------
  free energy    TOTEN  =       -91.39986391 eV

  energy without entropy =      -91.39986391  energy(sigma->0) =      -91.39986391


--------------------------------------------------------------------------------------------------------




--------------------------------------- Iteration      1(  13)  ---------------------------------------


    --------------------------------------------
      INIT:  cpu time      0.5811: real time      0.5822
  FINALIZE:  cpu time     57.4105: real time     57.5610
    --------------------------------------------
    POTLOK:  cpu time     67.5645: real time     67.7542
    SETDIJ:  cpu time      0.1789: real time      0.1800
    EDDIAG:  cpu time      5.5229: real time      5.5335
  RMM-DIIS:  cpu time     18.2409: real time     18.2814
    ORTHCH:  cpu time      0.3408: real time      0.3415
       DOS:  cpu time      0.0021: real time      0.0021
    CHARGE:  cpu time      2.2541: real time      2.2590
    MIXING:  cpu time      0.6091: real time      0.6104
    --------------------------------------------
      LOOP:  cpu time     94.7133: real time     94.9622

 eigenvalue-minimisations  :   166
 total energy-change (2. order) :-0.1649571E+00  (-0.1068404E-02)
 number of electron      38.0000002 magnetization       4.3241348
 augmentation part        0.8732612 magnetization       4.3235276

 Broyden mixing:
  rms(total) = 0.23924E-01    rms(broyden)= 0.23924E-01
  rms(prec ) = 0.24021E-01
  weight for this iteration     100.00

 eigenvalues of (default mixing * dielectric matrix)
  average eigenvalue GAMMA=   1.9225
  8.4687  3.3360  2.1666  2.1666  1.4655  0.9474  0.9474  0.7519  0.7519  0.8029
  0.6266  0.6386

 Free energy of the ion-electron system (eV)
  ---------------------------------------------------
  alpha Z        PSCENC =         0.10622807
  Ewald energy   TEWEN  =      3251.66022136
  -Hartree energ DENC   =     -4253.35189211
  -exchange      EXHF   =         0.00000000
  -V(xc)+E(xc)   XCENC  =       124.80096895
  PAW double counting   =      3330.59243073    -3336.25294018
  entropy T*S    EENTRO =        -0.00000000
  eigenvalues    EBANDS =      -465.40595003
  atomic energy  EATOM  =      1252.10595265
  Solvation  Ecorr_sol  =         4.18015954
  ---------------------------------------------------
  free energy    TOTEN  =       -91.56482103 eV

  energy without entropy =      -91.56482103  energy(sigma->0) =      -91.56482103


--------------------------------------------------------------------------------------------------------




--------------------------------------- Iteration      1(  14)  ---------------------------------------


    --------------------------------------------
      INIT:  cpu time      0.5736: real time      0.5746
  FINALIZE:  cpu time     63.8901: real time     64.0712
    --------------------------------------------
    POTLOK:  cpu time     73.6989: real time     73.9148
    SETDIJ:  cpu time      0.1804: real time      0.1807
    EDDIAG:  cpu time      5.5229: real time      5.5329
  RMM-DIIS:  cpu time     17.9254: real time     17.9638
    ORTHCH:  cpu time      0.3243: real time      0.3250
       DOS:  cpu time      0.0015: real time      0.0015
    CHARGE:  cpu time      2.2382: real time      2.2430
    MIXING:  cpu time      0.6327: real time      0.6340
    --------------------------------------------
      LOOP:  cpu time    100.5242: real time    100.7956

 eigenvalue-minimisations  :   160
 total energy-change (2. order) :-0.1170291E+00  (-0.3135961E-03)
 number of electron      38.0000002 magnetization       3.8084663
 augmentation part        0.8734388 magnetization       3.8080438

 Broyden mixing:
  rms(total) = 0.18697E-01    rms(broyden)= 0.18697E-01
  rms(prec ) = 0.18743E-01
  weight for this iteration     100.00

 eigenvalues of (default mixing * dielectric matrix)
  average eigenvalue GAMMA=   2.0073
  9.3267  4.3005  2.1734  2.1734  1.7101  1.0423  1.0423  0.7652  0.7652  0.8123
  0.7347  0.6246  0.6246

 Free energy of the ion-electron system (eV)
  ---------------------------------------------------
  alpha Z        PSCENC =         0.10622807
  Ewald energy   TEWEN  =      3251.66022136
  -Hartree energ DENC   =     -4252.31788562
  -exchange      EXHF   =         0.00000000
  -V(xc)+E(xc)   XCENC  =       124.65939445
  PAW double counting   =      3340.61179137    -3346.26467258
  entropy T*S    EENTRO =        -0.00000000
  eigenvalues    EBANDS =      -466.50052277
  atomic energy  EATOM  =      1252.10595265
  Solvation  Ecorr_sol  =         4.25764293
  ---------------------------------------------------
  free energy    TOTEN  =       -91.68185013 eV

  energy without entropy =      -91.68185013  energy(sigma->0) =      -91.68185013


--------------------------------------------------------------------------------------------------------




--------------------------------------- Iteration      1(  15)  ---------------------------------------


    --------------------------------------------
      INIT:  cpu time      0.5724: real time      0.5731
  FINALIZE:  cpu time     63.7461: real time     63.9024
    --------------------------------------------
    POTLOK:  cpu time     73.5144: real time     73.7085
    SETDIJ:  cpu time      0.1801: real time      0.1804
    EDDIAG:  cpu time      5.5189: real time      5.5297
  RMM-DIIS:  cpu time     17.8035: real time     17.8425
    ORTHCH:  cpu time      0.3471: real time      0.3479
       DOS:  cpu time      0.0017: real time      0.0017
    CHARGE:  cpu time      2.2432: real time      2.2480
    MIXING:  cpu time      0.6577: real time      0.6591
    --------------------------------------------
      LOOP:  cpu time    100.2666: real time    100.5179

 eigenvalue-minimisations  :   164
 total energy-change (2. order) :-0.4401745E-01  (-0.9988745E-04)
 number of electron      38.0000002 magnetization       3.0485715
 augmentation part        0.8735102 magnetization       3.0482149

 Broyden mixing:
  rms(total) = 0.16664E-01    rms(broyden)= 0.16664E-01
  rms(prec ) = 0.16706E-01
  weight for this iteration     100.00

 eigenvalues of (default mixing * dielectric matrix)
  average eigenvalue GAMMA=   2.0501
  9.7551  4.7788  2.1393  2.1393  2.1562  1.4655  0.9808  0.9808  0.7580  0.7580
  0.7987  0.7427  0.6238  0.6238

 Free energy of the ion-electron system (eV)
  ---------------------------------------------------
  alpha Z        PSCENC =         0.10622807
  Ewald energy   TEWEN  =      3251.66022136
  -Hartree energ DENC   =     -4251.97474892
  -exchange      EXHF   =         0.00000000
  -V(xc)+E(xc)   XCENC  =       124.61227861
  PAW double counting   =      3343.99497312    -3349.64818316
  entropy T*S    EENTRO =        -0.00000000
  eigenvalues    EBANDS =      -466.75953085
  atomic energy  EATOM  =      1252.10595265
  Solvation  Ecorr_sol  =         4.17694152
  ---------------------------------------------------
  free energy    TOTEN  =       -91.72586759 eV

  energy without entropy =      -91.72586759  energy(sigma->0) =      -91.72586759


--------------------------------------------------------------------------------------------------------




--------------------------------------- Iteration      1(  16)  ---------------------------------------


    --------------------------------------------
      INIT:  cpu time      0.5747: real time      0.5754
  FINALIZE:  cpu time     60.6431: real time     60.8195
    --------------------------------------------
    POTLOK:  cpu time     70.4507: real time     70.6725
    SETDIJ:  cpu time      0.1787: real time      0.1790
    EDDIAG:  cpu time      5.5127: real time      5.5228
  RMM-DIIS:  cpu time     17.7579: real time     17.7953
    ORTHCH:  cpu time      0.3266: real time      0.3274
       DOS:  cpu time      0.0026: real time      0.0026
    CHARGE:  cpu time      2.2365: real time      2.2410
    MIXING:  cpu time      0.6811: real time      0.6826
    --------------------------------------------
      LOOP:  cpu time     97.1469: real time     97.4232

 eigenvalue-minimisations  :   161
 total energy-change (2. order) :-0.2675938E-01  (-0.8633277E-04)
 number of electron      38.0000002 magnetization       2.3422445
 augmentation part        0.8734882 magnetization       2.3420242

 Broyden mixing:
  rms(total) = 0.13299E-01    rms(broyden)= 0.13299E-01
  rms(prec ) = 0.13334E-01
  weight for this iteration     100.00

 eigenvalues of (default mixing * dielectric matrix)
  average eigenvalue GAMMA=   2.1397
 10.4872  5.6962  2.7298  2.2381  2.2381  1.4942  0.9840  0.9840  0.9638  0.7544
  0.7544  0.8015  0.7242  0.6226  0.6226

 Free energy of the ion-electron system (eV)
  ---------------------------------------------------
  alpha Z        PSCENC =         0.10622807
  Ewald energy   TEWEN  =      3251.66022136
  -Hartree energ DENC   =     -4251.65113136
  -exchange      EXHF   =         0.00000000
  -V(xc)+E(xc)   XCENC  =       124.57383466
  PAW double counting   =      3336.47289340    -3342.13033589
  entropy T*S    EENTRO =        -0.00000000
  eigenvalues    EBANDS =      -466.77696659
  atomic energy  EATOM  =      1252.10595265
  Solvation  Ecorr_sol  =         3.88667674
  ---------------------------------------------------
  free energy    TOTEN  =       -91.75262696 eV

  energy without entropy =      -91.75262696  energy(sigma->0) =      -91.75262696


--------------------------------------------------------------------------------------------------------




--------------------------------------- Iteration      1(  17)  ---------------------------------------


    --------------------------------------------
      INIT:  cpu time      0.5692: real time      0.5700
  FINALIZE:  cpu time     63.7860: real time     63.9421
    --------------------------------------------
    POTLOK:  cpu time     73.5544: real time     73.7514
    SETDIJ:  cpu time      0.1788: real time      0.1791
    EDDIAG:  cpu time      5.5427: real time      5.5529
  RMM-DIIS:  cpu time     17.8484: real time     17.8868
    ORTHCH:  cpu time      0.3338: real time      0.3346
       DOS:  cpu time      0.0016: real time      0.0016
    CHARGE:  cpu time      2.2411: real time      2.2456
    MIXING:  cpu time      0.7069: real time      0.7084
    --------------------------------------------
      LOOP:  cpu time    100.4076: real time    100.6603

 eigenvalue-minimisations  :   160
 total energy-change (2. order) :-0.7508418E-02  (-0.3817643E-04)
 number of electron      38.0000002 magnetization       1.5325869
 augmentation part        0.8735658 magnetization       1.5324515

 Broyden mixing:
  rms(total) = 0.11092E-01    rms(broyden)= 0.11092E-01
  rms(prec ) = 0.11125E-01
  weight for this iteration     100.00

 eigenvalues of (default mixing * dielectric matrix)
  average eigenvalue GAMMA=   2.1856
 11.0691  6.3234  3.2713  2.0461  2.0461  1.5677  1.5677  0.9765  0.9765  0.7527
  0.7527  0.8392  0.8392  0.6993  0.6212  0.6212

 Free energy of the ion-electron system (eV)
  ---------------------------------------------------
  alpha Z        PSCENC =         0.10622807
  Ewald energy   TEWEN  =      3251.66022136
  -Hartree energ DENC   =     -4251.21802252
  -exchange      EXHF   =         0.00000000
  -V(xc)+E(xc)   XCENC  =       124.55730742
  PAW double counting   =      3336.64855890    -3342.30343369
  entropy T*S    EENTRO =        -0.00000000
  eigenvalues    EBANDS =      -466.92377487
  atomic energy  EATOM  =      1252.10595265
  Solvation  Ecorr_sol  =         3.60682729
  ---------------------------------------------------
  free energy    TOTEN  =       -91.76013538 eV

  energy without entropy =      -91.76013538  energy(sigma->0) =      -91.76013538


--------------------------------------------------------------------------------------------------------




--------------------------------------- Iteration      1(  18)  ---------------------------------------


    --------------------------------------------
      INIT:  cpu time      0.5860: real time      0.5872
  FINALIZE:  cpu time     54.2584: real time     54.3794
    --------------------------------------------
    POTLOK:  cpu time     64.1071: real time     64.2645
    SETDIJ:  cpu time      0.1769: real time      0.1773
    EDDIAG:  cpu time      5.5184: real time      5.5288
  RMM-DIIS:  cpu time     17.8969: real time     17.9347
    ORTHCH:  cpu time      0.3628: real time      0.3636
       DOS:  cpu time      0.0060: real time      0.0060
    CHARGE:  cpu time      2.2497: real time      2.2542
    MIXING:  cpu time      0.7326: real time      0.7341
    --------------------------------------------
      LOOP:  cpu time     91.0504: real time     91.2632

 eigenvalue-minimisations  :   160
 total energy-change (2. order) :-0.8946907E-02  (-0.5827506E-04)
 number of electron      38.0000002 magnetization       0.7602575
 augmentation part        0.8736472 magnetization       0.7601889

 Broyden mixing:
  rms(total) = 0.81301E-02    rms(broyden)= 0.81301E-02
  rms(prec ) = 0.81737E-02
  weight for this iteration     100.00

 eigenvalues of (default mixing * dielectric matrix)
  average eigenvalue GAMMA=   2.4331
 13.2152  7.8176  4.2474  2.2337  2.2337  2.1954  1.4129  1.0609  0.9914  0.9914
  0.7533  0.7533  0.7720  0.7720  0.6717  0.6162  0.6245

 Free energy of the ion-electron system (eV)
  ---------------------------------------------------
  alpha Z        PSCENC =         0.10622807
  Ewald energy   TEWEN  =      3251.66022136
  -Hartree energ DENC   =     -4251.04387055
  -exchange      EXHF   =         0.00000000
  -V(xc)+E(xc)   XCENC  =       124.55280316
  PAW double counting   =      3338.21116531    -3343.86462414
  entropy T*S    EENTRO =        -0.00000000
  eigenvalues    EBANDS =      -466.86313953
  atomic energy  EATOM  =      1252.10595265
  Solvation  Ecorr_sol  =         3.36618137
  ---------------------------------------------------
  free energy    TOTEN  =       -91.76908229 eV

  energy without entropy =      -91.76908229  energy(sigma->0) =      -91.76908229


--------------------------------------------------------------------------------------------------------




--------------------------------------- Iteration      1(  19)  ---------------------------------------


    --------------------------------------------
      INIT:  cpu time      0.5785: real time      0.5794
  FINALIZE:  cpu time     57.5179: real time     57.6756
    --------------------------------------------
    POTLOK:  cpu time     67.3066: real time     67.5003
    SETDIJ:  cpu time      0.1812: real time      0.1815
    EDDIAG:  cpu time      5.5367: real time      5.5467
  RMM-DIIS:  cpu time     17.9372: real time     17.9757
    ORTHCH:  cpu time      0.3446: real time      0.3453
       DOS:  cpu time      0.0016: real time      0.0016
    CHARGE:  cpu time      2.2656: real time      2.2706
    MIXING:  cpu time      0.7651: real time      0.7667
    --------------------------------------------
      LOOP:  cpu time     94.3386: real time     94.5885

 eigenvalue-minimisations  :   160
 total energy-change (2. order) : 0.1039441E-01  (-0.6927104E-04)
 number of electron      38.0000002 magnetization       0.4003330
 augmentation part        0.8736514 magnetization       0.4003034

 Broyden mixing:
  rms(total) = 0.49665E-02    rms(broyden)= 0.49664E-02
  rms(prec ) = 0.50270E-02
  weight for this iteration     100.00

 eigenvalues of (default mixing * dielectric matrix)
  average eigenvalue GAMMA=   2.5707
 15.6826  8.5725  4.6334  2.3412  2.1907  2.1907  1.3848  1.3848  0.9903  0.9903
  0.9587  0.7540  0.7540  0.7839  0.7567  0.6628  0.6143  0.6265

 Free energy of the ion-electron system (eV)
  ---------------------------------------------------
  alpha Z        PSCENC =         0.10622807
  Ewald energy   TEWEN  =      3251.66022136
  -Hartree energ DENC   =     -4251.13553333
  -exchange      EXHF   =         0.00000000
  -V(xc)+E(xc)   XCENC  =       124.57083454
  PAW double counting   =      3335.86680154    -3341.52334296
  entropy T*S    EENTRO =        -0.00000000
  eigenvalues    EBANDS =      -466.61820509
  atomic energy  EATOM  =      1252.10595265
  Solvation  Ecorr_sol  =         3.20835535
  ---------------------------------------------------
  free energy    TOTEN  =       -91.75868788 eV

  energy without entropy =      -91.75868788  energy(sigma->0) =      -91.75868788


--------------------------------------------------------------------------------------------------------




--------------------------------------- Iteration      1(  20)  ---------------------------------------


    --------------------------------------------
      INIT:  cpu time      0.5784: real time      0.5796
  FINALIZE:  cpu time     57.5223: real time     57.6656
    --------------------------------------------
    POTLOK:  cpu time     67.3127: real time     67.4911
    SETDIJ:  cpu time      0.1798: real time      0.1801
    EDDIAG:  cpu time      5.5400: real time      5.5520
  RMM-DIIS:  cpu time     17.9204: real time     17.9600
    ORTHCH:  cpu time      0.3574: real time      0.3582
       DOS:  cpu time      0.0016: real time      0.0016
    CHARGE:  cpu time      2.2387: real time      2.2446
    MIXING:  cpu time      0.7969: real time      0.7985
    --------------------------------------------
      LOOP:  cpu time     94.3475: real time     94.5862

 eigenvalue-minimisations  :   160
 total energy-change (2. order) :-0.8224237E-02  (-0.3811853E-04)
 number of electron      38.0000002 magnetization       0.1277887
 augmentation part        0.8735993 magnetization       0.1277714

 Broyden mixing:
  rms(total) = 0.34506E-02    rms(broyden)= 0.34506E-02
  rms(prec ) = 0.35032E-02
  weight for this iteration     100.00

 eigenvalues of (default mixing * dielectric matrix)
  average eigenvalue GAMMA=   2.8632
 20.5862  9.2368  5.1436  2.9042  2.2126  2.2126  1.9416  1.3415  1.1182  0.9891
  0.9891  0.7556  0.7556  0.8036  0.8036  0.7181  0.6134  0.6459  0.6297

 Free energy of the ion-electron system (eV)
  ---------------------------------------------------
  alpha Z        PSCENC =         0.10622807
  Ewald energy   TEWEN  =      3251.66022136
  -Hartree energ DENC   =     -4251.27180658
  -exchange      EXHF   =         0.00000000
  -V(xc)+E(xc)   XCENC  =       124.56572763
  PAW double counting   =      3336.06522095    -3341.72268331
  entropy T*S    EENTRO =        -0.00000000
  eigenvalues    EBANDS =      -466.50462412
  atomic energy  EATOM  =      1252.10595265
  Solvation  Ecorr_sol  =         3.22885125
  ---------------------------------------------------
  free energy    TOTEN  =       -91.76691211 eV

  energy without entropy =      -91.76691211  energy(sigma->0) =      -91.76691211


--------------------------------------------------------------------------------------------------------




--------------------------------------- Iteration      1(  21)  ---------------------------------------


    --------------------------------------------
      INIT:  cpu time      0.5791: real time      0.5802
  FINALIZE:  cpu time     57.3768: real time     57.5249
    --------------------------------------------
    POTLOK:  cpu time     67.1989: real time     67.3908
    SETDIJ:  cpu time      0.1796: real time      0.1800
    EDDIAG:  cpu time      5.5031: real time      5.5157
  RMM-DIIS:  cpu time     17.9126: real time     17.9532
    ORTHCH:  cpu time      0.3486: real time      0.3494
       DOS:  cpu time      0.0015: real time      0.0015
    CHARGE:  cpu time      2.2429: real time      2.2479
    MIXING:  cpu time      0.8303: real time      0.8321
    --------------------------------------------
      LOOP:  cpu time     94.2177: real time     94.4707

 eigenvalue-minimisations  :   157
 total energy-change (2. order) :-0.1685731E-01  (-0.1836077E-04)
 number of electron      38.0000002 magnetization       0.0703060
 augmentation part        0.8735813 magnetization       0.0702937

 Broyden mixing:
[...]
  -Hartree energ DENC   =     -4254.42040967
  -exchange      EXHF   =         0.00000000
  -V(xc)+E(xc)   XCENC  =       124.58471977
  PAW double counting   =      3351.53441499    -3357.19631445
  entropy T*S    EENTRO =        -0.00000000
  eigenvalues    EBANDS =      -466.68527684
  atomic energy  EATOM  =      1252.10595265
  Solvation  Ecorr_sol  =         3.51377656
  ---------------------------------------------------
  free energy    TOTEN  =       -91.80963345 eV

  energy without entropy =      -91.80963345  energy(sigma->0) =      -91.80963345


--------------------------------------------------------------------------------------------------------




--------------------------------------- Iteration     14(   2)  ---------------------------------------


    --------------------------------------------
      INIT:  cpu time      0.5695: real time      0.5700
  FINALIZE:  cpu time    132.3264: real time    132.6343
    --------------------------------------------
    POTLOK:  cpu time    142.1790: real time    142.5291
    SETDIJ:  cpu time      0.1792: real time      0.1795
    EDDIAG:  cpu time      5.5526: real time      5.5632
  RMM-DIIS:  cpu time     17.2107: real time     17.2480
    ORTHCH:  cpu time      0.3350: real time      0.3358
       DOS:  cpu time      0.0014: real time      0.0014
    CHARGE:  cpu time      2.2393: real time      2.2439
    MIXING:  cpu time      0.4688: real time      0.4700
    --------------------------------------------
      LOOP:  cpu time    168.1661: real time    168.5709

 eigenvalue-minimisations  :   156
 total energy-change (2. order) : 0.1008625E-04  (-0.6243988E-05)
 number of electron      38.0000001 magnetization       0.0000000
 augmentation part        0.8750448 magnetization       0.0000000

 Broyden mixing:
  rms(total) = 0.12374E-02    rms(broyden)= 0.12372E-02
  rms(prec ) = 0.12627E-02
  weight for this iteration     100.00

 eigenvalues of (default mixing * dielectric matrix)
  average eigenvalue GAMMA=   1.7710
  1.7710

 Free energy of the ion-electron system (eV)
  ---------------------------------------------------
  alpha Z        PSCENC =         0.10622807
  Ewald energy   TEWEN  =      3254.64727547
  -Hartree energ DENC   =     -4254.35791034
  -exchange      EXHF   =         0.00000000
  -V(xc)+E(xc)   XCENC  =       124.58268836
  PAW double counting   =      3350.86343054    -3356.52463774
  entropy T*S    EENTRO =        -0.00000000
  eigenvalues    EBANDS =      -466.74719678
  atomic energy  EATOM  =      1252.10595265
  Solvation  Ecorr_sol  =         3.51454641
  ---------------------------------------------------
  free energy    TOTEN  =       -91.80962336 eV

  energy without entropy =      -91.80962336  energy(sigma->0) =      -91.80962336


--------------------------------------------------------------------------------------------------------




--------------------------------------- Iteration     14(   3)  ---------------------------------------


    --------------------------------------------
      INIT:  cpu time      0.5711: real time      0.5720
  FINALIZE:  cpu time    129.0737: real time    129.3742
    --------------------------------------------
    POTLOK:  cpu time    138.8867: real time    139.2240
    SETDIJ:  cpu time      0.1804: real time      0.1808
    EDDIAG:  cpu time      5.5342: real time      5.5445
  RMM-DIIS:  cpu time     16.2160: real time     16.2510
    ORTHCH:  cpu time      0.3543: real time      0.3551
       DOS:  cpu time      0.0038: real time      0.0038
    --------------------------------------------
      LOOP:  cpu time    161.1754: real time    161.5592

 eigenvalue-minimisations  :   152
 total energy-change (2. order) : 0.2053693E-05  (-0.3835543E-05)
 number of electron      38.0000001 magnetization       0.0000000
 augmentation part        0.8750448 magnetization       0.0000000

 Free energy of the ion-electron system (eV)
  ---------------------------------------------------
  alpha Z        PSCENC =         0.10622807
  Ewald energy   TEWEN  =      3254.64727547
  -Hartree energ DENC   =     -4254.29465064
  -exchange      EXHF   =         0.00000000
  -V(xc)+E(xc)   XCENC  =       124.58068874
  PAW double counting   =      3350.07044119    -3355.73091566
  entropy T*S    EENTRO =        -0.00000000
  eigenvalues    EBANDS =      -466.81035400
  atomic energy  EATOM  =      1252.10595265
  Solvation  Ecorr_sol  =         3.51571287
  ---------------------------------------------------
  free energy    TOTEN  =       -91.80962131 eV

  energy without entropy =      -91.80962131  energy(sigma->0) =      -91.80962131


--------------------------------------------------------------------------------------------------------




 average (electrostatic) potential at core
  the test charge radii are     0.6991  0.5201
  (the norm of the test charge is              1.0000)
       1 -59.0200       2 -59.0157       3 -59.0200       4 -59.1022       5 -59.6320
       6 -59.1024       7 -59.1096       8 -58.8386       9 -42.3267      10 -43.4483
      11 -42.3268      12 -42.2850      13 -42.2803      14 -42.2850
 
 
 
 E-fermi :  -5.7497     XC(G=0):  -0.0354     alpha+bet : -0.0151

 Fermi energy:        -5.7496928512

 spin component 1

 k-point     1 :       0.0000    0.0000    0.0000
  band No.  band energies     occupation 
      1     -21.6307      1.00000
      2     -19.5533      1.00000
      3     -18.6955      1.00000
      4     -18.0455      1.00000
      5     -15.5572      1.00000
      6     -15.1340      1.00000
      7     -13.6340      1.00000
      8     -12.6986      1.00000
      9     -11.7329      1.00000
     10     -11.3540      1.00000
     11     -10.6906      1.00000
     12     -10.4132      1.00000
     13      -9.6140      1.00000
     14      -8.7528      1.00000
     15      -8.5315      1.00000
     16      -7.8363      1.00000
     17      -6.9040      1.00000
     18      -6.6193      1.00000
     19      -6.0076      1.00000
     20      -2.0636      0.00000
     21      -1.4918      0.00000
     22      -0.5115      0.00000
     23      -0.2295      0.00000
     24      -0.0949      0.00000
     25       0.0157      0.00000
     26       0.0178      0.00000
     27       0.0767      0.00000
     28       0.1001      0.00000
     29       0.1006      0.00000
     30       0.1153      0.00000
     31       0.1195      0.00000
     32       0.1287      0.00000
     33       0.1452      0.00000
     34       0.1904      0.00000
     35       0.1914      0.00000
     36       0.1920      0.00000
     37       0.1939      0.00000
     38       0.1954      0.00000
     39       0.1960      0.00000
     40       0.1970      0.00000
 Fermi energy:        -5.7496928512

 spin component 2

 k-point     1 :       0.0000    0.0000    0.0000
  band No.  band energies     occupation 
      1     -21.6307      1.00000
      2     -19.5533      1.00000
      3     -18.6955      1.00000
      4     -18.0455      1.00000
      5     -15.5572      1.00000
      6     -15.1340      1.00000
      7     -13.6340      1.00000
      8     -12.6986      1.00000
      9     -11.7329      1.00000
     10     -11.3540      1.00000
     11     -10.6906      1.00000
     12     -10.4132      1.00000
     13      -9.6140      1.00000
     14      -8.7528      1.00000
     15      -8.5315      1.00000
     16      -7.8363      1.00000
     17      -6.9040      1.00000
     18      -6.6193      1.00000
     19      -6.0076      1.00000
     20      -2.0636      0.00000
     21      -1.4918      0.00000
     22      -0.5116      0.00000
     23      -0.2295      0.00000
     24      -0.0944      0.00000
     25       0.0158      0.00000
     26       0.0176      0.00000
     27       0.0767      0.00000
     28       0.1001      0.00000
     29       0.1006      0.00000
     30       0.1154      0.00000
     31       0.1196      0.00000
     32       0.1289      0.00000
     33       0.1451      0.00000
     34       0.1906      0.00000
     35       0.1919      0.00000
     36       0.1923      0.00000
     37       0.1942      0.00000
     38       0.1952      0.00000
     39       0.1960      0.00000
     40       0.1970      0.00000


--------------------------------------------------------------------------------------------------------


 soft charge-density along one line, spin component           1
         0         1         2         3         4         5         6         7         8         9
 total charge-density along one line
 
 soft charge-density along one line, spin component           2
         0         1         2         3         4         5         6         7         8         9
 total charge-density along one line
 
 pseudopotential strength for first ion, spin component:           1
 10.270  13.659   0.001   0.000  -0.001  -0.003   0.000   0.002
 13.659  18.164   0.001   0.000  -0.001  -0.004   0.000   0.003
  0.001   0.001  -4.391   0.000  -0.001   8.589  -0.000   0.001
  0.000   0.000   0.000  -4.386  -0.000  -0.000   8.583   0.000
 -0.001  -0.001  -0.001  -0.000  -4.392   0.001   0.000   8.591
 -0.003  -0.004   8.589  -0.000   0.001 -18.939   0.000  -0.001
  0.000   0.000  -0.000   8.583   0.000   0.000 -18.937  -0.000
  0.002   0.003   0.001   0.000   8.591  -0.001  -0.000 -18.942
 pseudopotential strength for first ion, spin component:           2
 10.270  13.659   0.001  -0.000  -0.001  -0.003   0.000   0.002
 13.659  18.164   0.001  -0.000  -0.001  -0.004   0.000   0.003
  0.001   0.001  -4.391   0.000  -0.001   8.589  -0.000   0.001
 -0.000  -0.000   0.000  -4.386  -0.000  -0.000   8.583   0.000
 -0.001  -0.001  -0.001  -0.000  -4.392   0.001   0.000   8.591
 -0.003  -0.004   8.589  -0.000   0.001 -18.939   0.000  -0.001
  0.000   0.000  -0.000   8.583   0.000   0.000 -18.937  -0.000
  0.002   0.003   0.001   0.000   8.591  -0.001  -0.000 -18.942
 total augmentation occupancy for first ion, spin component:           1
  7.864  -3.416   0.206  -0.000  -0.132   0.041  -0.000  -0.026
 -3.416   1.527  -0.132   0.000   0.086  -0.024   0.000   0.015
  0.206  -0.132   1.781  -0.000   0.044   0.156  -0.000   0.008
 -0.000   0.000  -0.000   1.142   0.000  -0.000   0.066   0.000
 -0.132   0.086   0.044   0.000   1.832   0.008   0.000   0.167
  0.041  -0.024   0.156  -0.000   0.008   0.015  -0.000   0.001
 -0.000   0.000  -0.000   0.066   0.000  -0.000   0.004   0.000
 -0.026   0.015   0.008   0.000   0.167   0.001   0.000   0.016
 total augmentation occupancy for first ion, spin component:           2
 -0.000   0.000  -0.000  -0.000   0.000  -0.000   0.000   0.000
  0.000  -0.000   0.000   0.000  -0.000   0.000   0.000  -0.000
 -0.000   0.000  -0.000  -0.000   0.000   0.000   0.000   0.000
 -0.000   0.000  -0.000   0.000   0.000  -0.000   0.000  -0.000
  0.000  -0.000   0.000   0.000  -0.000   0.000   0.000  -0.000
 -0.000   0.000   0.000  -0.000   0.000   0.000   0.000   0.000
  0.000   0.000   0.000   0.000   0.000   0.000   0.000   0.000
  0.000  -0.000   0.000  -0.000  -0.000   0.000   0.000  -0.000


------------------------ aborting loop because EDIFF is reached ----------------------------------------


    CHARGE:  cpu time      2.2501: real time      2.2550
    FORLOC:  cpu time      0.4425: real time      0.4432
    FORNL :  cpu time      8.9748: real time      8.9947
    STRESS:  cpu time     27.0080: real time     27.0690
    FORCOR:  cpu time      8.4968: real time      8.5170
    FORHAR:  cpu time      1.3086: real time      1.3141
    MIXING:  cpu time      0.2213: real time      0.2218
    OFIELD:  cpu time      0.0000: real time      0.0000

 ---------------------------------------------------------------------------------------------

         DFTD3 V3.0 Rev 1        
 Edisp (eV)   -0.11513

 E6    (eV) :    -0.0504
 E8    (eV) :    -0.0647
 % E8        : 56.21
    FORVDW:  cpu time      0.0051: real time      0.0051

  FORCE on cell =-STRESS in cart. coord.  units (eV):
  Direction    XX          YY          ZZ          XY          YZ          ZX
  --------------------------------------------------------------------------------------
  Alpha Z     0.10623     0.10623     0.10623
  Ewald    2253.84321  1248.20745  -247.40384    -0.08081    -0.00003    -0.00985
  Hartree  2176.85385  1487.25157   586.86933    -0.04745    -0.00001     0.00381
  E(xc)    -134.95934  -136.46918  -139.71662    -0.00014    -0.00000    -0.00012
  Local   -4755.73444 -3100.53172  -762.19441     0.12210     0.00004     0.00175
  n-local   -43.73700   -45.28030   -41.38012    -0.00016    -0.00000    -0.00009
  augment    -2.46955    -2.17485    -1.92377     0.00005     0.00000     0.00004
  Kinetic   506.08784   548.88534   605.50775     0.00784     0.00000     0.00447
  Fock        0.00000     0.00000     0.00000     0.00000     0.00000     0.00000
  vdW        -0.02062     0.02030    -0.00000     0.00001     0.00000     0.00000
  -------------------------------------------------------------------------------------
  Total      -0.02983     0.01485    -0.13546     0.00145    -0.00000     0.00001
  in kB      -0.00075     0.00037    -0.00339     0.00004    -0.00000     0.00000
  external pressure =       -0.00 kB  Pullay stress =        0.00 kB


 VOLUME and BASIS-vectors are now :
 -----------------------------------------------------------------------------
  energy-cutoff  :      500.00
  volume of cell :    64000.00
      direct lattice vectors                 reciprocal lattice vectors
    40.000000000  0.000000000  0.000000000     0.025000000  0.000000000  0.000000000
     0.000000000 40.000000000  0.000000000     0.000000000  0.025000000  0.000000000
     0.000000000  0.000000000 40.000000000     0.000000000  0.000000000  0.025000000

  length of vectors
    40.000000000 40.000000000 40.000000000     0.025000000  0.025000000  0.025000000


 FORCES acting on ions
    electron-ion (+dipol)            ewald-force                    non-local-force                 convergence-correction
 -----------------------------------------------------------------------------------------------
   -.111E+03 0.160E+03 -.308E-02   0.112E+03 -.161E+03 0.308E-02   -.742E+00 0.947E+00 -.283E-04   0.183E-02 -.785E-03 -.408E-05
   -.197E+03 -.435E-02 -.456E-02   0.198E+03 0.418E-02 0.458E-02   -.120E+01 0.322E-04 -.170E-04   0.259E-02 0.246E-05 -.283E-05
   -.111E+03 -.160E+03 -.309E-02   0.112E+03 0.161E+03 0.309E-02   -.742E+00 -.947E+00 -.281E-04   0.165E-02 0.825E-03 -.405E-05
   0.479E+02 -.171E+03 0.286E-02   -.481E+02 0.173E+03 -.299E-02   0.247E+00 -.152E+01 0.119E-03   -.280E-02 0.109E-03 -.563E-05
   0.797E+02 0.235E-01 -.341E-02   -.767E+02 -.245E-01 0.368E-02   -.302E+01 -.594E-03 -.105E-02   0.155E-04 0.200E-03 0.515E-06
   0.479E+02 0.171E+03 0.287E-02   -.481E+02 -.173E+03 -.301E-02   0.247E+00 0.152E+01 0.122E-03   -.272E-02 -.160E-04 -.542E-05
   0.741E+02 0.416E-01 0.265E-01   -.728E+02 -.469E-01 -.246E-01   -.131E+01 0.555E-02 -.165E-02   -.103E-02 0.880E-04 -.826E-05
   0.208E+03 -.690E-01 0.101E-01   -.211E+03 0.731E-01 -.102E-01   0.285E+01 -.476E-02 0.598E-03   -.327E-02 0.284E-04 0.315E-05
   0.324E+02 0.770E+02 0.223E-02   -.353E+02 -.821E+02 -.238E-02   0.294E+01 0.504E+01 0.165E-03   -.322E-03 -.201E-03 -.186E-05
   0.711E+02 0.139E-01 -.253E-01   -.773E+02 -.153E-01 0.277E-01   0.618E+01 0.210E-02 -.299E-02   0.188E-03 0.893E-05 -.459E-05
   0.324E+02 -.770E+02 0.226E-02   -.353E+02 0.821E+02 -.241E-02   0.294E+01 -.504E+01 0.167E-03   -.302E-03 0.142E-03 -.190E-05
   -.437E+02 -.712E+02 -.129E-02   0.466E+02 0.763E+02 0.135E-02   -.289E+01 -.503E+01 -.957E-04   0.266E-03 0.273E-03 -.713E-06
   -.833E+02 -.362E-02 -.710E-03   0.891E+02 0.386E-02 0.774E-03   -.581E+01 -.308E-03 -.218E-04   0.908E-04 -.159E-06 -.638E-07
   -.437E+02 0.712E+02 -.129E-02   0.466E+02 -.763E+02 0.135E-02   -.289E+01 0.503E+01 -.958E-04   0.271E-03 -.267E-03 -.733E-06
 -----------------------------------------------------------------------------------------------
   0.322E+01 -.211E-02 0.408E-02   -.121E-12 0.171E-12 -.434E-18   -.320E+01 0.166E-02 -.480E-02   -.355E-02 0.409E-03 -.365E-04
 
 
 POSITION                                       TOTAL-FORCE (eV/Angst)
 -----------------------------------------------------------------------------------
     21.37939     18.79040     19.99999         0.006433     -0.000490      0.000024
     22.08114     20.00001     20.00000        -0.012274     -0.000132      0.000057
     21.37930     21.20956     19.99999         0.006504      0.000813      0.000024
     19.98512     21.21478     19.99995         0.003901      0.005407      0.000035
     19.26870     19.99993     19.99995         0.005609     -0.001473     -0.000726
     19.98521     18.78507     19.99995         0.003676     -0.005203      0.000037
     17.84473     19.99999     19.99988         0.006620      0.000297      0.000235
     16.62984     20.00036     19.99998        -0.007814     -0.000659      0.000553
     19.43610     17.84350     19.99992        -0.005211     -0.004957      0.000065
     15.55964     20.00003     20.00047         0.002360      0.000717     -0.000500
     19.43590     22.15626     19.99992        -0.005230      0.005770      0.000066
     21.92171     22.15594     20.00000        -0.006769     -0.003993      0.000017
     23.17131     20.00007     20.00001         0.009228     -0.000067      0.000097
     21.92191     17.84408     20.00000        -0.007032      0.003969      0.000017
 -----------------------------------------------------------------------------------
    total drift:                                0.014223     -0.000038     -0.000764


--------------------------------------------------------------------------------------------------------



  FREE ENERGIE OF THE ION-ELECTRON SYSTEM (eV)
  ---------------------------------------------------
  free  energy   TOTEN  =       -91.92474906 eV

  energy  without entropy=      -91.92474906  energy(sigma->0) =      -91.92474906
 
 d Force = 0.7858650E-04[ 0.520E-05, 0.152E-03]  d Energy = 0.7967447E-04-0.109E-05
 d Force = 0.7092604E+00[ 0.709E+00, 0.710E+00]  d Ewald  = 0.7092604E+00 0.416E-07


--------------------------------------------------------------------------------------------------------


    --------------------------------------------
      INIT:  cpu time      0.5643: real time      0.5655
  FINALIZE:  cpu time     96.5458: real time     96.8035
    --------------------------------------------
    POTLOK:  cpu time    106.5511: real time    106.8345


--------------------------------------------------------------------------------------------------------




--------------------------------------------------------------------------------------------------------


  
 reached required accuracy - stopping structural energy minimisation
 writing wavefunctions
     LOOP+:  cpu time    671.4319: real time    673.5977
    4ORBIT:  cpu time      0.0000: real time      0.0000

 total amount of memory used by VASP MPI-rank0   654176. kBytes
=======================================================================

   base      :      30000. kBytes
   nonlr-proj:        870. kBytes
   fftplans  :     167689. kBytes
   grid      :     429606. kBytes
   one-center:         12. kBytes
   wavefun   :      25999. kBytes
 
  
  
 General timing and accounting informations for this job:
 ========================================================
  
                  Total CPU time used (sec):    11930.153
                            User time (sec):    11262.016
                          System time (sec):      668.137
                         Elapsed time (sec):    11961.945
  
                   Maximum memory used (kb):     2287904.
                   Average memory used (kb):          N/A
  
                          Minor page faults:    112631443
                          Major page faults:           15
                 Voluntary context switches:       653685
