 vasp.5.4.4.18Apr17-6-g9f103f2a35 (build May 01 2020 14:57:12) complex          
  
 executed on             LinuxIFC date 2024.10.08  05:48:37
 running on   60 total cores
 distrk:  each k-point on   60 cores,    1 groups
 distr:  one band on NCORES_PER_BAND=  10 cores,    6 groups


--------------------------------------------------------------------------------------------------------


 INCAR:
 POTCAR:    PAW_PBE C 08Apr2002                   
 POTCAR:    PAW_PBE N 08Apr2002                   
 POTCAR:    PAW_PBE H 15Jun2001                   
 POTCAR:    PAW_PBE C 08Apr2002                   
   VRHFIN =C: s2p2                                                              
   LEXCH  = PE                                                                  
   EATOM  =   147.1560 eV,   10.8157 Ry                                         
                                                                                
   TITEL  = PAW_PBE C 08Apr2002                                                 
   LULTRA =        F    use ultrasoft PP ?                                      
   IUNSCR =        1    unscreen: 0-lin 1-nonlin 2-no                           
   RPACOR =    1.200    partial core radius                                     
   POMASS =   12.011; ZVAL   =    4.000    mass and valenz                      
   RCORE  =    1.500    outmost cutoff radius                                   
   RWIGS  =    1.630; RWIGS  =    0.863    wigner-seitz radius (au A)           
   ENMAX  =  400.000; ENMIN  =  300.000 eV                                      
   ICORE  =        2    local potential                                         
   LCOR   =        T    correct aug charges                                     
   LPAW   =        T    paw PP                                                  
   EAUG   =  644.873                                                            
   DEXC   =    0.000                                                            
   RMAX   =    1.529    core radius for proj-oper                               
   RAUG   =    1.300    factor for augmentation sphere                          
   RDEP   =    1.501    radius for radial grids                                 
   RDEPT  =    1.300    core radius for aug-charge                              
                                                                                
   Atomic configuration                                                         
    4 entries                                                                   
     n  l   j            E        occ.                                          
     1  0  0.50      -273.3789   2.0000                                         
     2  0  0.50       -13.7508   2.0000                                         
     2  1  0.50        -5.2854   2.0000                                         
     3  2  1.50        -5.4423   0.0000                                         
   Description                                                                  
     l       E           TYP  RCUT    TYP  RCUT                                 
     0    -13.7508458     23  1.200                                             
     0     -8.2022199     23  1.200                                             
     1     -5.2854383     23  1.500                                             
     1     34.0145650     23  1.500                                             
     2     -5.4423304      7  1.500                                             
  local pseudopotential read in
  partial core-charges read in
  partial kinetic energy density read in
  atomic valenz-charges read in
  non local Contribution for L=           0  read in
    real space projection operators read in
  non local Contribution for L=           0  read in
    real space projection operators read in
  non local Contribution for L=           1  read in
    real space projection operators read in
  non local Contribution for L=           1  read in
    real space projection operators read in
    PAW grid and wavefunctions read in
 
   number of l-projection  operators is LMAX  =           4
   number of lm-projection operators is LMMAX =           8
 
 POTCAR:    PAW_PBE N 08Apr2002                   
   VRHFIN =N: s2p3                                                              
   LEXCH  = PE                                                                  
   EATOM  =   264.5486 eV,   19.4438 Ry                                         
                                                                                
   TITEL  = PAW_PBE N 08Apr2002                                                 
   LULTRA =        F    use ultrasoft PP ?                                      
   IUNSCR =        1    unscreen: 0-lin 1-nonlin 2-no                           
   RPACOR =    1.200    partial core radius                                     
   POMASS =   14.001; ZVAL   =    5.000    mass and valenz                      
   RCORE  =    1.500    outmost cutoff radius                                   
   RWIGS  =    1.400; RWIGS  =    0.741    wigner-seitz radius (au A)           
   ENMAX  =  400.000; ENMIN  =  300.000 eV                                      
   ICORE  =        2    local potential                                         
   LCOR   =        T    correct aug charges                                     
   LPAW   =        T    paw PP                                                  
   EAUG   =  627.112                                                            
   DEXC   =    0.000                                                            
   RMAX   =    1.529    core radius for proj-oper                               
   RAUG   =    1.300    factor for augmentation sphere                          
   RDEP   =    1.514    radius for radial grids                                 
   RDEPT  =    1.338    core radius for aug-charge                              
                                                                                
   Atomic configuration                                                         
    4 entries                                                                   
     n  l   j            E        occ.                                          
     1  0  0.50      -384.7179   2.0000                                         
     2  0  0.50       -18.5828   2.0000                                         
     2  1  0.50        -7.0898   3.0000                                         
     3  2  1.50        -6.8029   0.0000                                         
   Description                                                                  
     l       E           TYP  RCUT    TYP  RCUT                                 
     0    -18.5828119     23  1.200                                             
     0    -13.5018863     23  1.200                                             
     1     -7.0897853     23  1.500                                             
     1      9.5240782     23  1.500                                             
     2     -6.8029130      7  1.500                                             
  local pseudopotential read in
  partial core-charges read in
  partial kinetic energy density read in
  atomic valenz-charges read in
  non local Contribution for L=           0  read in
    real space projection operators read in
  non local Contribution for L=           0  read in
    real space projection operators read in
  non local Contribution for L=           1  read in
    real space projection operators read in
  non local Contribution for L=           1  read in
    real space projection operators read in
    PAW grid and wavefunctions read in
 
   number of l-projection  operators is LMAX  =           4
   number of lm-projection operators is LMMAX =           8
 
 POTCAR:    PAW_PBE H 15Jun2001                   
   VRHFIN =H: ultrasoft test                                                    
   LEXCH  = PE                                                                  
   EATOM  =    12.4884 eV,    0.9179 Ry                                         
                                                                                
   TITEL  = PAW_PBE H 15Jun2001                                                 
   LULTRA =        F    use ultrasoft PP ?                                      
   IUNSCR =        0    unscreen: 0-lin 1-nonlin 2-no                           
   RPACOR =    0.000    partial core radius                                     
   POMASS =    1.000; ZVAL   =    1.000    mass and valenz                      
   RCORE  =    1.100    outmost cutoff radius                                   
   RWIGS  =    0.700; RWIGS  =    0.370    wigner-seitz radius (au A)           
   ENMAX  =  250.000; ENMIN  =  200.000 eV                                      
   RCLOC  =    0.701    cutoff for local pot                                    
   LCOR   =        T    correct aug charges                                     
   LPAW   =        T    paw PP                                                  
   EAUG   =  400.000                                                            
   RMAX   =    1.123    core radius for proj-oper                               
   RAUG   =    1.200    factor for augmentation sphere                          
   RDEP   =    1.112    radius for radial grids                                 
   RDEPT  =    0.926    core radius for aug-charge                              
                                                                                
   Atomic configuration                                                         
    2 entries                                                                   
     n  l   j            E        occ.                                          
     1  0  0.50        -6.4927   1.0000                                         
     2  1  0.50        -3.4015   0.0000                                         
   Description                                                                  
     l       E           TYP  RCUT    TYP  RCUT                                 
     0     -6.4927494     23  1.100                                             
     0      6.8029130     23  1.100                                             
     1     -4.0817478     23  1.100                                             
  local pseudopotential read in
  atomic valenz-charges read in
  non local Contribution for L=           0  read in
    real space projection operators read in
  non local Contribution for L=           0  read in
    real space projection operators read in
  non local Contribution for L=           1  read in
    real space projection operators read in
    PAW grid and wavefunctions read in
 
   number of l-projection  operators is LMAX  =           3
   number of lm-projection operators is LMMAX =           5
 
 Optimization of the real space projectors (new method)

 maximal supplied QI-value         = 25.13
 optimisation between [QCUT,QGAM] = [ 11.31, 22.87] = [ 35.82,146.48] Ry 
 Optimized for a Real-space Cutoff    1.03 Angstroem

   l    n(q)    QCUT    max X(q) W(low)/X(q) W(high)/X(q)  e(spline) 
   0      7    11.310   115.676    0.20E-03    0.90E-03    0.20E-06
   0      7    11.310    87.132    0.20E-03    0.89E-03    0.19E-06
   1      6    11.310     4.429    0.16E-03    0.28E-03    0.12E-06
   1      6    11.310     2.733    0.12E-03    0.21E-03    0.99E-07
 Optimization of the real space projectors (new method)

 maximal supplied QI-value         = 25.13
 optimisation between [QCUT,QGAM] = [ 11.31, 22.87] = [ 35.82,146.48] Ry 
 Optimized for a Real-space Cutoff    1.43 Angstroem

   l    n(q)    QCUT    max X(q) W(low)/X(q) W(high)/X(q)  e(spline) 
   0     10    11.310    79.467    0.42E-04    0.81E-04    0.60E-06
   0     10    11.310    66.151    0.40E-04    0.81E-04    0.60E-06
   1      9    11.310    17.416    0.14E-03    0.88E-04    0.14E-05
   1      9    11.310    12.382    0.15E-03    0.93E-04    0.14E-05
 Optimization of the real space projectors (new method)

 maximal supplied QI-value         = 34.20
 optimisation between [QCUT,QGAM] = [ 11.29, 22.57] = [ 35.68,142.71] Ry 
 Optimized for a Real-space Cutoff    1.20 Angstroem

   l    n(q)    QCUT    max X(q) W(low)/X(q) W(high)/X(q)  e(spline) 
   0      8    11.287    19.460    0.22E-03    0.50E-03    0.19E-06
   0      8    11.287    12.209    0.21E-03    0.48E-03    0.18E-06
   1      8    11.287     4.655    0.21E-03    0.11E-04    0.26E-06
  PAW_PBE C 08Apr2002                   :
 energy of atom  1       EATOM= -147.1560
 kinetic energy error for atom=    0.0076 (will be added to EATOM!!)
  PAW_PBE N 08Apr2002                   :
 energy of atom  2       EATOM= -264.5486
 kinetic energy error for atom=    0.0138 (will be added to EATOM!!)
  PAW_PBE H 15Jun2001                   :
 energy of atom  3       EATOM=  -12.4884
 kinetic energy error for atom=    0.0020 (will be added to EATOM!!)
 
 
 POSCAR: C N H                                   
  positions in direct lattice
  velocities in cartesian coordinates
 exchange correlation table for  LEXCH =        8
   RHO(1)=    0.500       N(1)  =     2000
   RHO(2)=  100.500       N(2)  =     4000
 


--------------------------------------------------------------------------------------------------------


 ion  position               nearest neighbor table
   1  0.473  0.501  0.521-  12 1.10  11 1.10   7 1.44   2 1.55
   2  0.439  0.499  0.503-   9 1.10   8 1.10  10 1.10   1 1.55
   3  0.516  0.476  0.481-  17 1.10  16 1.11   7 1.45   4 1.52
   4  0.514  0.443  0.500-  14 1.10  13 1.10  15 1.10   3 1.52
   5  0.513  0.537  0.488-  22 1.10  21 1.10   7 1.45   6 1.54
   6  0.545  0.546  0.507-  18 1.10  20 1.10  19 1.10   5 1.54
   7  0.501  0.504  0.497-   1 1.44   5 1.45   3 1.45
   8  0.420  0.496  0.522-   2 1.10
   9  0.438  0.477  0.487-   2 1.10
  10  0.434  0.521  0.488-   2 1.10
  11  0.477  0.479  0.536-   1 1.10
  12  0.474  0.523  0.537-   1 1.10
  13  0.489  0.433  0.503-   4 1.10
  14  0.529  0.424  0.486-   4 1.10
  15  0.526  0.446  0.525-   4 1.10
  16  0.503  0.473  0.456-   3 1.11
  17  0.542  0.482  0.475-   3 1.10
  18  0.565  0.529  0.500-   6 1.10
  19  0.541  0.544  0.534-   6 1.10
  20  0.551  0.572  0.501-   6 1.10
  21  0.518  0.537  0.461-   5 1.10
  22  0.493  0.555  0.493-   5 1.10
 
  LATTYP: Found a simple cubic cell.
 ALAT       =    40.0000000000
  
  Lattice vectors:
  
 A1 = (  40.0000000000,   0.0000000000,   0.0000000000)
 A2 = (   0.0000000000,  40.0000000000,   0.0000000000)
 A3 = (   0.0000000000,   0.0000000000,  40.0000000000)


Analysis of symmetry for initial positions (statically):
=====================================================================
 Subroutine PRICEL returns:
 Original cell was already a primitive cell.
 

 Routine SETGRP: Setting up the symmetry group for a 
 simple cubic supercell.


 Subroutine GETGRP returns: Found  1 space group operations
 (whereof  1 operations were pure point group operations)
 out of a pool of 48 trial point group operations.


The static configuration has the point symmetry C_1 .


Analysis of symmetry for dynamics (positions and initial velocities):
=====================================================================
 Subroutine PRICEL returns:
 Original cell was already a primitive cell.
 

 Routine SETGRP: Setting up the symmetry group for a 
 simple cubic supercell.


 Subroutine GETGRP returns: Found  1 space group operations
 (whereof  1 operations were pure point group operations)
 out of a pool of 48 trial point group operations.


The dynamic configuration has the point symmetry C_1 .


Analysis of constrained symmetry for selective dynamics:
=====================================================================
 Subroutine PRICEL returns:
 Original cell was already a primitive cell.
 

 Routine SETGRP: Setting up the symmetry group for a 
 simple cubic supercell.


 Subroutine GETGRP returns: Found  1 space group operations
 (whereof  1 operations were pure point group operations)
 out of a pool of 48 trial point group operations.


The constrained configuration has the point symmetry C_1 .


Analysis of structural, dynamic, and magnetic symmetry:
=====================================================================
 Subroutine PRICEL returns:
 Original cell was already a primitive cell.
 

 Routine SETGRP: Setting up the symmetry group for a 
 simple cubic supercell.


 Subroutine GETGRP returns: Found  1 space group operations
 (whereof  1 operations were pure point group operations)
 out of a pool of 48 trial point group operations.


The magnetic configuration has the point symmetry C_1 .


 Subroutine INISYM returns: Found  1 space group operations
 (whereof  1 operations are pure point group operations),
 and found     1 'primitive' translations

 
 
 KPOINTS: K-Point Grid                            

Automatic generation of k-mesh.
Space group operators:
 irot       det(A)        alpha          n_x          n_y          n_z        tau_x        tau_y        tau_z
    1     1.000000     0.000000     1.000000     0.000000     0.000000     0.000000     0.000000     0.000000
 
 Subroutine IBZKPT returns following result:
 ===========================================
 
 Found      1 irreducible k-points:
 
 Following reciprocal coordinates:
            Coordinates               Weight
  0.000000  0.000000  0.000000      1.000000
 
 Following cartesian coordinates:
            Coordinates               Weight
  0.000000  0.000000  0.000000      1.000000
 


--------------------------------------------------------------------------------------------------------




 Dimension of arrays:
   k-points           NKPTS =      1   k-points in BZ     NKDIM =      1   number of bands    NBANDS=     48
   number of dos      NEDOS =    301   number of ions     NIONS =     22
   non local maximal  LDIM  =      4   non local SUM 2l+1 LMDIM =      8
   total plane-waves  NPLWV = ******
   max r-space proj   IRMAX =   4928   max aug-charges    IRDMAX=   5085
   dimension x,y,z NGX =   294 NGY =  294 NGZ =  294
   dimension x,y,z NGXF=   588 NGYF=  588 NGZF=  588
   support grid    NGXF=   588 NGYF=  588 NGZF=  588
   ions per type =               6   1  15
   NGX,Y,Z   is equivalent  to a cutoff of  12.22, 12.22, 12.22 a.u.
   NGXF,Y,Z  is equivalent  to a cutoff of  24.44, 24.44, 24.44 a.u.

 SYSTEM =  103_red                                 
 POSCAR =  C N H                                   

 Startparameter for this run:
   NWRITE =      2    write-flag & timer
   PREC   = accura    normal or accurate (medium, high low for compatibility)
   ISTART =      1    job   : 0-new  1-cont  2-samecut
   ICHARG =      2    charge: 1-file 2-atom 10-const
   ISPIN  =      2    spin polarized calculation?
   LNONCOLLINEAR =      F non collinear calculations
   LSORBIT =      F    spin-orbit coupling
   INIWAV =      1    electr: 0-lowe 1-rand  2-diag
   LASPH  =      F    aspherical Exc in radial PAW
   METAGGA=      F    non-selfconsistent MetaGGA calc.

 Electronic Relaxation 1
   ENCUT  =  500.0 eV  36.75 Ry    6.06 a.u.  72.93 72.93 72.93*2*pi/ulx,y,z
   ENINI  =  500.0     initial cutoff
   ENAUG  =  644.9 eV  augmentation charge cutoff
   NELM   =    100;   NELMIN=  2; NELMDL=  0     # of ELM steps 
   EDIFF  = 0.1E-04   stopping-criterion for ELM
   LREAL  =      T    real-space projection
   NLSPLINE    = F    spline interpolate recip. space projectors
   LCOMPAT=      F    compatible to vasp.4.4
   GGA_COMPAT  = T    GGA compatible to vasp.4.4-vasp.4.6
   LMAXPAW     = -100 max onsite density
   LMAXMIX     =    2 max onsite mixed and CHGCAR
   VOSKOWN=      0    Vosko Wilk Nusair interpolation
   ROPT   =   -0.00025  -0.00025  -0.00025
 Ionic relaxation
   EDIFFG = -.2E-01   stopping-criterion for IOM
   NSW    =    500    number of steps for IOM
   NBLOCK =      1;   KBLOCK =    500    inner block; outer block 
   IBRION =      2    ionic relax: 0-MD 1-quasi-New 2-CG
   NFREE  =      1    steps in history (QN), initial steepest desc. (CG)
   ISIF   =      2    stress and relaxation
   IWAVPR =     11    prediction:  0-non 1-charg 2-wave 3-comb
   ISYM   =      2    0-nonsym 1-usesym 2-fastsym
   LCORR  =      T    Harris-Foulkes like correction to forces

   POTIM  = 0.5000    time-step for ionic-motion
   TEIN   =    0.0    initial temperature
   TEBEG  =    0.0;   TEEND  =   0.0 temperature during run
   SMASS  =  -3.00    Nose mass-parameter (am)
   estimated Nose-frequenzy (Omega)   =  0.10E-29 period in steps =****** mass=  -0.366E-25a.u.
   SCALEE = 1.0000    scale energy and forces
   NPACO  =    256;   APACO  = 16.0  distance and # of slots for P.C.
   PSTRESS=    0.0 pullay stress

  Mass of Ions in am
   POMASS =  12.01 14.00  1.00
  Ionic Valenz
   ZVAL   =   4.00  5.00  1.00
  Atomic Wigner-Seitz radii
   RWIGS  =  -1.00 -1.00 -1.00
  virtual crystal weights 
   VCA    =   1.00  1.00  1.00
   NELECT =      43.0000    total number of electrons
   NUPDOWN=      -1.0000    fix difference up-down

 DOS related values:
   EMIN   =  10.00;   EMAX   =-10.00  energy-range for DOS
   EFERMI =   0.00
   ISMEAR =     0;   SIGMA  =   0.05  broadening in eV -4-tet -1-fermi 0-gaus

 Electronic relaxation 2 (details)
   IALGO  =     68    algorithm
   LDIAG  =      T    sub-space diagonalisation (order eigenvalues)
   LSUBROT=      F    optimize rotation matrix (better conditioning)
   TURBO    =      0    0=normal 1=particle mesh
   IRESTART =      0    0=no restart 2=restart with 2 vectors
   NREBOOT  =      0    no. of reboots
   NMIN     =      0    reboot dimension
   EREF     =   0.00    reference energy to select bands
   IMIX   =      4    mixing-type and parameters
     AMIX     =   0.40;   BMIX     =  1.00
     AMIX_MAG =   1.60;   BMIX_MAG =  1.00
     AMIN     =   0.10
     WC   =   100.;   INIMIX=   1;  MIXPRE=   1;  MAXMIX= -45

 Intra band minimization:
   WEIMIN = 0.0010     energy-eigenvalue tresh-hold
   EBREAK =  0.52E-07  absolut break condition
   DEPER  =   0.30     relativ break condition  

   TIME   =   0.40     timestep for ELM

  volume/ion in A,a.u.               =    2909.09     19631.51
  Fermi-wavevector in a.u.,A,eV,Ry     =   0.143385  0.270959  0.279726  0.020559
  Thomas-Fermi vector in A             =   0.807432
 
 Write flags
   LWAVE        =      T    write WAVECAR
   LDOWNSAMPLE  =      F    k-point downsampling of WAVECAR
   LCHARG       =      F    write CHGCAR
   LVTOT        =      F    write LOCPOT, total local potential
   LVHAR        =      F    write LOCPOT, Hartree potential only
   LELF         =      F    write electronic localiz. function (ELF)
   LORBIT       =      0    0 simple, 1 ext, 2 COOP (PROOUT), +10 PAW based schemes


 Dipole corrections
   LMONO  =      F    monopole corrections only (constant potential shift)
   LDIPOL =      F    correct potential (dipole corrections)
   IDIPOL =      0    1-x, 2-y, 3-z, 4-all directions 
   EPSILON=  1.0000000 bulk dielectric constant

 Exchange correlation treatment:
   GGA     =    --    GGA type
   LEXCH   =     8    internal setting for exchange type
   VOSKOWN=      0    Vosko Wilk Nusair interpolation
   LHFCALC =     F    Hartree Fock is set to
   LHFONE  =     F    Hartree Fock one center treatment
   AEXX    =    0.0000 exact exchange contribution

 Linear response parameters
   LEPSILON=     F    determine dielectric tensor
   LRPA    =     F    only Hartree local field effects (RPA)
   LNABLA  =     F    use nabla operator in PAW spheres
   LVEL    =     F    velocity operator in full k-point grid
   LINTERFAST=   F  fast interpolation
   KINTER  =     0    interpolate to denser k-point grid
   CSHIFT  =0.1000    complex shift for real part using Kramers Kronig
   OMEGAMAX=  -1.0    maximum frequency
   DEG_THRESHOLD= 0.2000000E-02 threshold for treating states as degnerate
   RTIME   =   -0.100 relaxation time in fs
  (WPLASMAI=    0.000 imaginary part of plasma frequency in eV, 0.658/RTIME)
   DFIELD  = 0.0000000 0.0000000 0.0000000 field for delta impulse in time
 
 Orbital magnetization related:
   ORBITALMAG=     F  switch on orbital magnetization
   LCHIMAG   =     F  perturbation theory with respect to B field
   DQ        =  0.001000  dq finite difference perturbation B field
   LLRAUG    =     F  two centre corrections for induced B field

 Solvation model:
   LSOL    =     T         switch on solvation model
   EB_K    = 35.688000     relative permittivity of the bulk solvent
   SIGMA_K =  0.600000     width of the dielectric cavity
   NC_K    =  0.002500     cutoff charge density
   TAU     =  0.000000     cavity surface tension
   LAMBDA_D_K    =  3.040000     Debye length in Angstroms
   LRHOB     =     F     write boundcharge  density
   LRHOION     =     F     write ioniccharge density



--------------------------------------------------------------------------------------------------------


 conjugate gradient relaxation of ions
   using selective dynamics as specified on POSCAR
 charge density and potential will be updated during run
 spin polarized calculation
 RMM-DIIS sequential band-by-band and
  variant of blocked Davidson during initial phase
 perform sub-space diagonalisation
    before iterative eigenvector-optimisation
 modified Broyden-mixing scheme, WC =      100.0
 initial mixing is a Kerker type mixing with AMIX =  0.4000 and BMIX =      1.0000
 Hartree-type preconditioning will be used
 using additional bands           26
 real space projection scheme for non local part
 use partial core corrections
 calculate Harris-corrections to forces 
   (improved forces if not selfconsistent)
 use gradient corrections 
 use of overlap-Matrix (Vanderbilt PP)
 Gauss-broadening in eV      SIGMA  =   0.05


--------------------------------------------------------------------------------------------------------


  energy-cutoff  :      500.00
  volume of cell :    64000.00
      direct lattice vectors                 reciprocal lattice vectors
    40.000000000  0.000000000  0.000000000     0.025000000  0.000000000  0.000000000
     0.000000000 40.000000000  0.000000000     0.000000000  0.025000000  0.000000000
     0.000000000  0.000000000 40.000000000     0.000000000  0.000000000  0.025000000

  length of vectors
    40.000000000 40.000000000 40.000000000     0.025000000  0.025000000  0.025000000


 
 old parameters found on file WAVECAR:
  energy-cutoff  :      500.00
  volume of cell :    64000.00
      direct lattice vectors                 reciprocal lattice vectors
    40.000000000  0.000000000  0.000000000     0.025000000  0.000000000  0.000000000
     0.000000000 40.000000000  0.000000000     0.000000000  0.025000000  0.000000000
     0.000000000  0.000000000 40.000000000     0.000000000  0.000000000  0.025000000

  length of vectors

 
 k-points in units of 2pi/SCALE and weight: K-Point Grid                            
   0.00000000  0.00000000  0.00000000       1.000
 
 k-points in reciprocal lattice and weights: K-Point Grid                            
   0.00000000  0.00000000  0.00000000       1.000
 
 position of ions in fractional coordinates (direct lattice) 
   0.47342483  0.50126055  0.52062643
   0.43919306  0.49872225  0.50272305
   0.51563943  0.47559070  0.48081025
   0.51434658  0.44295227  0.50020562
   0.51251320  0.53723073  0.48774175
   0.54469862  0.54601869  0.50719298
   0.50052855  0.50432902  0.49696996
   0.42006253  0.49633873  0.52225900
   0.43819376  0.47661368  0.48652330
   0.43419054  0.52130146  0.48792706
   0.47739033  0.47901178  0.53611468
   0.47370379  0.52343645  0.53668516
   0.48878415  0.43346310  0.50322070
   0.52862368  0.42440034  0.48590625
   0.52601214  0.44565102  0.52492083
   0.50297510  0.47293605  0.45630718
   0.54158033  0.48246593  0.47484152
   0.56533464  0.52949149  0.49989395
   0.54077171  0.54417354  0.53427823
   0.55128384  0.57184691  0.50071442
   0.51787188  0.53729428  0.46079824
   0.49287832  0.55547202  0.49333944
 
 position of ions in cartesian coordinates  (Angst):
  18.93699330 20.05042217 20.82505705
  17.56772228 19.94889004 20.10892215
  20.62557704 19.02362807 19.23240993
  20.57386304 17.71809089 20.00822478
  20.50052801 21.48922915 19.50966982
  21.78794488 21.84074746 20.28771925
  20.02114185 20.17316089 19.87879833
  16.80250121 19.85354924 20.89036002
  17.52775039 19.06454728 19.46093210
  17.36762164 20.85205844 19.51708228
  19.09561301 19.16047109 21.44458701
  18.94815165 20.93745806 21.46740654
  19.55136601 17.33852399 20.12882809
  21.14494735 16.97601378 19.43624995
  21.04048566 17.82604098 20.99683301
  20.11900414 18.91744207 18.25228723
  21.66321305 19.29863705 18.99366100
  22.61338559 21.17965949 19.99575787
  21.63086825 21.76694147 21.37112928
  22.05135364 22.87387644 20.02857700
  20.71487527 21.49177122 18.43192980
  19.71513274 22.21888074 19.73357753
 


--------------------------------------------------------------------------------------------------------


 k-point  1 :   0.0000 0.0000 0.0000  plane waves: 1624525

 maximum and minimum number of plane-waves per node :    162473   162437

 maximum number of plane-waves:   1624525
 maximum index in each direction: 
   IXMAX=   72   IYMAX=   72   IZMAX=   72
   IXMIN=  -72   IYMIN=  -72   IZMIN=  -72


 real space projection operators:
  total allocation   :       2594.76 KBytes
  max/ min on nodes  :        264.82        251.80


 parallel 3D FFT for wavefunctions:
    minimum data exchange during FFTs selected (reduces bandwidth)
 parallel 3D FFT for charge:
    minimum data exchange during FFTs selected (reduces bandwidth)


 total amount of memory used by VASP MPI-rank0   778894. kBytes
=======================================================================

   base      :      30000. kBytes
   nonlr-proj:       2154. kBytes
   fftplans  :     192295. kBytes
   grid      :     512830. kBytes
   one-center:         18. kBytes
   wavefun   :      41597. kBytes
 
     INWAV:  cpu time    5.4397: real time    6.4912
 Broyden mixing: mesh for mixing (old mesh)
   NGX =145   NGY =145   NGZ =145
  (NGX  =588   NGY  =588   NGZ  =588)
  gives a total of ****** points

 initial charge density was supplied:
 charge density of overlapping atoms calculated
 number of electron      44.0000000 magnetization      22.0000000
 keeping initial charge density in first step


--------------------------------------------------------------------------------------------------------


 Maximum index for non-local projection operator          495
 Maximum index for augmentation-charges          327 (set IRDMAX)


--------------------------------------------------------------------------------------------------------


 First call to EWALD:  gamma=   0.044
 Maximum number of real-space cells 3x 3x 3
 Maximum number of reciprocal cells 3x 3x 3

    FEWALD:  cpu time    0.0014: real time    0.0014


--------------------------------------- Iteration      1(   1)  ---------------------------------------


    POTLOK:  cpu time  125.2610: real time  125.8867
    SETDIJ:  cpu time    0.0405: real time    0.0407
     EDDAV:  cpu time   15.9794: real time   16.0692
       DOS:  cpu time    0.0002: real time    0.0002
    CHARGE:  cpu time    1.3824: real time    1.3892
    MIXING:  cpu time    0.1046: real time    0.1052
    --------------------------------------------
      LOOP:  cpu time  142.7681: real time  143.4912

 eigenvalue-minimisations  :   216
 total energy-change (2. order) :-0.8626767E+02  (-0.1571008E+03)
 number of electron      42.9999998 magnetization      21.1909166
 augmentation part        1.0938808 magnetization      20.3090136

 Broyden mixing:
  rms(total) = 0.33132E+01    rms(broyden)= 0.33130E+01
  rms(prec ) = 0.33285E+01
  weight for this iteration     100.00

 Free energy of the ion-electron system (eV)
  ---------------------------------------------------
  alpha Z        PSCENC =         0.12465185
  Ewald energy   TEWEN  =      4285.84436622
  -Hartree energ DENC   =     -5127.13315673
  -exchange      EXHF   =         0.00000000
  -V(xc)+E(xc)   XCENC  =       140.66787489
  PAW double counting   =       882.07399896     -886.74772168
  entropy T*S    EENTRO =        -0.00000000
  eigenvalues    EBANDS =      -708.04133093
  atomic energy  EATOM  =      1334.72182766
  Solvation  Ediel_sol  =        -7.77818498
  ---------------------------------------------------
  free energy    TOTEN  =       -86.26767474 eV

  energy without entropy =      -86.26767474  energy(sigma->0) =      -86.26767474


--------------------------------------------------------------------------------------------------------




--------------------------------------- Iteration      1(   2)  ---------------------------------------


    POTLOK:  cpu time  121.1427: real time  121.7070
    SETDIJ:  cpu time    0.0389: real time    0.0391
    EDDIAG:  cpu time    3.4435: real time    3.4590
  RMM-DIIS:  cpu time   12.0106: real time   12.0579
    ORTHCH:  cpu time    0.1108: real time    0.1115
       DOS:  cpu time    0.0003: real time    0.0003
    CHARGE:  cpu time    1.3810: real time    1.3879
    MIXING:  cpu time    0.1097: real time    0.1112
    --------------------------------------------
      LOOP:  cpu time  138.2374: real time  138.8738

 eigenvalue-minimisations  :   192
 total energy-change (2. order) : 0.3962181E+02  (-0.1819484E+02)
 number of electron      42.9999998 magnetization      20.4022703
 augmentation part        1.2019499 magnetization      19.4559748

 Broyden mixing:
  rms(total) = 0.15060E+01    rms(broyden)= 0.15058E+01
  rms(prec ) = 0.15292E+01
  weight for this iteration     100.00

 eigenvalues of (default mixing * dielectric matrix)
  average eigenvalue GAMMA=   0.9195
  0.9195

 Free energy of the ion-electron system (eV)
  ---------------------------------------------------
  alpha Z        PSCENC =         0.12465185
  Ewald energy   TEWEN  =      4285.84436622
  -Hartree energ DENC   =     -5173.24862215
  -exchange      EXHF   =         0.00000000
  -V(xc)+E(xc)   XCENC  =       191.87757451
  PAW double counting   =      2250.76303946    -2255.90572883
  entropy T*S    EENTRO =        -0.00000000
  eigenvalues    EBANDS =      -652.85943238
  atomic energy  EATOM  =      1334.72182766
  Solvation  Ediel_sol  =       -27.96353615
  ---------------------------------------------------
  free energy    TOTEN  =       -46.64585982 eV

  energy without entropy =      -46.64585982  energy(sigma->0) =      -46.64585982


--------------------------------------------------------------------------------------------------------




--------------------------------------- Iteration      1(   3)  ---------------------------------------


    POTLOK:  cpu time  119.3723: real time  119.9547
    SETDIJ:  cpu time    0.0389: real time    0.0392
    EDDIAG:  cpu time    3.4316: real time    3.4500
  RMM-DIIS:  cpu time   12.0171: real time   12.0662
    ORTHCH:  cpu time    0.1101: real time    0.1108
       DOS:  cpu time    0.0002: real time    0.0002
    CHARGE:  cpu time    1.3845: real time    1.3908
    MIXING:  cpu time    0.1105: real time    0.1110
    --------------------------------------------
      LOOP:  cpu time  136.4653: real time  137.1230

 eigenvalue-minimisations  :   193
 total energy-change (2. order) :-0.3050308E+02  (-0.2707338E+01)
 number of electron      42.9999998 magnetization      19.5426007
 augmentation part        1.1955891 magnetization      18.5825868

 Broyden mixing:
  rms(total) = 0.95017E+00    rms(broyden)= 0.95011E+00
  rms(prec ) = 0.95973E+00
  weight for this iteration     100.00

 eigenvalues of (default mixing * dielectric matrix)
  average eigenvalue GAMMA=   0.9391
  1.1211  0.7571

 Free energy of the ion-electron system (eV)
  ---------------------------------------------------
  alpha Z        PSCENC =         0.12465185
  Ewald energy   TEWEN  =      4285.84436622
  -Hartree energ DENC   =     -5217.39984515
  -exchange      EXHF   =         0.00000000
  -V(xc)+E(xc)   XCENC  =       169.09127038
  PAW double counting   =      2805.52391534    -2811.19042013
  entropy T*S    EENTRO =        -0.00000000
  eigenvalues    EBANDS =      -596.45487193
  atomic energy  EATOM  =      1334.72182766
  Solvation  Ediel_sol  =       -47.40982979
  ---------------------------------------------------
  free energy    TOTEN  =       -77.14893555 eV

  energy without entropy =      -77.14893555  energy(sigma->0) =      -77.14893555


--------------------------------------------------------------------------------------------------------




--------------------------------------- Iteration      1(   4)  ---------------------------------------


    POTLOK:  cpu time  121.5274: real time  122.1008
    SETDIJ:  cpu time    0.0395: real time    0.0397
    EDDIAG:  cpu time    3.4582: real time    3.4736
  RMM-DIIS:  cpu time   11.9863: real time   12.0386
    ORTHCH:  cpu time    0.1108: real time    0.1114
       DOS:  cpu time    0.0003: real time    0.0003
    CHARGE:  cpu time    1.3868: real time    1.3930
    MIXING:  cpu time    0.1152: real time    0.1157
    --------------------------------------------
      LOOP:  cpu time  138.6244: real time  139.2730

 eigenvalue-minimisations  :   192
 total energy-change (2. order) :-0.6347328E+01  (-0.5164476E+00)
 number of electron      42.9999998 magnetization      18.4720115
 augmentation part        1.1669993 magnetization      17.5161628

 Broyden mixing:
  rms(total) = 0.63275E+00    rms(broyden)= 0.63273E+00
  rms(prec ) = 0.63792E+00
  weight for this iteration     100.00

 eigenvalues of (default mixing * dielectric matrix)
  average eigenvalue GAMMA=   1.1316
  1.6637  1.0851  0.6460

 Free energy of the ion-electron system (eV)
  ---------------------------------------------------
  alpha Z        PSCENC =         0.12465185
  Ewald energy   TEWEN  =      4285.84436622
  -Hartree energ DENC   =     -5238.24776237
  -exchange      EXHF   =         0.00000000
  -V(xc)+E(xc)   XCENC  =       165.71726024
  PAW double counting   =      3049.77411107    -3055.66509843
  entropy T*S    EENTRO =        -0.00000000
  eigenvalues    EBANDS =      -559.68203845
  atomic energy  EATOM  =      1334.72182766
  Solvation  Ediel_sol  =       -66.08358151
  ---------------------------------------------------
  free energy    TOTEN  =       -83.49626372 eV

  energy without entropy =      -83.49626372  energy(sigma->0) =      -83.49626372


--------------------------------------------------------------------------------------------------------




--------------------------------------- Iteration      1(   5)  ---------------------------------------


    POTLOK:  cpu time  121.4799: real time  122.0759
    SETDIJ:  cpu time    0.0395: real time    0.0398
    EDDIAG:  cpu time    3.4238: real time    3.4408
  RMM-DIIS:  cpu time   11.9579: real time   12.0062
    ORTHCH:  cpu time    0.1101: real time    0.1108
       DOS:  cpu time    0.0004: real time    0.0004
    CHARGE:  cpu time    1.3870: real time    1.3931
    MIXING:  cpu time    0.1201: real time    0.1206
    --------------------------------------------
      LOOP:  cpu time  138.5189: real time  139.1876

 eigenvalue-minimisations  :   192
 total energy-change (2. order) :-0.1275178E+02  (-0.5028236E+00)
 number of electron      42.9999998 magnetization      17.3425802
 augmentation part        1.1444943 magnetization      16.3971266

 Broyden mixing:
  rms(total) = 0.37728E+00    rms(broyden)= 0.37727E+00
  rms(prec ) = 0.38054E+00
  weight for this iteration     100.00

 eigenvalues of (default mixing * dielectric matrix)
  average eigenvalue GAMMA=   1.2437
  1.9760  1.5136  0.8442  0.6412

 Free energy of the ion-electron system (eV)
  ---------------------------------------------------
  alpha Z        PSCENC =         0.12465185
  Ewald energy   TEWEN  =      4285.84436622
  -Hartree energ DENC   =     -5244.11829398
  -exchange      EXHF   =         0.00000000
  -V(xc)+E(xc)   XCENC  =       156.78569955
  PAW double counting   =      3176.79928782    -3182.77324808
  entropy T*S    EENTRO =        -0.00000000
  eigenvalues    EBANDS =      -537.95785735
  atomic energy  EATOM  =      1334.72182766
  Solvation  Ediel_sol  =       -85.67447289
  ---------------------------------------------------
  free energy    TOTEN  =       -96.24803920 eV

  energy without entropy =      -96.24803920  energy(sigma->0) =      -96.24803920


--------------------------------------------------------------------------------------------------------




--------------------------------------- Iteration      1(   6)  ---------------------------------------


    POTLOK:  cpu time  120.3444: real time  120.9001
    SETDIJ:  cpu time    0.0390: real time    0.0392
    EDDIAG:  cpu time    3.4378: real time    3.4528
  RMM-DIIS:  cpu time   11.9410: real time   11.9929
    ORTHCH:  cpu time    0.1107: real time    0.1115
       DOS:  cpu time    0.0001: real time    0.0001
    CHARGE:  cpu time    1.3849: real time    1.3926
    MIXING:  cpu time    0.1297: real time    0.1315
    --------------------------------------------
      LOOP:  cpu time  137.3876: real time  138.0208

 eigenvalue-minimisations  :   192
 total energy-change (2. order) :-0.8039277E+01  (-0.3545464E+00)
 number of electron      42.9999998 magnetization      16.1563049
 augmentation part        1.1352544 magnetization      15.2273501

 Broyden mixing:
  rms(total) = 0.26461E+00    rms(broyden)= 0.26460E+00
  rms(prec ) = 0.26746E+00
  weight for this iteration     100.00

 eigenvalues of (default mixing * dielectric matrix)
  average eigenvalue GAMMA=   1.2753
  2.0293  1.9449  0.8900  0.8900  0.6221

 Free energy of the ion-electron system (eV)
  ---------------------------------------------------
  alpha Z        PSCENC =         0.12465185
  Ewald energy   TEWEN  =      4285.84436622
  -Hartree energ DENC   =     -5235.59923032
  -exchange      EXHF   =         0.00000000
  -V(xc)+E(xc)   XCENC  =       150.97434565
  PAW double counting   =      3195.51879740    -3201.44673428
  entropy T*S    EENTRO =        -0.00000000
  eigenvalues    EBANDS =      -534.62778377
  atomic energy  EATOM  =      1334.72182766
  Solvation  Ediel_sol  =       -99.79755655
  ---------------------------------------------------
  free energy    TOTEN  =      -104.28731614 eV

  energy without entropy =     -104.28731614  energy(sigma->0) =     -104.28731614


--------------------------------------------------------------------------------------------------------




--------------------------------------- Iteration      1(   7)  ---------------------------------------


    POTLOK:  cpu time  115.3937: real time  115.9480
    SETDIJ:  cpu time    0.0394: real time    0.0397
    EDDIAG:  cpu time    3.4514: real time    3.4664
  RMM-DIIS:  cpu time   11.9067: real time   11.9584
    ORTHCH:  cpu time    0.1096: real time    0.1102
       DOS:  cpu time    0.0003: real time    0.0003
    CHARGE:  cpu time    1.3887: real time    1.3949
    MIXING:  cpu time    0.1349: real time    0.1356
    --------------------------------------------
      LOOP:  cpu time  132.4247: real time  133.0534

 eigenvalue-minimisations  :   192
 total energy-change (2. order) :-0.3106053E+01  (-0.1240194E+00)
 number of electron      42.9999998 magnetization      14.4285168
 augmentation part        1.1349759 magnetization      13.5106480

 Broyden mixing:
  rms(total) = 0.19804E+00    rms(broyden)= 0.19804E+00
  rms(prec ) = 0.20035E+00
  weight for this iteration     100.00

 eigenvalues of (default mixing * dielectric matrix)
  average eigenvalue GAMMA=   1.4463
  2.7737  2.2199  1.1385  1.1385  0.7838  0.6234

 Free energy of the ion-electron system (eV)
  ---------------------------------------------------
  alpha Z        PSCENC =         0.12465185
  Ewald energy   TEWEN  =      4285.84436622
  -Hartree energ DENC   =     -5221.03280734
  -exchange      EXHF   =         0.00000000
  -V(xc)+E(xc)   XCENC  =       148.42404887
  PAW double counting   =      3153.52712367    -3159.40711930
  entropy T*S    EENTRO =        -0.00000000
  eigenvalues    EBANDS =      -540.97851575
  atomic energy  EATOM  =      1334.72182766
  Solvation  Ediel_sol  =      -108.61694470
  ---------------------------------------------------
  free energy    TOTEN  =      -107.39336881 eV

  energy without entropy =     -107.39336881  energy(sigma->0) =     -107.39336881


--------------------------------------------------------------------------------------------------------




--------------------------------------- Iteration      1(   8)  ---------------------------------------


    POTLOK:  cpu time  113.8054: real time  114.3447
    SETDIJ:  cpu time    0.0399: real time    0.0401
    EDDIAG:  cpu time    3.4230: real time    3.4381
  RMM-DIIS:  cpu time   11.9279: real time   11.9852
    ORTHCH:  cpu time    0.1122: real time    0.1128
       DOS:  cpu time    0.0002: real time    0.0002
    CHARGE:  cpu time    1.3806: real time    1.3871
    MIXING:  cpu time    0.1418: real time    0.1424
    --------------------------------------------
      LOOP:  cpu time  130.8309: real time  131.4506

 eigenvalue-minimisations  :   192
 total energy-change (2. order) :-0.3167040E+01  (-0.1302068E+00)
 number of electron      42.9999998 magnetization      12.4915222
 augmentation part        1.1337311 magnetization      11.5840726

 Broyden mixing:
  rms(total) = 0.13255E+00    rms(broyden)= 0.13255E+00
  rms(prec ) = 0.13436E+00
  weight for this iteration     100.00

 eigenvalues of (default mixing * dielectric matrix)
  average eigenvalue GAMMA=   1.5859
  3.9976  2.1212  1.5860  1.0013  1.0013  0.7721  0.6220

 Free energy of the ion-electron system (eV)
  ---------------------------------------------------
  alpha Z        PSCENC =         0.12465185
  Ewald energy   TEWEN  =      4285.84436622
  -Hartree energ DENC   =     -5202.94307418
  -exchange      EXHF   =         0.00000000
  -V(xc)+E(xc)   XCENC  =       145.61438553
  PAW double counting   =      3094.54165320    -3100.40297470
  entropy T*S    EENTRO =        -0.00000000
  eigenvalues    EBANDS =      -549.18572255
  atomic energy  EATOM  =      1334.72182766
  Solvation  Ediel_sol  =      -118.87552203
  ---------------------------------------------------
  free energy    TOTEN  =      -110.56040901 eV

  energy without entropy =     -110.56040901  energy(sigma->0) =     -110.56040901


--------------------------------------------------------------------------------------------------------




--------------------------------------- Iteration      1(   9)  ---------------------------------------


    POTLOK:  cpu time  116.8036: real time  117.3554
    SETDIJ:  cpu time    0.0397: real time    0.0399
    EDDIAG:  cpu time    3.4516: real time    3.4679
  RMM-DIIS:  cpu time   11.9943: real time   12.0436
    ORTHCH:  cpu time    0.1113: real time    0.1119
       DOS:  cpu time    0.0002: real time    0.0002
    CHARGE:  cpu time    1.3916: real time    1.3978
    MIXING:  cpu time    0.1483: real time    0.1490
    --------------------------------------------
      LOOP:  cpu time  133.9407: real time  134.5658

 eigenvalue-minimisations  :   192
 total energy-change (2. order) :-0.1589965E+01  (-0.7231936E-01)
 number of electron      42.9999998 magnetization      11.4392400
 augmentation part        1.1303551 magnetization      10.5388702

 Broyden mixing:
  rms(total) = 0.83885E-01    rms(broyden)= 0.83881E-01
  rms(prec ) = 0.84922E-01
  weight for this iteration     100.00

 eigenvalues of (default mixing * dielectric matrix)
  average eigenvalue GAMMA=   1.7567
  5.7319  2.0400  2.0400  1.0356  1.0356  0.8601  0.6206  0.6900

 Free energy of the ion-electron system (eV)
  ---------------------------------------------------
  alpha Z        PSCENC =         0.12465185
  Ewald energy   TEWEN  =      4285.84436622
  -Hartree energ DENC   =     -5187.44637308
  -exchange      EXHF   =         0.00000000
  -V(xc)+E(xc)   XCENC  =       144.05188402
  PAW double counting   =      3065.16112143    -3071.04783025
  entropy T*S    EENTRO =        -0.00000000
  eigenvalues    EBANDS =      -555.00961399
  atomic energy  EATOM  =      1334.72182766
  Solvation  Ediel_sol  =      -128.55040750
  ---------------------------------------------------
  free energy    TOTEN  =      -112.15037364 eV

  energy without entropy =     -112.15037364  energy(sigma->0) =     -112.15037364


--------------------------------------------------------------------------------------------------------




--------------------------------------- Iteration      1(  10)  ---------------------------------------


    POTLOK:  cpu time  113.8913: real time  114.4257
    SETDIJ:  cpu time    0.0398: real time    0.0400
    EDDIAG:  cpu time    3.4506: real time    3.4668
  RMM-DIIS:  cpu time   11.9890: real time   12.0393
    ORTHCH:  cpu time    0.1098: real time    0.1105
       DOS:  cpu time    0.0003: real time    0.0003
    CHARGE:  cpu time    1.3873: real time    1.3938
    MIXING:  cpu time    0.1590: real time    0.1599
    --------------------------------------------
      LOOP:  cpu time  131.0272: real time  131.6363

 eigenvalue-minimisations  :   192
 total energy-change (2. order) :-0.1880255E+00  (-0.1215262E-01)
 number of electron      42.9999998 magnetization      10.0184621
 augmentation part        1.1295365 magnetization       9.1222190

 Broyden mixing:
  rms(total) = 0.65786E-01    rms(broyden)= 0.65783E-01
  rms(prec ) = 0.66447E-01
  weight for this iteration     100.00

 eigenvalues of (default mixing * dielectric matrix)
  average eigenvalue GAMMA=   1.7770
  6.3754  1.9958  1.9958  1.2292  1.2292  1.0592  0.8189  0.6182  0.6712

 Free energy of the ion-electron system (eV)
  ---------------------------------------------------
  alpha Z        PSCENC =         0.12465185
  Ewald energy   TEWEN  =      4285.84436622
  -Hartree energ DENC   =     -5179.69594698
  -exchange      EXHF   =         0.00000000
  -V(xc)+E(xc)   XCENC  =       143.76297275
  PAW double counting   =      3060.67766214    -3066.56817475
  entropy T*S    EENTRO =        -0.00000000
  eigenvalues    EBANDS =      -558.20389919
  atomic energy  EATOM  =      1334.72182766
  Solvation  Ediel_sol  =      -133.00185880
  ---------------------------------------------------
  free energy    TOTEN  =      -112.33839909 eV

  energy without entropy =     -112.33839909  energy(sigma->0) =     -112.33839909


--------------------------------------------------------------------------------------------------------




--------------------------------------- Iteration      1(  11)  ---------------------------------------


    POTLOK:  cpu time  113.7849: real time  114.3332
    SETDIJ:  cpu time    0.0386: real time    0.0388
    EDDIAG:  cpu time    3.4465: real time    3.4622
  RMM-DIIS:  cpu time   11.9741: real time   12.0253
    ORTHCH:  cpu time    0.1086: real time    0.1092
       DOS:  cpu time    0.0002: real time    0.0002
    CHARGE:  cpu time    1.3870: real time    1.3937
    MIXING:  cpu time    0.1715: real time    0.1724
    --------------------------------------------
      LOOP:  cpu time  130.9113: real time  131.5350

 eigenvalue-minimisations  :   193
 total energy-change (2. order) :-0.3629264E+00  (-0.4991556E-02)
 number of electron      42.9999998 magnetization       9.0318960
 augmentation part        1.1313957 magnetization       8.1381669

 Broyden mixing:
  rms(total) = 0.48625E-01    rms(broyden)= 0.48623E-01
  rms(prec ) = 0.48918E-01
  weight for this iteration     100.00

 eigenvalues of (default mixing * dielectric matrix)
  average eigenvalue GAMMA=   1.9335
  7.5376  2.8575  2.1977  1.8134  1.0770  0.9473  0.9473  0.7189  0.6299  0.6084

 Free energy of the ion-electron system (eV)
  ---------------------------------------------------
  alpha Z        PSCENC =         0.12465185
  Ewald energy   TEWEN  =      4285.84436622
  -Hartree energ DENC   =     -5171.20432567
  -exchange      EXHF   =         0.00000000
  -V(xc)+E(xc)   XCENC  =       143.27134127
  PAW double counting   =      3071.91185309    -3077.78966283
  entropy T*S    EENTRO =        -0.00000000
  eigenvalues    EBANDS =      -561.59085090
  atomic energy  EATOM  =      1334.72182766
  Solvation  Ediel_sol  =      -137.99052614
  ---------------------------------------------------
  free energy    TOTEN  =      -112.70132544 eV

  energy without entropy =     -112.70132544  energy(sigma->0) =     -112.70132544


--------------------------------------------------------------------------------------------------------




--------------------------------------- Iteration      1(  12)  ---------------------------------------


    POTLOK:  cpu time  111.4430: real time  111.9948
    SETDIJ:  cpu time    0.0396: real time    0.0399
    EDDIAG:  cpu time    3.4235: real time    3.4420
  RMM-DIIS:  cpu time   11.8665: real time   11.9185
    ORTHCH:  cpu time    0.1108: real time    0.1115
       DOS:  cpu time    0.0001: real time    0.0001
    CHARGE:  cpu time    1.3841: real time    1.3908
    MIXING:  cpu time    0.1752: real time    0.1761
    --------------------------------------------
      LOOP:  cpu time  128.4428: real time  129.0737

 eigenvalue-minimisations  :   192
 total energy-change (2. order) :-0.8443928E-01  (-0.9775119E-03)
 number of electron      42.9999998 magnetization       7.9160764
 augmentation part        1.1310741 magnetization       7.0228286

 Broyden mixing:
  rms(total) = 0.37039E-01    rms(broyden)= 0.37039E-01
  rms(prec ) = 0.37163E-01
  weight for this iteration     100.00

 eigenvalues of (default mixing * dielectric matrix)
  average eigenvalue GAMMA=   1.9978
  8.3693  3.4385  2.2251  1.6700  1.2078  1.2078  1.0462  0.8478  0.7160  0.6169
  0.6307

 Free energy of the ion-electron system (eV)
  ---------------------------------------------------
  alpha Z        PSCENC =         0.12465185
  Ewald energy   TEWEN  =      4285.84436622
  -Hartree energ DENC   =     -5167.61882036
  -exchange      EXHF   =         0.00000000
  -V(xc)+E(xc)   XCENC  =       143.17624648
  PAW double counting   =      3083.92389651    -3089.80506555
  entropy T*S    EENTRO =        -0.00000000
  eigenvalues    EBANDS =      -561.89552742
  atomic energy  EATOM  =      1334.72182766
  Solvation  Ediel_sol  =      -141.25734013
  ---------------------------------------------------
  free energy    TOTEN  =      -112.78576473 eV

  energy without entropy =     -112.78576473  energy(sigma->0) =     -112.78576473


--------------------------------------------------------------------------------------------------------




--------------------------------------- Iteration      1(  13)  ---------------------------------------


    POTLOK:  cpu time  108.4313: real time  108.9690
    SETDIJ:  cpu time    0.0391: real time    0.0394
    EDDIAG:  cpu time    3.4336: real time    3.4505
  RMM-DIIS:  cpu time   11.8495: real time   11.9000
    ORTHCH:  cpu time    0.1102: real time    0.1109
       DOS:  cpu time    0.0002: real time    0.0002
    CHARGE:  cpu time    1.3827: real time    1.3900
    MIXING:  cpu time    0.1893: real time    0.1904
    --------------------------------------------
      LOOP:  cpu time  125.4358: real time  126.0504

 eigenvalue-minimisations  :   192
 total energy-change (2. order) :-0.5443201E-01  (-0.5988515E-03)
 number of electron      42.9999998 magnetization       6.9832816
 augmentation part        1.1299819 magnetization       6.0899704

 Broyden mixing:
  rms(total) = 0.31069E-01    rms(broyden)= 0.31068E-01
  rms(prec ) = 0.31164E-01
  weight for this iteration     100.00

 eigenvalues of (default mixing * dielectric matrix)
  average eigenvalue GAMMA=   2.0686
  9.0809  3.9935  2.1979  2.1979  1.4367  1.1810  0.9881  0.9881  0.7986  0.7121
  0.6194  0.6292

 Free energy of the ion-electron system (eV)
  ---------------------------------------------------
  alpha Z        PSCENC =         0.12465185
  Ewald energy   TEWEN  =      4285.84436622
  -Hartree energ DENC   =     -5165.59585744
  -exchange      EXHF   =         0.00000000
  -V(xc)+E(xc)   XCENC  =       143.13780638
  PAW double counting   =      3086.40950869    -3092.29623725
  entropy T*S    EENTRO =        -0.00000000
  eigenvalues    EBANDS =      -560.86852029
  atomic energy  EATOM  =      1334.72182766
  Solvation  Ediel_sol  =      -144.31774256
  ---------------------------------------------------
  free energy    TOTEN  =      -112.84019674 eV

  energy without entropy =     -112.84019674  energy(sigma->0) =     -112.84019674


--------------------------------------------------------------------------------------------------------




--------------------------------------- Iteration      1(  14)  ---------------------------------------


    POTLOK:  cpu time  109.4361: real time  109.9529
    SETDIJ:  cpu time    0.0396: real time    0.0399
    EDDIAG:  cpu time    3.4366: real time    3.4521
  RMM-DIIS:  cpu time   11.9140: real time   11.9617
    ORTHCH:  cpu time    0.1144: real time    0.1150
       DOS:  cpu time    0.0002: real time    0.0002
    CHARGE:  cpu time    1.3852: real time    1.3916
    MIXING:  cpu time    0.2012: real time    0.2022
    --------------------------------------------
      LOOP:  cpu time  126.5273: real time  127.1156

 eigenvalue-minimisations  :   192
 total energy-change (2. order) :-0.5190960E-01  (-0.1999888E-03)
 number of electron      42.9999998 magnetization       5.9820370
 augmentation part        1.1305773 magnetization       5.0889329

 Broyden mixing:
  rms(total) = 0.25078E-01    rms(broyden)= 0.25078E-01
  rms(prec ) = 0.25104E-01
  weight for this iteration     100.00

 eigenvalues of (default mixing * dielectric matrix)
  average eigenvalue GAMMA=   2.0954
  9.4803  4.6456  2.3617  2.3617  1.5317  1.1406  1.0578  1.0578  0.8628  0.7873
  0.7125  0.6141  0.6269

 Free energy of the ion-electron system (eV)
  ---------------------------------------------------
  alpha Z        PSCENC =         0.12465185
  Ewald energy   TEWEN  =      4285.84436622
  -Hartree energ DENC   =     -5163.82624497
  -exchange      EXHF   =         0.00000000
  -V(xc)+E(xc)   XCENC  =       143.06666794
  PAW double counting   =      3082.84048924    -3088.72073181
  entropy T*S    EENTRO =        -0.00000000
  eigenvalues    EBANDS =      -560.77433609
  atomic energy  EATOM  =      1334.72182766
  Solvation  Ediel_sol  =      -146.16879637
  ---------------------------------------------------
  free energy    TOTEN  =      -112.89210634 eV

  energy without entropy =     -112.89210634  energy(sigma->0) =     -112.89210634


--------------------------------------------------------------------------------------------------------




--------------------------------------- Iteration      1(  15)  ---------------------------------------


    POTLOK:  cpu time  107.7774: real time  108.3133
    SETDIJ:  cpu time    0.0382: real time    0.0384
    EDDIAG:  cpu time    3.4307: real time    3.4460
  RMM-DIIS:  cpu time   11.8344: real time   11.8809
    ORTHCH:  cpu time    0.1114: real time    0.1121
       DOS:  cpu time    0.0002: real time    0.0002
    CHARGE:  cpu time    1.3922: real time    1.3985
    MIXING:  cpu time    0.2140: real time    0.2151
    --------------------------------------------
      LOOP:  cpu time  124.7985: real time  125.4045

 eigenvalue-minimisations  :   192
 total energy-change (2. order) :-0.8646149E-02  (-0.1061222E-03)
 number of electron      42.9999998 magnetization       5.0184013
 augmentation part        1.1308520 magnetization       4.1253357

 Broyden mixing:
  rms(total) = 0.21372E-01    rms(broyden)= 0.21372E-01
  rms(prec ) = 0.21417E-01
  weight for this iteration     100.00

 eigenvalues of (default mixing * dielectric matrix)
  average eigenvalue GAMMA=   2.1837
 10.3003  5.4740  2.6689  2.2183  1.9471  1.3434  1.0396  1.0396  1.0585  0.8162
  0.7299  0.6992  0.6256  0.6116

 Free energy of the ion-electron system (eV)
  ---------------------------------------------------
  alpha Z        PSCENC =         0.12465185
  Ewald energy   TEWEN  =      4285.84436622
  -Hartree energ DENC   =     -5163.21337539
  -exchange      EXHF   =         0.00000000
  -V(xc)+E(xc)   XCENC  =       143.06908352
  PAW double counting   =      3081.65991633    -3087.54115409
  entropy T*S    EENTRO =        -0.00000000
  eigenvalues    EBANDS =      -560.31137986
  atomic energy  EATOM  =      1334.72182766
  Solvation  Ediel_sol  =      -147.25468873
  ---------------------------------------------------
  free energy    TOTEN  =      -112.90075248 eV

  energy without entropy =     -112.90075248  energy(sigma->0) =     -112.90075248


--------------------------------------------------------------------------------------------------------




--------------------------------------- Iteration      1(  16)  ---------------------------------------


    POTLOK:  cpu time  105.8081: real time  106.3169
    SETDIJ:  cpu time    0.0387: real time    0.0390
    EDDIAG:  cpu time    3.4501: real time    3.4672
  RMM-DIIS:  cpu time   11.8724: real time   11.9282
    ORTHCH:  cpu time    0.1118: real time    0.1125
       DOS:  cpu time    0.0002: real time    0.0002
    CHARGE:  cpu time    1.3871: real time    1.3946
    MIXING:  cpu time    0.2329: real time    0.2343
    --------------------------------------------
      LOOP:  cpu time  122.9014: real time  123.4929

 eigenvalue-minimisations  :   192
 total energy-change (2. order) :-0.1645572E-01  (-0.3654849E-04)
 number of electron      42.9999998 magnetization       3.7692696
 augmentation part        1.1305888 magnetization       2.8761973

 Broyden mixing:
  rms(total) = 0.17843E-01    rms(broyden)= 0.17843E-01
  rms(prec ) = 0.17892E-01
  weight for this iteration     100.00

 eigenvalues of (default mixing * dielectric matrix)
  average eigenvalue GAMMA=   2.2064
 10.8037  5.9248  3.0859  2.0837  2.0837  1.3723  1.1928  1.0244  1.0244  0.9092
  0.9092  0.7543  0.6896  0.6258  0.6131

 Free energy of the ion-electron system (eV)
  ---------------------------------------------------
  alpha Z        PSCENC =         0.12465185
  Ewald energy   TEWEN  =      4285.84436622
  -Hartree energ DENC   =     -5162.98334696
  -exchange      EXHF   =         0.00000000
  -V(xc)+E(xc)   XCENC  =       143.06112220
  PAW double counting   =      3080.10393414    -3085.98825422
  entropy T*S    EENTRO =        -0.00000000
  eigenvalues    EBANDS =      -559.97994021
  atomic energy  EATOM  =      1334.72182766
  Solvation  Ediel_sol  =      -147.82156889
  ---------------------------------------------------
  free energy    TOTEN  =      -112.91720821 eV

  energy without entropy =     -112.91720821  energy(sigma->0) =     -112.91720821


--------------------------------------------------------------------------------------------------------




--------------------------------------- Iteration      1(  17)  ---------------------------------------


    POTLOK:  cpu time  103.4346: real time  103.9406
    SETDIJ:  cpu time    0.0387: real time    0.0389
    EDDIAG:  cpu time    3.4376: real time    3.4549
  RMM-DIIS:  cpu time   11.9116: real time   11.9619
    ORTHCH:  cpu time    0.1123: real time    0.1129
       DOS:  cpu time    0.0002: real time    0.0002
    CHARGE:  cpu time    1.3842: real time    1.3909
    MIXING:  cpu time    0.2404: real time    0.2418
    --------------------------------------------
      LOOP:  cpu time  120.5596: real time  121.1422

 eigenvalue-minimisations  :   192
 total energy-change (2. order) :-0.1116799E-01  (-0.8502431E-04)
 number of electron      42.9999998 magnetization       2.5167689
 augmentation part        1.1304666 magnetization       1.6237707

 Broyden mixing:
  rms(total) = 0.13461E-01    rms(broyden)= 0.13461E-01
  rms(prec ) = 0.13516E-01
  weight for this iteration     100.00

 eigenvalues of (default mixing * dielectric matrix)
  average eigenvalue GAMMA=   2.3762
 11.9867  7.1556  3.9294  2.2772  2.2772  1.6391  1.4277  1.0471  1.0471  0.9743
  0.7955  0.7955  0.7560  0.6118  0.6262  0.6730

 Free energy of the ion-electron system (eV)
  ---------------------------------------------------
  alpha Z        PSCENC =         0.12465185
  Ewald energy   TEWEN  =      4285.84436622
  -Hartree energ DENC   =     -5163.00732330
  -exchange      EXHF   =         0.00000000
  -V(xc)+E(xc)   XCENC  =       143.04254762
  PAW double counting   =      3077.93265966    -3083.81616914
  entropy T*S    EENTRO =        -0.00000000
  eigenvalues    EBANDS =      -560.21604800
  atomic energy  EATOM  =      1334.72182766
  Solvation  Ediel_sol  =      -147.55488877
  ---------------------------------------------------
  free energy    TOTEN  =      -112.92837619 eV

  energy without entropy =     -112.92837619  energy(sigma->0) =     -112.92837619


--------------------------------------------------------------------------------------------------------




--------------------------------------- Iteration      1(  18)  ---------------------------------------


    POTLOK:  cpu time  104.5918: real time  105.0925
    SETDIJ:  cpu time    0.0396: real time    0.0399
    EDDIAG:  cpu time    3.4230: real time    3.4394
  RMM-DIIS:  cpu time   11.9729: real time   12.0246
    ORTHCH:  cpu time    0.1113: real time    0.1120
       DOS:  cpu time    0.0001: real time    0.0001
    CHARGE:  cpu time    1.3766: real time    1.3842
    MIXING:  cpu time    0.2549: real time    0.2564
    --------------------------------------------
      LOOP:  cpu time  121.7701: real time  122.3491

 eigenvalue-minimisations  :   192
 total energy-change (2. order) :-0.3894421E-02  (-0.1115790E-03)
 number of electron      42.9999998 magnetization       1.6690362
 augmentation part        1.1304846 magnetization       0.7761206

 Broyden mixing:
  rms(total) = 0.91328E-02    rms(broyden)= 0.91327E-02
  rms(prec ) = 0.92113E-02
  weight for this iteration     100.00

 eigenvalues of (default mixing * dielectric matrix)
  average eigenvalue GAMMA=   2.6079
 14.7650  8.4528  4.6055  2.4828  2.4828  1.7631  1.2511  1.0789  1.0789  1.1367
  0.9349  0.9349  0.7769  0.7084  0.6471  0.6090  0.6254

 Free energy of the ion-electron system (eV)
  ---------------------------------------------------
  alpha Z        PSCENC =         0.12465185
  Ewald energy   TEWEN  =      4285.84436622
  -Hartree energ DENC   =     -5163.34945901
  -exchange      EXHF   =         0.00000000
  -V(xc)+E(xc)   XCENC  =       143.03836013
  PAW double counting   =      3079.74064097    -3085.62391114
  entropy T*S    EENTRO =        -0.00000000
  eigenvalues    EBANDS =      -560.45825060
  atomic energy  EATOM  =      1334.72182766
  Solvation  Ediel_sol  =      -146.97049669
  ---------------------------------------------------
  free energy    TOTEN  =      -112.93227061 eV

  energy without entropy =     -112.93227061  energy(sigma->0) =     -112.93227061


--------------------------------------------------------------------------------------------------------




--------------------------------------- Iteration      1(  19)  ---------------------------------------


    POTLOK:  cpu time  105.2940: real time  105.8049
    SETDIJ:  cpu time    0.0394: real time    0.0396
    EDDIAG:  cpu time    3.4424: real time    3.4594
  RMM-DIIS:  cpu time   12.0589: real time   12.1134
    ORTHCH:  cpu time    0.1103: real time    0.1109
       DOS:  cpu time    0.0003: real time    0.0003
    CHARGE:  cpu time    1.3854: real time    1.3923
    MIXING:  cpu time    0.2688: real time    0.2703
    --------------------------------------------
      LOOP:  cpu time  122.5995: real time  123.1911

 eigenvalue-minimisations  :   193
 total energy-change (2. order) :-0.2021044E-01  (-0.6767761E-04)
 number of electron      42.9999998 magnetization       1.2825266
 augmentation part        1.1306378 magnetization       0.3896473

 Broyden mixing:
  rms(total) = 0.52802E-02    rms(broyden)= 0.52801E-02
  rms(prec ) = 0.53423E-02
  weight for this iteration     100.00

 eigenvalues of (default mixing * dielectric matrix)
  average eigenvalue GAMMA=   2.8428
 18.9862  9.1075  5.0389  2.8565  2.1740  2.0426  1.3900  1.3900  1.0647  1.0647
  0.9228  0.9228  0.8605  0.7737  0.7032  0.6096  0.6372  0.6248

 Free energy of the ion-electron system (eV)
  ---------------------------------------------------
  alpha Z        PSCENC =         0.12465185
  Ewald energy   TEWEN  =      4285.84436622
  -Hartree energ DENC   =     -5163.75170233
  -exchange      EXHF   =         0.00000000
  -V(xc)+E(xc)   XCENC  =       143.01940174
  PAW double counting   =      3082.46457092    -3088.34803062
  entropy T*S    EENTRO =        -0.00000000
  eigenvalues    EBANDS =      -560.62850020
  atomic energy  EATOM  =      1334.72182766
  Solvation  Ediel_sol  =      -146.39906630
  ---------------------------------------------------
  free energy    TOTEN  =      -112.95248106 eV

  energy without entropy =     -112.95248106  energy(sigma->0) =     -112.95248106


--------------------------------------------------------------------------------------------------------




--------------------------------------- Iteration      1(  20)  ---------------------------------------


    POTLOK:  cpu time  100.8621: real time  101.3473
    SETDIJ:  cpu time    0.0406: real time    0.0409
    EDDIAG:  cpu time    3.4309: real time    3.4460
  RMM-DIIS:  cpu time   11.8706: real time   11.9217
    ORTHCH:  cpu time    0.1103: real time    0.1110
       DOS:  cpu time    0.0001: real time    0.0001
    CHARGE:  cpu time    1.3824: real time    1.3890
    MIXING:  cpu time    0.2890: real time    0.2906
    --------------------------------------------
      LOOP:  cpu time  117.9862: real time  118.5466

 eigenvalue-minimisations  :   192
 total energy-change (2. order) :-0.1201633E-01  (-0.2594103E-04)
 number of electron      42.9999998 magnetization       1.1177690
 augmentation part        1.1306595 magnetization       0.2249043

 Broyden mixing:
  rms(total) = 0.33739E-02    rms(broyden)= 0.33738E-02
  rms(prec ) = 0.34216E-02
  weight for this iteration     100.00

 eigenvalues of (default mixing * dielectric matrix)
  average eigenvalue GAMMA=   3.0178
 22.6182  9.4444  5.3227  3.1343  2.3346  2.3346  1.6268  1.3139  1.0975  1.0975
  1.0187  0.9505  0.9505  0.7942  0.7386  0.6921  0.6118  0.6287  0.6287

 Free energy of the ion-electron system (eV)
  ---------------------------------------------------
  alpha Z        PSCENC =         0.12465185
  Ewald energy   TEWEN  =      4285.84436622
  -Hartree energ DENC   =     -5164.05894827
  -exchange      EXHF   =         0.00000000
  -V(xc)+E(xc)   XCENC  =       143.00937607
  PAW double counting   =      3082.12889666    -3088.01188348
  entropy T*S    EENTRO =        -0.00000000
  eigenvalues    EBANDS =      -560.53485147
  atomic energy  EATOM  =      1334.72182766
  Solvation  Ediel_sol  =      -146.18793263
  ---------------------------------------------------
  free energy    TOTEN  =      -112.96449739 eV

  energy without entropy =     -112.96449739  energy(sigma->0) =     -112.96449739


--------------------------------------------------------------------------------------------------------




--------------------------------------- Iteration      1(  21)  ---------------------------------------


    POTLOK:  cpu time  100.3375: real time  100.8439
    SETDIJ:  cpu time    0.0383: real time    0.0385
    EDDIAG:  cpu time    3.4395: real time    3.4559
  RMM-DIIS:  cpu time   11.6837: real time   11.7316
    ORTHCH:  cpu time    0.1103: real time    0.1109
       DOS:  cpu time    0.0002: real time    0.0002
    CHARGE:  cpu time    1.3880: real time    1.3946
    MIXING:  cpu time    0.3069: real time    0.3086
    --------------------------------------------
      LOOP:  cpu time  117.3044: real time  117.8842

 eigenvalue-minimisations  :   187
 total energy-change (2. order) :-0.7486815E-02  (-0.2540651E-04)
 number of electron      42.9999998 magnetization       1.0564741
 augmentation part        1.1305638 magnetization       0.1635952

 Broyden mixing:
  rms(total) = 0.20105E-02    rms(broyden)= 0.20104E-02
  rms(prec ) = 0.20398E-02
  weight for this iteration     100.00

 eigenvalues of (default mixing * dielectric matrix)
  average eigenvalue GAMMA=   3.0371
 24.1191  9.5696  5.4751  3.3904  2.4144  2.4144  1.6751  1.4040  1.1263  1.1263
  1.0603  1.0603  0.9157  0.9157  0.7923  0.7322  0.6819  0.6119  0.6267  0.6297

 Free energy of the ion-electron system (eV)
  ---------------------------------------------------
  alpha Z        PSCENC =         0.12465185
  Ewald energy   TEWEN  =      4285.84436622
  -Hartree energ DENC   =     -5164.27633447
  -exchange      EXHF   =         0.00000000
  -V(xc)+E(xc)   XCENC  =       143.00563773
  PAW double counting   =      3081.52397893    -3087.40670674
  entropy T*S    EENTRO =        -0.00000000
  eigenvalues    EBANDS =      -560.39793004
  atomic energy  EATOM  =      1334.72182766
  Solvation  Ediel_sol  =      -146.11147534
  ---------------------------------------------------
  free energy    TOTEN  =      -112.97198420 eV

  energy without entropy =     -112.97198420  energy(sigma->0) =     -112.97198420


--------------------------------------------------------------------------------------------------------




--------------------------------------- Iteration      1(  22)  ---------------------------------------


    POTLOK:  cpu time   95.6707: real time   96.1471
    SETDIJ:  cpu time    0.0399: real time    0.0402
    EDDIAG:  cpu time    3.4393: real time    3.4553
  RMM-DIIS:  cpu time   11.6600: real time   11.7096
    ORTHCH:  cpu time    0.1095: real time    0.1102
       DOS:  cpu time    0.0002: real time    0.0002
    CHARGE:  cpu time    1.3828: real time    1.3906
    MIXING:  cpu time    0.3263: real time    0.3294
    --------------------------------------------
      LOOP:  cpu time  112.6288: real time  113.1827

 eigenvalue-minimisations  :   185
 total energy-change (2. order) :-0.8058329E-02  (-0.1082348E-04)
 number of electron      42.9999998 magnetization       1.0208914
 augmentation part        1.1305080 magnetization       0.1279940

 Broyden mixing:
  rms(total) = 0.13318E-02    rms(broyden)= 0.13317E-02
  rms(prec ) = 0.13532E-02
  weight for this iteration     100.00

 eigenvalues of (default mixing * dielectric matrix)
  average eigenvalue GAMMA=   3.0680
 25.1579  9.6700  5.6968  3.9050  2.4989  2.4989  2.1188  1.5797  1.2421  1.1268
  1.1268  1.0396  0.9669  0.9669  0.8200  0.7618  0.7148  0.6677  0.6123  0.6278
  0.6278

 Free energy of the ion-electron system (eV)
  ---------------------------------------------------
  alpha Z        PSCENC =         0.12465185
  Ewald energy   TEWEN  =      4285.84436622
  -Hartree energ DENC   =     -5164.36328764
  -exchange      EXHF   =         0.00000000
  -V(xc)+E(xc)   XCENC  =       142.99840767
  PAW double counting   =      3081.15880805    -3087.04154465
  entropy T*S    EENTRO =        -0.00000000
  eigenvalues    EBANDS =      -560.39623006
  atomic energy  EATOM  =      1334.72182766
  Solvation  Ediel_sol  =      -146.02704164
  ---------------------------------------------------
  free energy    TOTEN  =      -112.98004253 eV

  energy without entropy =     -112.98004253  energy(sigma->0) =     -112.98004253


--------------------------------------------------------------------------------------------------------




--------------------------------------- Iteration      1(  23)  ---------------------------------------


    POTLOK:  cpu time   94.6235: real time   95.0921
    SETDIJ:  cpu time    0.0394: real time    0.0396
    EDDIAG:  cpu time    3.4507: real time    3.4665
  RMM-DIIS:  cpu time   10.9873: real time   11.0321
    ORTHCH:  cpu time    0.1108: real time    0.1115
       DOS:  cpu time    0.0004: real time    0.0004
    CHARGE:  cpu time    1.3866: real time    1.3937
    MIXING:  cpu time    0.3366: real time    0.3385
    --------------------------------------------
      LOOP:  cpu time  110.9353: real time  111.4742

 eigenvalue-minimisations  :   173
 total energy-change (2. order) :-0.3804844E-02  (-0.4368345E-05)
 number of electron      42.9999998 magnetization       1.0112492
 augmentation part        1.1305207 magnetization       0.1183500

 Broyden mixing:
  rms(total) = 0.75843E-03    rms(broyden)= 0.75840E-03
  rms(prec ) = 0.76940E-03
  weight for this iteration     100.00

 eigenvalues of (default mixing * dielectric matrix)
  average eigenvalue GAMMA=   3.0303
 25.5295  9.7084  5.8880  4.2460  2.6760  2.3533  2.3046  1.4939  1.4375  1.1561
  1.1561  1.0338  1.0338  0.9254  0.9254  0.8105  0.7598  0.7037  0.6559  0.6130
  0.6279  0.6279

 Free energy of the ion-electron system (eV)
  ---------------------------------------------------
  alpha Z        PSCENC =         0.12465185
  Ewald energy   TEWEN  =      4285.84436622
  -Hartree energ DENC   =     -5164.41200382
  -exchange      EXHF   =         0.00000000
  -V(xc)+E(xc)   XCENC  =       142.99366897
  PAW double counting   =      3080.84371631    -3086.72663880
  entropy T*S    EENTRO =        -0.00000000
  eigenvalues    EBANDS =      -560.43163928
  atomic energy  EATOM  =      1334.72182766
  Solvation  Ediel_sol  =      -145.94179650
  ---------------------------------------------------
  free energy    TOTEN  =      -112.98384737 eV

  energy without entropy =     -112.98384737  energy(sigma->0) =     -112.98384737


--------------------------------------------------------------------------------------------------------




--------------------------------------- Iteration      1(  24)  ---------------------------------------


    POTLOK:  cpu time   91.5791: real time   92.0305
    SETDIJ:  cpu time    0.0412: real time    0.0415
    EDDIAG:  cpu time    3.4412: real time    3.4587
  RMM-DIIS:  cpu time    9.6509: real time    9.6933
    ORTHCH:  cpu time    0.1085: real time    0.1092
       DOS:  cpu time    0.0002: real time    0.0002
    CHARGE:  cpu time    1.3859: real time    1.3924
    MIXING:  cpu time    0.3609: real time    0.3628
    --------------------------------------------
      LOOP:  cpu time  106.5678: real time  107.0885

 eigenvalue-minimisations  :   149
 total energy-change (2. order) :-0.1606267E-02  (-0.8217244E-06)
 number of electron      42.9999998 magnetization       1.0037520
 augmentation part        1.1305282 magnetization       0.1108526

 Broyden mixing:
  rms(total) = 0.53560E-03    rms(broyden)= 0.53559E-03
  rms(prec ) = 0.54353E-03
  weight for this iteration     100.00

 eigenvalues of (default mixing * dielectric matrix)
  average eigenvalue GAMMA=   3.0288
 25.7488  9.7497  6.1637  4.6443  2.9625  2.4112  2.4112  1.8811  1.6071  1.1571
  1.1571  1.1719  1.0020  1.0020  0.9802  0.8617  0.7694  0.7694  0.6960  0.6129
  0.6454  0.6274  0.6300

 Free energy of the ion-electron system (eV)
  ---------------------------------------------------
  alpha Z        PSCENC =         0.12465185
  Ewald energy   TEWEN  =      4285.84436622
  -Hartree energ DENC   =     -5164.43721517
  -exchange      EXHF   =         0.00000000
  -V(xc)+E(xc)   XCENC  =       142.99158113
  PAW double counting   =      3080.87656429    -3086.75950580
  entropy T*S    EENTRO =        -0.00000000
  eigenvalues    EBANDS =      -560.44866367
  atomic energy  EATOM  =      1334.72182766
  Solvation  Ediel_sol  =      -145.89906015
  ---------------------------------------------------
  free energy    TOTEN  =      -112.98545364 eV

[...]
  -exchange      EXHF   =         0.00000000
  -V(xc)+E(xc)   XCENC  =       142.98422868
  PAW double counting   =      3079.68038201    -3085.56206155
  entropy T*S    EENTRO =        -0.00000000
  eigenvalues    EBANDS =      -560.59401031
  atomic energy  EATOM  =      1334.72182766
  Solvation  Ediel_sol  =      -145.71769356
  ---------------------------------------------------
  free energy    TOTEN  =      -113.00251607 eV

  energy without entropy =     -113.00251607  energy(sigma->0) =     -113.00251607


--------------------------------------------------------------------------------------------------------




--------------------------------------- Iteration     87(   3)  ---------------------------------------


    POTLOK:  cpu time   94.6782: real time   95.1458
    SETDIJ:  cpu time    0.0400: real time    0.0402
    EDDIAG:  cpu time    3.4327: real time    3.4481
  RMM-DIIS:  cpu time    9.4458: real time    9.4842
    ORTHCH:  cpu time    0.1113: real time    0.1120
       DOS:  cpu time    0.0001: real time    0.0001
    --------------------------------------------
      LOOP:  cpu time  107.7080: real time  108.2303

 eigenvalue-minimisations  :   148
 total energy-change (2. order) :-0.2145543E-05  (-0.1325915E-05)
 number of electron      43.0000002 magnetization       1.0000000
 augmentation part        1.1301219 magnetization       0.1072569

 Free energy of the ion-electron system (eV)
  ---------------------------------------------------
  alpha Z        PSCENC =         0.12465185
  Ewald energy   TEWEN  =      4289.98975756
  -Hartree energ DENC   =     -5168.63366721
  -exchange      EXHF   =         0.00000000
  -V(xc)+E(xc)   XCENC  =       142.98408298
  PAW double counting   =      3079.90059064    -3085.78234006
  entropy T*S    EENTRO =        -0.00000000
  eigenvalues    EBANDS =      -560.58737523
  atomic energy  EATOM  =      1334.72182766
  Solvation  Ediel_sol  =      -145.72004640
  ---------------------------------------------------
  free energy    TOTEN  =      -113.00251822 eV

  energy without entropy =     -113.00251822  energy(sigma->0) =     -113.00251822


--------------------------------------------------------------------------------------------------------




 average (electrostatic) potential at core
  the test charge radii are     0.6991  0.7089  0.5201
  (the norm of the test charge is              1.0000)
       1 -60.1960       2 -58.8944       3 -60.2548       4 -58.7717       5 -60.1804
       6 -58.8658       7 -76.4117       8 -42.1400       9 -42.0990      10 -42.0787
      11 -42.7191      12 -42.7014      13 -42.0745      14 -42.0834      15 -42.0450
      16 -42.8743      17 -42.7854      18 -42.0664      19 -42.0530      20 -42.1222
      21 -42.6828      22 -42.6967
 
 
 
 E-fermi :  -6.6410     XC(G=0):  -0.0393     alpha+bet : -0.0172


 spin component 1

 k-point     1 :       0.0000    0.0000    0.0000
  band No.  band energies     occupation 
      1     -25.4687      1.00000
      2     -19.9952      1.00000
      3     -19.9396      1.00000
      4     -18.2372      1.00000
      5     -16.7964      1.00000
      6     -16.2577      1.00000
      7     -14.4333      1.00000
      8     -13.3954      1.00000
      9     -13.1854      1.00000
     10     -12.1074      1.00000
     11     -11.3422      1.00000
     12     -11.2058      1.00000
     13     -10.6914      1.00000
     14     -10.0765      1.00000
     15      -9.8718      1.00000
     16      -9.8148      1.00000
     17      -9.4531      1.00000
     18      -9.2935      1.00000
     19      -9.0663      1.00000
     20      -8.9436      1.00000
     21      -8.8408      1.00000
     22      -6.8686      1.00000
     23      -0.5580      0.00000
     24      -0.1885      0.00000
     25      -0.1229      0.00000
     26      -0.0542      0.00000
     27      -0.0020      0.00000
     28       0.0829      0.00000
     29       0.0840      0.00000
     30       0.0935      0.00000
     31       0.0944      0.00000
     32       0.0991      0.00000
     33       0.1108      0.00000
     34       0.1714      0.00000
     35       0.1731      0.00000
     36       0.1752      0.00000
     37       0.1756      0.00000
     38       0.1763      0.00000
     39       0.1798      0.00000
     40       0.1805      0.00000
     41       0.1823      0.00000
     42       0.2018      0.00000
     43       0.2042      0.00000
     44       0.2093      0.00000
     45       0.2300      0.00000
     46       0.2628      0.00000
     47       0.2653      0.00000
     48       0.2705      0.00000

 spin component 2

 k-point     1 :       0.0000    0.0000    0.0000
  band No.  band energies     occupation 
      1     -24.8302      1.00000
      2     -19.9057      1.00000
      3     -19.8422      1.00000
      4     -18.0687      1.00000
      5     -16.6870      1.00000
      6     -16.1716      1.00000
      7     -14.2704      1.00000
      8     -13.1224      1.00000
      9     -12.9792      1.00000
     10     -11.7516      1.00000
     11     -11.2586      1.00000
     12     -11.1152      1.00000
     13     -10.5264      1.00000
     14      -9.9759      1.00000
     15      -9.7810      1.00000
     16      -9.7294      1.00000
     17      -9.3953      1.00000
     18      -9.2051      1.00000
     19      -8.9868      1.00000
     20      -8.9033      1.00000
     21      -8.7970      1.00000
     22      -5.3072      0.00000
     23      -0.5275      0.00000
     24      -0.1611      0.00000
     25      -0.1083      0.00000
     26      -0.0268      0.00000
     27      -0.0015      0.00000
     28       0.0839      0.00000
     29       0.0844      0.00000
     30       0.0951      0.00000
     31       0.0954      0.00000
     32       0.1002      0.00000
     33       0.1123      0.00000
     34       0.1743      0.00000
     35       0.1753      0.00000
     36       0.1760      0.00000
     37       0.1769      0.00000
     38       0.1771      0.00000
     39       0.1799      0.00000
     40       0.1810      0.00000
     41       0.1818      0.00000
     42       0.2047      0.00000
     43       0.2066      0.00000
     44       0.2115      0.00000
     45       0.2321      0.00000
     46       0.2643      0.00000
     47       0.2664      0.00000
     48       0.2713      0.00000


--------------------------------------------------------------------------------------------------------


 soft charge-density along one line, spin component           1
         0         1         2         3         4         5         6         7         8         9
 total charge-density along one line
 
 soft charge-density along one line, spin component           2
         0         1         2         3         4         5         6         7         8         9
 total charge-density along one line
 
 pseudopotential strength for first ion, spin component:           1
 10.336  13.748   0.000  -0.005   0.004  -0.001   0.015  -0.013
 13.748  18.285   0.001  -0.006   0.006  -0.002   0.019  -0.018
  0.000   0.001  -4.449   0.000  -0.000   8.707  -0.001   0.001
 -0.005  -0.006   0.000  -4.456   0.004  -0.001   8.720  -0.008
  0.004   0.006  -0.000   0.004  -4.456   0.001  -0.008   8.722
 -0.001  -0.002   8.707  -0.001   0.001 -19.182   0.002  -0.002
  0.015   0.019  -0.001   8.720  -0.008   0.002 -19.210   0.017
 -0.013  -0.018   0.001  -0.008   8.722  -0.002   0.017 -19.215
 pseudopotential strength for first ion, spin component:           2
 10.337  13.750   0.000  -0.006   0.005  -0.001   0.017  -0.015
 13.750  18.288   0.001  -0.007   0.006  -0.002   0.022  -0.019
  0.000   0.001  -4.450   0.001  -0.001   8.709  -0.001   0.001
 -0.006  -0.007   0.001  -4.457   0.008  -0.001   8.722  -0.015
  0.005   0.006  -0.001   0.008  -4.457   0.001  -0.015   8.722
 -0.001  -0.002   8.709  -0.001   0.001 -19.184   0.002  -0.003
  0.017   0.022  -0.001   8.722  -0.015   0.002 -19.212   0.029
 -0.015  -0.019   0.001  -0.015   8.722  -0.003   0.029 -19.215
 total augmentation occupancy for first ion, spin component:           1
  7.611  -3.326   0.021  -0.044   0.159   0.005  -0.032   0.037
 -3.326   1.506  -0.018   0.106  -0.155  -0.003   0.027  -0.025
  0.021  -0.018   1.720   0.003  -0.016   0.130  -0.001   0.001
 -0.044   0.106   0.003   1.540   0.078  -0.001   0.133  -0.008
  0.159  -0.155  -0.016   0.078   1.480   0.001  -0.008   0.133
  0.005  -0.003   0.130  -0.001   0.001   0.010  -0.000   0.000
 -0.032   0.027  -0.001   0.133  -0.008  -0.000   0.013  -0.002
  0.037  -0.025   0.001  -0.008   0.133   0.000  -0.002   0.013
 total augmentation occupancy for first ion, spin component:           2
  0.008  -0.011  -0.002   0.004  -0.013  -0.000  -0.000  -0.001
 -0.011   0.008   0.001   0.003   0.007   0.000   0.001   0.000
 -0.002   0.001  -0.004   0.001  -0.001   0.000  -0.000   0.000
  0.004   0.003   0.001  -0.000   0.025  -0.000   0.000   0.000
 -0.013   0.007  -0.001   0.025   0.003   0.000   0.000   0.000
 -0.000   0.000   0.000  -0.000   0.000   0.000  -0.000   0.000
 -0.000   0.001  -0.000   0.000   0.000  -0.000   0.000  -0.000
 -0.001   0.000   0.000   0.000   0.000   0.000  -0.000   0.000


------------------------ aborting loop because EDIFF is reached ----------------------------------------


    CHARGE:  cpu time    1.3775: real time    1.3838
    FORLOC:  cpu time    0.3018: real time    0.3029
    FORNL :  cpu time    5.1569: real time    5.1788
    STRESS:  cpu time   15.7751: real time   15.8548
    FORCOR:  cpu time    5.0445: real time    5.0663
    FORHAR:  cpu time    0.8810: real time    0.8851
    MIXING:  cpu time    0.1102: real time    0.1107
    OFIELD:  cpu time    0.0000: real time    0.0000

 ---------------------------------------------------------------------------------------------

         DFTD3 V3.0 Rev 1        
 Edisp (eV)   -0.26437

 E6    (eV) :    -0.1107
 E8    (eV) :    -0.1536
 % E8        : 58.11
    FORVDW:  cpu time    0.0089: real time    0.0323

  FORCE on cell =-STRESS in cart. coord.  units (eV):
  Direction    XX          YY          ZZ          XY          YZ          ZX
  --------------------------------------------------------------------------------------
  Alpha Z     0.12465     0.12465     0.12465
  Ewald    1631.52034  1830.03405   828.43477   185.57763    73.72651  -231.81196
  Hartree  1910.72155  2033.45935  1224.43533   153.65502    61.52547  -150.56504
  E(xc)    -155.92072  -155.47487  -156.01856     0.03097     0.04322    -0.42094
  Local   -3929.83741 -4242.00548 -2437.06420  -340.39638  -133.39006   371.34379
  n-local   -78.79547   -79.32990   -79.97297     0.56784    -0.14766     0.51369
  augment     0.71699     0.67180     0.69590     0.01081    -0.02389     0.07370
  Kinetic   621.20116   612.35144   619.78329     0.49415    -1.64941    10.62823
  Fock        0.00000     0.00000     0.00000     0.00000     0.00000     0.00000
  vdW        -0.09293    -0.08219     0.02196    -0.02386    -0.01955     0.02519
  -------------------------------------------------------------------------------------
  Total      -0.36183    -0.25113     0.44017    -0.08381     0.06463    -0.21334
  in kB      -0.00906    -0.00629     0.01102    -0.00210     0.00162    -0.00534
  external pressure =       -0.00 kB  Pullay stress =        0.00 kB


 VOLUME and BASIS-vectors are now :
 -----------------------------------------------------------------------------
  energy-cutoff  :      500.00
  volume of cell :    64000.00
      direct lattice vectors                 reciprocal lattice vectors
    40.000000000  0.000000000  0.000000000     0.025000000  0.000000000  0.000000000
     0.000000000 40.000000000  0.000000000     0.000000000  0.025000000  0.000000000
     0.000000000  0.000000000 40.000000000     0.000000000  0.000000000  0.025000000

  length of vectors
    40.000000000 40.000000000 40.000000000     0.025000000  0.025000000  0.025000000


 FORCES acting on ions
    electron-ion (+dipol)            ewald-force                    non-local-force                 convergence-correction
 -----------------------------------------------------------------------------------------------
   0.955E+02 -.305E+01 -.165E+03   -.101E+03 0.234E+01 0.170E+03   0.460E+01 0.449E+00 -.515E+01   -.149E-03 -.235E-03 -.778E-03
   0.190E+03 0.702E+01 0.152E+02   -.194E+03 -.739E+01 -.162E+02   0.229E+01 0.150E+00 0.102E+01   -.567E-03 0.130E-02 -.187E-02
   -.824E+02 0.101E+03 0.132E+03   0.852E+02 -.107E+03 -.135E+03   -.276E+01 0.523E+01 0.290E+01   -.205E-03 0.416E-03 0.109E-02
   -.401E+02 0.183E+03 -.276E+02   0.403E+02 -.187E+03 0.290E+02   -.228E-01 0.186E+01 -.113E+01   0.796E-03 0.881E-04 0.769E-03
   -.184E+02 -.170E+03 0.951E+02   0.206E+02 0.176E+03 -.969E+02   -.168E+01 -.613E+01 0.224E+01   -.822E-03 0.138E-02 0.428E-03
   -.138E+03 -.113E+03 -.585E+02   0.141E+03 0.114E+03 0.604E+02   -.192E+01 -.751E+00 -.134E+01   0.120E-02 -.302E-03 -.199E-02
   -.115E+02 -.128E+02 0.861E+01   0.121E+02 0.124E+02 -.744E+01   -.669E+00 0.205E+00 -.866E+00   -.223E-02 0.508E-03 0.164E-02
   0.700E+02 0.432E+01 -.436E+02   -.744E+02 -.467E+01 0.475E+02   0.403E+01 0.319E+00 -.398E+01   -.166E-03 0.174E-03 -.728E-03
   0.408E+02 0.540E+02 0.383E+02   -.416E+02 -.587E+02 -.414E+02   0.335E+00 0.468E+01 0.319E+01   0.109E-04 0.440E-03 -.306E-03
   0.474E+02 -.504E+02 0.395E+02   -.490E+02 0.548E+02 -.427E+02   0.113E+01 -.449E+01 0.328E+01   0.250E-03 -.210E-03 0.354E-04
   0.586E+01 0.510E+02 -.702E+02   -.506E+01 -.556E+02 0.737E+02   -.908E+00 0.462E+01 -.348E+01   -.385E-03 0.111E-03 -.143E-03
   0.173E+02 -.559E+02 -.670E+02   -.174E+02 0.605E+02 0.705E+02   0.693E-02 -.475E+01 -.344E+01   -.270E-03 -.136E-03 -.545E-04
   0.508E+02 0.572E+02 -.133E+02   -.559E+02 -.594E+02 0.144E+02   0.522E+01 0.188E+01 -.103E+01   0.305E-04 -.162E-03 0.214E-03
   -.334E+02 0.683E+02 0.329E+02   0.360E+02 -.726E+02 -.359E+02   -.251E+01 0.396E+01 0.315E+01   0.233E-03 0.450E-04 0.276E-03
   -.421E+02 0.292E+02 -.610E+02   0.450E+02 -.293E+02 0.659E+02   -.282E+01 -.273E+00 -.487E+01   0.241E-04 0.758E-04 0.144E-03
   0.235E+02 0.217E+02 0.836E+02   -.261E+02 -.224E+02 -.882E+02   0.273E+01 0.469E+00 0.482E+01   -.190E-03 0.570E-04 0.188E-04
   -.788E+02 0.474E+01 0.389E+02   0.841E+02 -.362E+01 -.405E+02   -.541E+01 -.127E+01 0.162E+01   0.234E-03 0.315E-03 0.322E-03
   -.753E+02 0.186E+02 -.257E+01   0.799E+02 -.219E+02 0.217E+01   -.433E+01 0.360E+01 0.588E+00   -.682E-04 -.732E-04 -.784E-03
   -.943E+01 -.258E+02 -.733E+02   0.847E+01 0.264E+02 0.789E+02   0.133E+01 -.328E+00 -.550E+01   0.608E-03 -.243E-03 -.420E-03
   -.371E+02 -.721E+02 0.120E+02   0.391E+02 0.774E+02 -.135E+02   -.175E+01 -.511E+01 0.168E+01   0.276E-03 -.514E-03 -.325E-03
   -.210E+02 -.261E+02 0.832E+02   0.226E+02 0.263E+02 -.888E+02   -.151E+01 0.618E-02 0.565E+01   -.422E-03 0.205E-03 0.260E-03
   0.466E+02 -.745E+02 0.682E+01   -.508E+02 0.784E+02 -.619E+01   0.432E+01 -.390E+01 -.653E+00   0.295E-03 -.182E-03 0.324E-03
 -----------------------------------------------------------------------------------------------
   0.329E+00 -.435E+00 0.129E+01   0.114E-12 -.853E-13 -.506E-13   -.324E+00 0.413E+00 -.131E+01   -.152E-02 0.306E-02 -.188E-02
 
 
 POSITION                                       TOTAL-FORCE (eV/Angst)
 -----------------------------------------------------------------------------------
     18.98782     20.05091     20.85148         0.010456      0.012976      0.005756
     17.61705     19.91849     20.14921         0.006772     -0.010663     -0.005024
     20.60253     19.01722     19.18651         0.006631     -0.008429     -0.014507
     20.56159     17.69902     19.94207        -0.005497     -0.002684      0.005495
     20.51521     21.48611     19.49234        -0.000202     -0.011921      0.006233
     21.72590     21.89826     20.35561        -0.000079      0.000117      0.006122
     20.04899     20.16769     19.87603         0.002583      0.002744     -0.001517
     16.84802     19.85763     20.92880        -0.001382     -0.001111      0.008577
     17.57433     19.01110     19.53534        -0.000046     -0.008019     -0.003413
     17.41801     20.79278     19.51818        -0.001272      0.006504     -0.003698
     19.17410     19.17294     21.48202        -0.000998      0.003582     -0.005654
     19.00481     20.95420     21.47407        -0.000692     -0.011404     -0.000357
     19.53878     17.35578     20.14017        -0.001755      0.004427     -0.004412
     21.05240     16.94126     19.31855        -0.005034      0.004952      0.006720
     21.10946     17.76966     20.89067        -0.006566     -0.000373      0.006709
     20.04085     18.93673     18.23249        -0.006545      0.001345     -0.000867
     21.62814     19.28656     18.89373         0.008808      0.003897     -0.004304
     22.55253     21.18774     20.23109         0.000975      0.014988      0.004089
     21.45156     21.95336     21.41605        -0.000394      0.000131     -0.000316
     22.05550     22.88962     20.02053        -0.005506      0.000798      0.000323
     20.80160     21.45607     18.43302         0.003440     -0.005014     -0.003648
     19.69084     22.19693     19.63207        -0.003697      0.003159     -0.002305
 -----------------------------------------------------------------------------------
    total drift:                                0.003070     -0.019041     -0.014788


--------------------------------------------------------------------------------------------------------



  FREE ENERGIE OF THE ION-ELECTRON SYSTEM (eV)
  ---------------------------------------------------
  free  energy   TOTEN  =      -113.26688346 eV

  energy  without entropy=     -113.26688346  energy(sigma->0) =     -113.26688346
 
 d Force = 0.8794866E-04[ 0.569E-04, 0.119E-03]  d Energy = 0.8933722E-04-0.139E-05
 d Force =-0.4164269E+00[-0.416E+00,-0.417E+00]  d Ewald  =-0.4164269E+00 0.306E-07


--------------------------------------------------------------------------------------------------------


    POTLOK:  cpu time   90.3281: real time   90.7509


--------------------------------------------------------------------------------------------------------


 Conjugate gradient step on ions:
 trial-energy change:   -0.000089  1 .order   -0.000088   -0.000119   -0.000057
  (g-gl).g = 0.309E-03      g.g   = 0.333E-03  gl.gl    = 0.253E-03
 g(Force)  = 0.333E-03   g(Stress)= 0.000E+00 ortho     = 0.169E-04
 gamma     =   1.22177
 trial     =   0.33630
 opt step  =   0.64520  (harmonic =   0.64520) maximal distance =0.00273684
 next E    =  -113.266908   (d E  =  -0.00011)


--------------------------------------------------------------------------------------------------------


  
 reached required accuracy - stopping structural energy minimisation
 writing wavefunctions
     LOOP+:  cpu time  469.3107: real time  480.6290
    4ORBIT:  cpu time    0.0000: real time    0.0000

 total amount of memory used by VASP MPI-rank0   778894. kBytes
=======================================================================

   base      :      30000. kBytes
   nonlr-proj:       2154. kBytes
   fftplans  :     192295. kBytes
   grid      :     512830. kBytes
   one-center:         18. kBytes
   wavefun   :      41597. kBytes
 
  
  
 General timing and accounting informations for this job:
 ========================================================
  
                  Total CPU time used (sec):    54810.406
                            User time (sec):    50274.010
                          System time (sec):     4536.397
                         Elapsed time (sec):    55094.458
  
                   Maximum memory used (kb):     2475416.
                   Average memory used (kb):           0.
  
                          Minor page faults:     18778898
                          Major page faults:           75
                 Voluntary context switches:        30951
