 vasp.6.3.2 27Jun22 (build Oct 25 2024 11:36:28) complex                        
  
 executed on             LinuxIFC date 2025.09.09  12:40:17
 running on   90 total cores
 distrk:  each k-point on   90 cores,    1 groups
 distr:  one band on NCORE=  10 cores,    9 groups


--------------------------------------------------------------------------------------------------------


 INCAR:
   SYSTEM = 007_red
   ISTART = 1
   ICHARG = 2
   INIWAV = 1
   LHFCALC = .TRUE.
   HFSCREEN = 0.2
   NELM = 500
   ALGO = Damped
   ISPIN = 2
   EDIFF = 1E-05
   ISMEAR = 0
   SIGMA = 0.05
   PREC = accurate
   ENCUT = 500
   LREAL = auto  	
   LDIAG = .FALSE.
   LWAVE = .TRUE.
   LCHARG = .FALSE.
   LAECHG = .FALSE.
   LVHAR = .FALSE.
   LVTOT = .FALSE.
   EDIFFG = -0.02
   IBRION = 2
   NSW = 0
   ISIF = 2
   POTIM = 0.5
   IVDW = 12
   VDW_A1 = 0.383
   VDW_S8 = 2.310
   VDW_A2 = 5.685
   LPLANE = .TRUE.
   NCORE = 10
   LSCALU = .FALSE.
   NSIM = 4
   LSOL = .TRUE.
   ISOL = 2
   R_SOLV = 2.1900
   EPSILON_INF = 1.8069
   N_MOL = 0.0115
   P_MOL = 0.82
   EB_K = 35.6880

 POTCAR:    PAW_PBE C 08Apr2002                   
 POTCAR:    PAW_PBE H 15Jun2001                   
 -----------------------------------------------------------------------------
|                                                                             |
|           W    W    AA    RRRRR   N    N  II  N    N   GGGG   !!!           |
|           W    W   A  A   R    R  NN   N  II  NN   N  G    G  !!!           |
|           W    W  A    A  R    R  N N  N  II  N N  N  G       !!!           |
|           W WW W  AAAAAA  RRRRR   N  N N  II  N  N N  G  GGG   !            |
|           WW  WW  A    A  R   R   N   NN  II  N   NN  G    G                |
|           W    W  A    A  R    R  N    N  II  N    N   GGGG   !!!           |
|                                                                             |
|     You use a magnetic or noncollinear calculation, but did not specify     |
|     the initial magnetic moment with the MAGMOM tag. Note that a            |
|     default of 1 will be used for all atoms. This ferromagnetic setup       |
|     may break the symmetry of the crystal, in particular it may rule        |
|     out finding an antiferromagnetic solution. Thence, we recommend         |
|     setting the initial magnetic moment manually or verifying carefully     |
|     that this magnetic setup is desired.                                    |
|                                                                             |
 -----------------------------------------------------------------------------

 POTCAR:    PAW_PBE C 08Apr2002                   
   SHA256 =  253f7b50bb8d59471dbedb8285d89021f4a42ed1a2c5d38a03a736e69125dd95 C/POTCAR              
   COPYR  = (c) Copyright 08Apr2002 Georg Kresse                                                    
   COPYR  = This file is part of the software VASP. Any use, copying, and all other rights are regul
   COPYR  = If you do not have a valid VASP license, you may not use, copy or distribute this file. 
   VRHFIN =C: s2p2                                                                                  
   LEXCH  = PE                                                                                      
   EATOM  =   147.1560 eV,   10.8157 Ry                                                             
                                                                                                    
   TITEL  = PAW_PBE C 08Apr2002                                                                     
   LULTRA =        F    use ultrasoft PP ?                                                          
   IUNSCR =        1    unscreen: 0-lin 1-nonlin 2-no                                               
   RPACOR =    1.200    partial core radius                                                         
   POMASS =   12.011; ZVAL   =    4.000    mass and valenz                                          
   RCORE  =    1.500    outmost cutoff radius                                                       
   RWIGS  =    1.630; RWIGS  =    0.863    wigner-seitz radius (au A)                               
   ENMAX  =  400.000; ENMIN  =  300.000 eV                                                          
   ICORE  =        2    local potential                                                             
   LCOR   =        T    correct aug charges                                                         
   LPAW   =        T    paw PP                                                                      
   EAUG   =  644.873                                                                                
   DEXC   =    0.000                                                                                
   RMAX   =    1.529    core radius for proj-oper                                                   
   RAUG   =    1.300    factor for augmentation sphere                                              
   RDEP   =    1.501    radius for radial grids                                                     
   RDEPT  =    1.300    core radius for aug-charge                                                  
                                                                                                    
   Atomic configuration                                                                             
    4 entries                                                                                       
     n  l   j            E        occ.                                                              
     1  0  0.50      -273.3789   2.0000                                                             
     2  0  0.50       -13.7508   2.0000                                                             
     2  1  0.50        -5.2854   2.0000                                                             
     3  2  1.50        -5.4423   0.0000                                                             
   Description                                                                                      
     l       E           TYP  RCUT    TYP  RCUT                                                     
     0    -13.7508458     23  1.200                                                                 
     0     -8.2022199     23  1.200                                                                 
     1     -5.2854383     23  1.500                                                                 
     1     34.0145650     23  1.500                                                                 
     2     -5.4423304      7  1.500                                                                 
  local pseudopotential read in
  partial core-charges read in
  partial kinetic energy density read in
  atomic valenz-charges read in
  non local Contribution for L=           0  read in
    real space projection operators read in
  non local Contribution for L=           0  read in
    real space projection operators read in
  non local Contribution for L=           1  read in
    real space projection operators read in
  non local Contribution for L=           1  read in
    real space projection operators read in
    PAW grid and wavefunctions read in
 
   number of l-projection  operators is LMAX  =           4
   number of lm-projection operators is LMMAX =           8
 
 POTCAR:    PAW_PBE H 15Jun2001                   
   SHA256 =  030f79b5d3ab3cf0e668861823c8fb652ff669f3e15e46930bd03bfd63a607b6 H/POTCAR              
   COPYR  = (c) Copyright 15Jun2001 Georg Kresse                                                    
   COPYR  = This file is part of the software VASP. Any use, copying, and all other rights are regul
   COPYR  = If you do not have a valid VASP license, you may not use, copy or distribute this file. 
   VRHFIN =H: ultrasoft test                                                                        
   LEXCH  = PE                                                                                      
   EATOM  =    12.4884 eV,    0.9179 Ry                                                             
                                                                                                    
   TITEL  = PAW_PBE H 15Jun2001                                                                     
   LULTRA =        F    use ultrasoft PP ?                                                          
   IUNSCR =        0    unscreen: 0-lin 1-nonlin 2-no                                               
   RPACOR =    0.000    partial core radius                                                         
   POMASS =    1.000; ZVAL   =    1.000    mass and valenz                                          
   RCORE  =    1.100    outmost cutoff radius                                                       
   RWIGS  =    0.700; RWIGS  =    0.370    wigner-seitz radius (au A)                               
   ENMAX  =  250.000; ENMIN  =  200.000 eV                                                          
   RCLOC  =    0.701    cutoff for local pot                                                        
   LCOR   =        T    correct aug charges                                                         
   LPAW   =        T    paw PP                                                                      
   EAUG   =  400.000                                                                                
   RMAX   =    1.123    core radius for proj-oper                                                   
   RAUG   =    1.200    factor for augmentation sphere                                              
   RDEP   =    1.112    radius for radial grids                                                     
   RDEPT  =    0.926    core radius for aug-charge                                                  
                                                                                                    
   Atomic configuration                                                                             
    2 entries                                                                                       
     n  l   j            E        occ.                                                              
     1  0  0.50        -6.4927   1.0000                                                             
     2  1  0.50        -3.4015   0.0000                                                             
   Description                                                                                      
     l       E           TYP  RCUT    TYP  RCUT                                                     
     0     -6.4927494     23  1.100                                                                 
     0      6.8029130     23  1.100                                                                 
     1     -4.0817478     23  1.100                                                                 
  local pseudopotential read in
  atomic valenz-charges read in
  non local Contribution for L=           0  read in
    real space projection operators read in
  non local Contribution for L=           0  read in
    real space projection operators read in
  non local Contribution for L=           1  read in
    real space projection operators read in
    PAW grid and wavefunctions read in
 
   number of l-projection  operators is LMAX  =           3
   number of lm-projection operators is LMMAX =           5
 
 Optimization of the real space projectors (new method)

 maximal supplied QI-value         = 25.13
 optimisation between [QCUT,QGAM] = [ 11.31, 22.87] = [ 35.82,146.48] Ry 
 Optimized for a Real-space Cutoff    1.03 Angstroem

   l    n(q)    QCUT    max X(q) W(low)/X(q) W(high)/X(q)  e(spline) 
   0      7    11.310   115.676    0.20E-03    0.90E-03    0.20E-06
   0      7    11.310    87.132    0.20E-03    0.89E-03    0.19E-06
   1      6    11.310     4.429    0.16E-03    0.28E-03    0.12E-06
   1      6    11.310     2.733    0.12E-03    0.21E-03    0.99E-07
 Optimization of the real space projectors (new method)

 maximal supplied QI-value         = 34.20
 optimisation between [QCUT,QGAM] = [ 11.29, 22.57] = [ 35.68,142.71] Ry 
 Optimized for a Real-space Cutoff    1.20 Angstroem

   l    n(q)    QCUT    max X(q) W(low)/X(q) W(high)/X(q)  e(spline) 
   0      8    11.287    19.460    0.22E-03    0.50E-03    0.19E-06
   0      8    11.287    12.209    0.21E-03    0.48E-03    0.18E-06
   1      8    11.287     4.655    0.21E-03    0.11E-04    0.26E-06
  PAW_PBE C 08Apr2002                   :
 energy of atom  1       EATOM= -147.1560
 kinetic energy error for atom=    0.0076 (will be added to EATOM!!)
  PAW_PBE H 15Jun2001                   :
 energy of atom  2       EATOM=  -12.4884
 kinetic energy error for atom=    0.0020 (will be added to EATOM!!)
 
 
 POSCAR: C H
  positions in direct lattice
  velocities in cartesian coordinates
 exchange correlation table for  LEXCH =        8
   RHO(1)=    0.500       N(1)  =     2000
   RHO(2)=  100.500       N(2)  =     4000
 
 POSCAR: C H
  positions in direct lattice
  velocities in cartesian coordinates
 
 POSCAR: C H
  positions in direct lattice
  velocities in cartesian coordinates
 


--------------------------------------------------------------------------------------------------------


 ion  position               nearest neighbor table
   1  0.534  0.470  0.500-  14 1.09   6 1.39   2 1.40
   2  0.552  0.500  0.500-  13 1.09   3 1.40   1 1.40
   3  0.534  0.530  0.500-  12 1.09   4 1.39   2 1.40
   4  0.500  0.530  0.500-  11 1.09   3 1.39   5 1.41
   5  0.482  0.500  0.500-   4 1.41   6 1.41   7 1.42
   6  0.500  0.470  0.500-   9 1.09   1 1.39   5 1.41
   7  0.446  0.500  0.500-   8 1.21   5 1.42
   8  0.416  0.500  0.500-  10 1.07   7 1.21
   9  0.486  0.446  0.500-   6 1.09
  10  0.389  0.500  0.500-   8 1.07
  11  0.486  0.554  0.500-   4 1.09
  12  0.548  0.554  0.500-   3 1.09
  13  0.579  0.500  0.500-   2 1.09
  14  0.548  0.446  0.500-   1 1.09
 
  LATTYP: Found a simple cubic cell.
 ALAT       =    40.0000000000
  
  Lattice vectors:
  
 A1 = (  40.0000000000,   0.0000000000,   0.0000000000)
 A2 = (   0.0000000000,  40.0000000000,   0.0000000000)
 A3 = (   0.0000000000,   0.0000000000,  40.0000000000)


Analysis of symmetry for initial positions (statically):
=====================================================================
 Subroutine PRICEL returns:
 Original cell was already a primitive cell.
 

 Routine SETGRP: Setting up the symmetry group for a 
 simple cubic supercell.


 Subroutine GETGRP returns: Found  1 space group operations
 (whereof  1 operations were pure point group operations)
 out of a pool of 48 trial point group operations.


The static configuration has the point symmetry C_1 .


Analysis of symmetry for dynamics (positions and initial velocities):
=====================================================================
 Subroutine PRICEL returns:
 Original cell was already a primitive cell.
 

 Routine SETGRP: Setting up the symmetry group for a 
 simple cubic supercell.


 Subroutine GETGRP returns: Found  1 space group operations
 (whereof  1 operations were pure point group operations)
 out of a pool of 48 trial point group operations.


The dynamic configuration has the point symmetry C_1 .


Analysis of constrained symmetry for selective dynamics:
=====================================================================
 Subroutine PRICEL returns:
 Original cell was already a primitive cell.
 

 Routine SETGRP: Setting up the symmetry group for a 
 simple cubic supercell.


 Subroutine GETGRP returns: Found  1 space group operations
 (whereof  1 operations were pure point group operations)
 out of a pool of 48 trial point group operations.


The constrained configuration has the point symmetry C_1 .


Analysis of structural, dynamic, and magnetic symmetry:
=====================================================================
 Subroutine PRICEL returns:
 Original cell was already a primitive cell.
 

 Routine SETGRP: Setting up the symmetry group for a 
 simple cubic supercell.


 Subroutine GETGRP returns: Found  1 space group operations
 (whereof  1 operations were pure point group operations)
 out of a pool of 48 trial point group operations.


The overall configuration has the point symmetry C_1 .


 Subroutine INISYM returns: Found  1 space group operations
 (whereof  1 operations are pure point group operations),
 and found     1 'primitive' translations


----------------------------------------------------------------------------------------

                                     Primitive cell                                     

  volume of cell :   64000.0000

  direct lattice vectors                    reciprocal lattice vectors
    40.000000000  0.000000000  0.000000000     0.025000000  0.000000000  0.000000000
     0.000000000 40.000000000  0.000000000     0.000000000  0.025000000  0.000000000
     0.000000000  0.000000000 40.000000000     0.000000000  0.000000000  0.025000000

  length of vectors
    40.000000000 40.000000000 40.000000000     0.025000000  0.025000000  0.025000000

  position of ions in fractional coordinates (direct lattice)
     0.534484814  0.469759921  0.499999687
     0.552028623  0.500000297  0.500000012
     0.534482460  0.530238979  0.499999688
     0.499628120  0.530369541  0.499998738
     0.481717541  0.499998168  0.499998793
     0.499630146  0.469626678  0.499998738
     0.446118134  0.499999639  0.499997015
     0.415745921  0.500009034  0.499999403
     0.485902400  0.446087599  0.499997951
     0.388991055  0.500000686  0.500011691
     0.485897585  0.553906418  0.499997940
     0.548042637  0.553898510  0.500000092
     0.579282841  0.500001648  0.500000161
     0.548047724  0.446101884  0.500000092

  ion indices of the primitive-cell ions
   primitive index   ion index
                 1           1
                 2           2
                 3           3
                 4           4
                 5           5
                 6           6
                 7           7
                 8           8
                 9           9
                10          10
                11          11
                12          12
                13          13
                14          14

----------------------------------------------------------------------------------------

 
 
 KPOINTS: K-Point Grid                            

Automatic generation of k-mesh.
 Grid dimensions read from file:
 generate k-points for:    1    1    1

 Generating k-lattice:

  Cartesian coordinates                     Fractional coordinates (reciprocal lattice)
     0.025000000  0.000000000  0.000000000     1.000000000  0.000000000  0.000000000
     0.000000000  0.025000000  0.000000000     0.000000000  1.000000000  0.000000000
     0.000000000  0.000000000  0.025000000     0.000000000  0.000000000  1.000000000

  Length of vectors
     0.025000000  0.025000000  0.025000000

  Shift w.r.t. Gamma in fractional coordinates (k-lattice)
     0.000000000  0.000000000  0.000000000

 
 Subroutine IBZKPT returns following result:
 ===========================================
 
 Found      1 irreducible k-points:
 
 Following reciprocal coordinates:
            Coordinates               Weight
  0.000000  0.000000  0.000000      1.000000
 
 Following cartesian coordinates:
            Coordinates               Weight
  0.000000  0.000000  0.000000      1.000000
 
 
 Subroutine IBZKPT_HF returns following result:
 ==============================================
 
 Found      1 k-points in 1st BZ
 the following      1 k-points will be used (e.g. in the exchange kernel)
 Following reciprocal coordinates:   # in IRBZ
  0.000000  0.000000  0.000000    1.00000000   1 t-inv F


--------------------------------------------------------------------------------------------------------




 Dimension of arrays:
   k-points           NKPTS =      1   k-points in BZ     NKDIM =      1   number of bands    NBANDS=     36
   number of dos      NEDOS =    301   number of ions     NIONS =     14
   non local maximal  LDIM  =      4   non local SUM 2l+1 LMDIM =      8
   total plane-waves  NPLWV = ******
   max r-space proj   IRMAX =   2915   max aug-charges    IRDMAX=   4885
   dimension x,y,z NGX =   294 NGY =  294 NGZ =  294
   dimension x,y,z NGXF=   588 NGYF=  588 NGZF=  588
   support grid    NGXF=   588 NGYF=  588 NGZF=  588
   ions per type =               8   6
   NGX,Y,Z   is equivalent  to a cutoff of  12.22, 12.22, 12.22 a.u.
   NGXF,Y,Z  is equivalent  to a cutoff of  24.44, 24.44, 24.44 a.u.

 SYSTEM =  007_red                                 
 POSCAR =  C H                                     

 Startparameter for this run:
   NWRITE =      2    write-flag & timer
   PREC   = accura    normal or accurate (medium, high low for compatibility)
   ISTART =      1    job   : 0-new  1-cont  2-samecut
   ICHARG =      2    charge: 1-file 2-atom 10-const
   ISPIN  =      2    spin polarized calculation?
   LNONCOLLINEAR =      F non collinear calculations
   LSORBIT =      F    spin-orbit coupling
   INIWAV =      1    electr: 0-lowe 1-rand  2-diag
   LASPH  =      F    aspherical Exc in radial PAW
 Electronic Relaxation 1
   ENCUT  =  500.0 eV  36.75 Ry    6.06 a.u.  72.93 72.93 72.93*2*pi/ulx,y,z
   ENINI  =  500.0     initial cutoff
   ENAUG  =  644.9 eV  augmentation charge cutoff
   NELM   =    500;   NELMIN=  2; NELMDL=  0     # of ELM steps 
   EDIFF  = 0.1E-04   stopping-criterion for ELM
   LREAL  =      T    real-space projection
   NLSPLINE    = F    spline interpolate recip. space projectors
   LCOMPAT=      F    compatible to vasp.4.4
   GGA_COMPAT  = T    GGA compatible to vasp.4.4-vasp.4.6
   LMAXPAW     = -100 max onsite density
   LMAXMIX     =    2 max onsite mixed and CHGCAR
   VOSKOWN=      0    Vosko Wilk Nusair interpolation
   ROPT   =   -0.00025  -0.00025
 Ionic relaxation
   EDIFFG = -.2E-01   stopping-criterion for IOM
   NSW    =      0    number of steps for IOM
   NBLOCK =      1;   KBLOCK =      1    inner block; outer block 
   IBRION =     -1    ionic relax: 0-MD 1-quasi-New 2-CG
   NFREE  =      1    steps in history (QN), initial steepest desc. (CG)
   ISIF   =      2    stress and relaxation
   IWAVPR =     10    prediction:  0-non 1-charg 2-wave 3-comb
   ISYM   =      3    0-nonsym 1-usesym 2-fastsym
   LCORR  =      T    Harris-Foulkes like correction to forces

   POTIM  = 0.5000    time-step for ionic-motion
   TEIN   =    0.0    initial temperature
   TEBEG  =    0.0;   TEEND  =   0.0 temperature during run
   SMASS  =  -3.00    Nose mass-parameter (am)
   estimated Nose-frequenzy (Omega)   =  0.10E-29 period in steps = 0.13E+47 mass=  -0.366E-25a.u.
   SCALEE = 1.0000    scale energy and forces
   NPACO  =    256;   APACO  = 10.0  distance and # of slots for P.C.
   PSTRESS=    0.0 pullay stress

  Mass of Ions in am
   POMASS =  12.01  1.00
  Ionic Valenz
   ZVAL   =   4.00  1.00
  Atomic Wigner-Seitz radii
   RWIGS  =  -1.00 -1.00
  virtual crystal weights 
   VCA    =   1.00  1.00
   NELECT =      38.0000    total number of electrons
   NUPDOWN=      -1.0000    fix difference up-down

 DOS related values:
   EMIN   =  10.00;   EMAX   =-10.00  energy-range for DOS
   EFERMI =   0.00
   ISMEAR =     0;   SIGMA  =   0.05  broadening in eV -4-tet -1-fermi 0-gaus

 Electronic relaxation 2 (details)
   IALGO  =     53    algorithm
   LDIAG  =      F    sub-space diagonalisation (order eigenvalues)
   LSUBROT=      F    optimize rotation matrix (better conditioning)
   TURBO    =      0    0=normal 1=particle mesh
   IRESTART =      0    0=no restart 2=restart with 2 vectors
   NREBOOT  =      0    no. of reboots
   NMIN     =      0    reboot dimension
   EREF     =   0.00    reference energy to select bands
   IMIX   =      4    mixing-type and parameters
     AMIX     =   0.40;   BMIX     =  1.00
     AMIX_MAG =   1.60;   BMIX_MAG =  1.00
     AMIN     =   0.10
     WC   =   100.;   INIMIX=   1;  MIXPRE=   1;  MAXMIX= -45

 Intra band minimization:
   WEIMIN = 0.0000     energy-eigenvalue tresh-hold
   EBREAK =  0.69E-07  absolut break condition
   DEPER  =   0.30     relativ break condition  

   TIME   =   0.40     timestep for ELM

  volume/ion in A,a.u.               =    4571.43     30849.52
  Fermi-wavevector in a.u.,A,eV,Ry     =   0.137597  0.260021  0.257599  0.018933
  Thomas-Fermi vector in A             =   0.790967
 
 Write flags
   LWAVE        =      T    write WAVECAR
   LDOWNSAMPLE  =      F    k-point downsampling of WAVECAR
   LCHARG       =      F    write CHGCAR
   LVTOT        =      F    write LOCPOT, total local potential
   LVHAR        =      F    write LOCPOT, Hartree potential only
   LELF         =      F    write electronic localiz. function (ELF)
   LORBIT       =      0    0 simple, 1 ext, 2 COOP (PROOUT), +10 PAW based schemes


 Dipole corrections
   LMONO  =      F    monopole corrections only (constant potential shift)
   LDIPOL =      F    correct potential (dipole corrections)
   IDIPOL =      0    1-x, 2-y, 3-z, 4-all directions 
   EPSILON=  1.0000000 bulk dielectric constant

 Exchange correlation treatment:
   GGA     =    --    GGA type
   LEXCH   =     8    internal setting for exchange type
   LIBXC   =     F    Libxc                    
   VOSKOWN =     0    Vosko Wilk Nusair interpolation
   EXXOEP  =     0    0=HF, 1=EXX-LHF (local Hartree Fock) 2=EXX OEP
   LHFCALC =     T    Hartree Fock is set to
   LSYMGRAD=     F    symmetrize gradient (conserves proper symmetry)
   PRECFOCK=normal    Normal, Fast or Accurate (Low or Medium for compatibility)
   LRHFCALC=     F    long range Hartree Fock
   LRSCOR  =     F    long range correlation only (use DFT for short range part)
   LTHOMAS =     F    Thomas Fermi screening in HF
   LMODELHF=     F    short range full HF, long range fraction AEXX
   FOCKCORR=     1    mode to apply convergence corrections
   LFOCKACE=     T    use Adeptively-Compressed-Exchange operator
   ENCUT4O =  -1.0   cutoff for four orbital integrals eV
   LMAXFOCK=     4    L truncation for augmentation on plane wave grid
   LMAXFOCKAE=  -1    L truncation for all-electron charge restoration on plane wave grid
   NMAXFOCKAE=   1    number of basis functions for all-electron charge restoration
   LFOCKAEDFT=     F  apply the AE augmentation even for DFT
   NKREDX  =     1    reduce k-point grid by
   NKREDY  =     1    reduce k-point grid by
   NKREDZ  =     1    reduce k-point grid by
   SHIFTRED=     F    shift reduced grid of Gamma
   HFKIDENT=     F    idential grid for each k-point
   ODDONLY =     F    use only odd q-grid points
   EVENONLY=     F    use only even q-grid points
   HFALPHA =   -1.0000 decay constant for conv. correction
   MCALPHA =    0.0000 extent of test-charge in conv. correction in multipole expansion
   AEXX    =    0.2500 exact exchange contribution
   HFSCREEN=    0.2000 screening length (either q_TF or 0.3 A-1)
   HFSCREENC=   0.2000 screening length for correlation (either q_TF or 0.3 A-1)
   HFRCUT  =    0.0000 spherical cutoff for potential kernel
   ALDAX   =    0.7500 LDA exchange part
   AGGAX   =    0.7500 GGA exchange part
   ALDAC   =    1.0000 LDA correlation
   AGGAC   =    1.0000 GGA correlation
   ENCUTFOCK=  -1.0 apply spherical cutoff to Coloumb kernel
   NBANDSGWLOW=     1    first orbital included in HF term
   NBLOCK_FOCK=    64    blocking factor in FOCK_ACC

 Linear response parameters
   LEPSILON=     F    determine dielectric tensor
   LRPA    =     F    only Hartree local field effects (RPA)
   LNABLA  =     F    use nabla operator in PAW spheres
   LVEL    =     F    velocity operator in full k-point grid
   CSHIFT  =0.1000    complex shift for real part using Kramers Kronig
   OMEGAMAX=  -1.0    maximum frequency
   DEG_THRESHOLD= 0.2000000E-02 threshold for treating states as degnerate
   RTIME   =   -0.100 relaxation time in fs
  (WPLASMAI=    0.000 imaginary part of plasma frequency in eV, 0.658/RTIME)
   DFIELD  = 0.0000000 0.0000000 0.0000000 field for delta impulse in time
 
  Optional k-point grid parameters
   LKPOINTS_OPT  =     F    use optional k-point grid
   KPOINTS_OPT_MODE=     1    mode for optional k-point grid
 
 Orbital magnetization related:
   ORBITALMAG=     F  switch on orbital magnetization
   LCHIMAG   =     F  perturbation theory with respect to B field
   DQ        =  0.001000  dq finite difference perturbation B field
   LLRAUG    =     F  two centre corrections for induced B field

 Solvation model:
   LSOL             =     T         switch on solvation model
   LSOL_SCF         =     T         include solvation in SCF
   ISOL             =     2         solvation model type
   EFERMI_ref       =  0.000000         reference Fermi level
   capacitance_init =  1.000000         initial capacitance
 Nonlinear solvation model:
   LNLDIEL     =     T         switch on non-linear dielectric mode
   LNLION      =     T         switch on non-linear ionic mode
   LNLTEST     =     F         test non-linear model in linear regime
   I_NLOC_SOL  =     1         type of nonlocal dielectric response
   NC_K        =  0.015000     cutoff charge density for cavities (1/Angstrom**3)
   TAU         =  0.000879     cavity formation energy (eV/Angstrom**2)
   SIGMA_K     =  0.600000     cavity width
   A_K         =  0.125000     smoothing length (Angstrom)
   R_SOLV      =  2.190000     solvent radius (Angstrom)
   R_CAV       =  0.000000     cavity radius (Angstrom)
   R_DIEL      =  1.000000     dielectric radius (Angstrom)
   R_ION       =  0.000000     ionic radius (Angstrom)
   R_B         =  0.000000     bound charge radius (Angstrom)
   SOLTEMP     =298.000000     solvent temperature (K)
   EB_K        = 35.688000     relative permittivity of the bulk solvent
   EPSILON_INF =  1.806900     optical relative permittivity of bulk solvent
   N_MOL       =  0.011500     molar density of solvent (1/Angstrom**3)
   P_MOL       =  0.820000     solvent dipole moment (e*Angstrom)
   C_MOLAR     =  0.000000     electrolyte concentration (mol/L)
   LAMBDA_D_K  =  0.000000     Debye length (Angstrom)
   ZION        =  1.000000     charge of ions in electrolyte (e)
   D_ION       = -1.000000     minimum ion packing diameter (Angstrom)



--------------------------------------------------------------------------------------------------------


 Static calculation
 charge density and potential will be updated during run
 spin polarized calculation
 Conjugate gradient for all bands (Kresse, et al. variant)
 perform Loewdin sub-space diagonalisation
    ordering is kept fixed
    before iterative eigenvector-optimisation
 modified Broyden-mixing scheme, WC =      100.0
 initial mixing is a Kerker type mixing with AMIX =  0.4000 and BMIX =      1.0000
 Hartree-type preconditioning will be used
 using additional bands           17
 real space projection scheme for non local part
 use partial core corrections
 no Harris-corrections to forces 
 use gradient corrections 
 use of overlap-Matrix (Vanderbilt PP)
 Gauss-broadening in eV      SIGMA  =   0.05


--------------------------------------------------------------------------------------------------------


  energy-cutoff  :      500.00
  volume of cell :    64000.00
      direct lattice vectors                 reciprocal lattice vectors
    40.000000000  0.000000000  0.000000000     0.025000000  0.000000000  0.000000000
     0.000000000 40.000000000  0.000000000     0.000000000  0.025000000  0.000000000
     0.000000000  0.000000000 40.000000000     0.000000000  0.000000000  0.025000000

  length of vectors
    40.000000000 40.000000000 40.000000000     0.025000000  0.025000000  0.025000000


 
 old parameters found on file WAVECAR:
  energy-cutoff  :      500.00
  volume of cell :    64000.00
      direct lattice vectors                 reciprocal lattice vectors
    40.000000000  0.000000000  0.000000000     0.025000000  0.000000000  0.000000000
     0.000000000 40.000000000  0.000000000     0.000000000  0.025000000  0.000000000
     0.000000000  0.000000000 40.000000000     0.000000000  0.000000000  0.025000000

  length of vectors

 
 k-points in units of 2pi/SCALE and weight: K-Point Grid                            
   0.00000000  0.00000000  0.00000000       1.000
 
 k-points in reciprocal lattice and weights: K-Point Grid                            
   0.00000000  0.00000000  0.00000000       1.000
 
 position of ions in fractional coordinates (direct lattice) 
   0.53448481  0.46975992  0.49999969
   0.55202862  0.50000030  0.50000001
   0.53448246  0.53023898  0.49999969
   0.49962812  0.53036954  0.49999874
   0.48171754  0.49999817  0.49999879
   0.49963015  0.46962668  0.49999874
   0.44611813  0.49999964  0.49999702
   0.41574592  0.50000903  0.49999940
   0.48590240  0.44608760  0.49999795
   0.38899105  0.50000069  0.50001169
   0.48589758  0.55390642  0.49999794
   0.54804264  0.55389851  0.50000009
   0.57928284  0.50000165  0.50000016
   0.54804772  0.44610188  0.50000009
 
 position of ions in cartesian coordinates  (Angst):
  21.37939255 18.79039683 19.99998748
  22.08114493 20.00001189 20.00000047
  21.37929840 21.20955914 19.99998750
  19.98512479 21.21478162 19.99994953
  19.26870163 19.99992672 19.99995171
  19.98520583 18.78506712 19.99994952
  17.84472537 19.99998554 19.99988061
  16.62983683 20.00036138 19.99997611
  19.43609599 17.84350396 19.99991803
  15.55964219 20.00002744 20.00046765
  19.43590339 22.15625674 19.99991759
  21.92170547 22.15594038 20.00000369
  23.17131366 20.00006590 20.00000643
  21.92190895 17.84407535 20.00000369
 


--------------------------------------------------------------------------------------------------------


 k-point   1 :   0.0000 0.0000 0.0000  plane waves: 1624525

 maximum and minimum number of plane-waves per node :    162473   162437

 maximum number of plane-waves:   1624525
 maximum index in each direction: 
   IXMAX=   72   IYMAX=   72   IZMAX=   72
   IXMIN=  -72   IYMIN=  -72   IZMIN=  -72


 real space projection operators:
  total allocation   :       1548.98 KBytes
  max/ min on nodes  :        165.88        147.80


 parallel 3D FFT for wavefunctions:
    minimum data exchange during FFTs selected (reduces bandwidth)
 parallel 3D FFT for charge:
    minimum data exchange during FFTs selected (reduces bandwidth)


 FFT grid for exact exchange (Hartree Fock) 
  NGX =224; NGY =224; NGZ =224

 
 Radii for the augmentation spheres in the non-local exchange
 for species   1 augmentation radius   0.874 (default was   0.699)
       energy cutoff for augmentation   2000.0
 for species   2 augmentation radius   0.650 (default was   0.520)
       energy cutoff for augmentation   2000.0

 real space projection operators:
  total allocation   :        357.40 KBytes
  max/ min on nodes  :         47.53         25.17

 Maximum index for augmentation-charges in exchange           76
  SETUP_FOCK is finished

 total amount of memory used by VASP MPI-rank0   719672. kBytes
=======================================================================

   base      :      30000. kBytes
   nonlr-proj:       1047. kBytes
   fftplans  :     224335. kBytes
   grid      :     401872. kBytes
   one-center:         12. kBytes
   HF        :          9. kBytes
   wavefun   :      62397. kBytes
 
     INWAV:  cpu time      9.8993: real time      9.9001
 Broyden mixing: mesh for mixing (old mesh)
   NGX =145   NGY =145   NGZ =145
  (NGX  =588   NGY  =588   NGZ  =588)
  gives a total of ****** points

 initial charge density was supplied:
 charge density of overlapping atoms calculated
 number of electron      38.0000000 magnetization      14.0000000
 charge density for first step will be calculated from the start-wavefunctions


--------------------------------------------------------------------------------------------------------


 Maximum index for non-local projection operator          314
 Maximum index for augmentation-charges          145 (set IRDMAX)


--------------------------------------------------------------------------------------------------------


 initial charge from wavefunction
 First call to EWALD:  gamma=   0.044
 Maximum number of real-space cells 3x 3x 3
 Maximum number of reciprocal cells 3x 3x 3

    FEWALD:  cpu time      0.0051: real time      0.0051


--------------------------------------- Iteration      1(   1)  ---------------------------------------


    POTLOK:  cpu time     13.8360: real time     13.8370
    SETDIJ:  cpu time      0.0634: real time      0.0634
    TRIAL :  cpu time     95.4907: real time     95.4983
    CORREC:  cpu time      0.0239: real time      0.0239
    CHARGE:  cpu time      2.9879: real time      2.9881
    --------------------------------------------
      LOOP:  cpu time    112.4537: real time    112.4630

 eigenvalue-minimisations  :     0
 total energy-change (2. order) :-0.1060659E+03  (-0.8460875E-02)
 number of electron      38.0000001 magnetization       0.0000000
 augmentation part        0.8597840 magnetization       0.0000000

 Free energy of the ion-electron system (eV)
  ---------------------------------------------------
  alpha Z        PSCENC =         0.10622807
  Ewald energy   TEWEN  =      3254.64727547
  -Hartree energ DENC   =     -4250.98048128
  -exchange      EXHF   =        82.34246798
  -V(xc)+E(xc)   XCENC  =        95.79104638
  PAW double counting   =      3652.43327914    -3656.15523854
  entropy T*S    EENTRO =        -0.00000000
  eigenvalues    EBANDS =      -519.35588015
  atomic energy  EATOM  =      1235.10535425
  ---------------------------------------------------
  free energy    TOTEN  =      -106.06594868 eV

  energy without entropy =     -106.06594868  energy(sigma->0) =     -106.06594868
  exchange ACFDT corr.  =         0.00000000  see jH, gK, PRB 81, 115126


--------------------------------------------------------------------------------------------------------




--------------------------------------- Iteration      1(   2)  ---------------------------------------


    --------------------------------------------
      INIT:  cpu time      0.3933: real time      0.3933
  FINALIZE:  cpu time    115.6249: real time    115.6329
    --------------------------------------------
    POTLOK:  cpu time    134.0891: real time    134.0984
    SETDIJ:  cpu time      0.0664: real time      0.0664
    TRIAL :  cpu time     97.4647: real time     97.4713
    CORREC:  cpu time      0.4579: real time      0.4579
    CHARGE:  cpu time      3.3651: real time      3.3653
    --------------------------------------------
      LOOP:  cpu time    235.4741: real time    235.5000

 eigenvalue-minimisations  :     0
 total energy-change (2. order) : 0.1849096E+00  (-0.6749782E-02)
 number of electron      38.0000001 magnetization       0.0000000
 augmentation part        0.8606581 magnetization      -0.0000001

 Free energy of the ion-electron system (eV)
  ---------------------------------------------------
  alpha Z        PSCENC =         0.10622807
  Ewald energy   TEWEN  =      3254.64727547
  -Hartree energ DENC   =     -4251.69014036
  -exchange      EXHF   =        82.36381273
  -V(xc)+E(xc)   XCENC  =        95.81159968
  PAW double counting   =      3653.55037087    -3657.27501523
  entropy T*S    EENTRO =        -0.00000000
  eigenvalues    EBANDS =      -522.05484160
  atomic energy  EATOM  =      1235.10535425
  ---------------------------------------------------
  free energy    TOTEN  =      -105.88103910 eV

  energy without entropy =     -105.88103910  energy(sigma->0) =     -105.88103910
  exchange ACFDT corr.  =         0.00000000  see jH, gK, PRB 81, 115126


--------------------------------------------------------------------------------------------------------




--------------------------------------- Iteration      1(   3)  ---------------------------------------


    --------------------------------------------
      INIT:  cpu time      0.3963: real time      0.3963
  FINALIZE:  cpu time     63.2663: real time     63.2712
    --------------------------------------------
    POTLOK:  cpu time     79.3595: real time     79.3656
    SETDIJ:  cpu time      0.0685: real time      0.0685
    TRIAL :  cpu time     96.6971: real time     96.7045
    CORREC:  cpu time      0.1770: real time      0.1770
    CHARGE:  cpu time      2.9866: real time      2.9869
    --------------------------------------------
      LOOP:  cpu time    179.3161: real time    179.3390

 eigenvalue-minimisations  :     0
 total energy-change (2. order) :-0.4131863E-02  (-0.2247882E-02)
 number of electron      38.0000001 magnetization       0.0000000
 augmentation part        0.8605101 magnetization      -0.0000000

 Free energy of the ion-electron system (eV)
  ---------------------------------------------------
  alpha Z        PSCENC =         0.10622807
  Ewald energy   TEWEN  =      3254.64727547
  -Hartree energ DENC   =     -4253.81878573
  -exchange      EXHF   =        82.40308466
  -V(xc)+E(xc)   XCENC  =        95.84891176
  PAW double counting   =      3659.14363774    -3662.87120844
  entropy T*S    EENTRO =        -0.00000000
  eigenvalues    EBANDS =      -520.17111993
  atomic energy  EATOM  =      1235.10535425
  ---------------------------------------------------
  free energy    TOTEN  =      -105.88517096 eV

  energy without entropy =     -105.88517096  energy(sigma->0) =     -105.88517096
  exchange ACFDT corr.  =         0.00000000  see jH, gK, PRB 81, 115126


--------------------------------------------------------------------------------------------------------




--------------------------------------- Iteration      1(   4)  ---------------------------------------


    --------------------------------------------
      INIT:  cpu time      0.3930: real time      0.3930
  FINALIZE:  cpu time     60.6452: real time     60.6503
    --------------------------------------------
    POTLOK:  cpu time     77.5121: real time     77.5184
    SETDIJ:  cpu time      0.0679: real time      0.0679
    TRIAL :  cpu time     97.5553: real time     97.5634
    CORREC:  cpu time      0.1144: real time      0.1144
    CHARGE:  cpu time      2.7944: real time      2.7946
    --------------------------------------------
      LOOP:  cpu time    178.0743: real time    178.0981

 eigenvalue-minimisations  :     0
 total energy-change (2. order) :-0.1111734E-02  (-0.6587005E-03)
 number of electron      38.0000001 magnetization       0.0000000
 augmentation part        0.8599306 magnetization       0.0000000

 Free energy of the ion-electron system (eV)
  ---------------------------------------------------
  alpha Z        PSCENC =         0.10622807
  Ewald energy   TEWEN  =      3254.64727547
  -Hartree energ DENC   =     -4254.12237873
  -exchange      EXHF   =        82.39997254
  -V(xc)+E(xc)   XCENC  =        95.84461056
  PAW double counting   =      3663.34401584    -3667.07031428
  entropy T*S    EENTRO =        -0.00000000
  eigenvalues    EBANDS =      -519.96144412
  atomic energy  EATOM  =      1235.10535425
  ---------------------------------------------------
  free energy    TOTEN  =      -105.88628269 eV

  energy without entropy =     -105.88628269  energy(sigma->0) =     -105.88628269
  exchange ACFDT corr.  =         0.00000000  see jH, gK, PRB 81, 115126


--------------------------------------------------------------------------------------------------------




--------------------------------------- Iteration      1(   5)  ---------------------------------------


    --------------------------------------------
      INIT:  cpu time      0.9744: real time      0.9744
  FINALIZE:  cpu time     52.2297: real time     52.2359
    --------------------------------------------
    POTLOK:  cpu time     69.6418: real time     69.6493
    SETDIJ:  cpu time      0.0676: real time      0.0676
    TRIAL :  cpu time     98.1728: real time     98.1795
    CORREC:  cpu time      0.0021: real time      0.0021
    CHARGE:  cpu time      2.7902: real time      2.7904
    --------------------------------------------
      LOOP:  cpu time    170.6996: real time    170.7227

 eigenvalue-minimisations  :     0
 total energy-change (2. order) :-0.2756866E-03  (-0.1942777E-03)
 number of electron      38.0000001 magnetization       0.0000000
 augmentation part        0.8597424 magnetization      -0.0000000

 Free energy of the ion-electron system (eV)
  ---------------------------------------------------
  alpha Z        PSCENC =         0.10622807
  Ewald energy   TEWEN  =      3254.64727547
  -Hartree energ DENC   =     -4253.61460021
  -exchange      EXHF   =        82.38581566
  -V(xc)+E(xc)   XCENC  =        95.82928570
  PAW double counting   =      3664.84401782    -3668.56821124
  entropy T*S    EENTRO =        -0.00000000
  eigenvalues    EBANDS =      -520.44573421
  atomic energy  EATOM  =      1235.10535425
  ---------------------------------------------------
  free energy    TOTEN  =      -105.88655838 eV

  energy without entropy =     -105.88655838  energy(sigma->0) =     -105.88655838
  exchange ACFDT corr.  =         0.00000000  see jH, gK, PRB 81, 115126


--------------------------------------------------------------------------------------------------------




--------------------------------------- Iteration      1(   6)  ---------------------------------------


    --------------------------------------------
      INIT:  cpu time      0.5927: real time      0.5927
  FINALIZE:  cpu time     64.1258: real time     64.1308
    --------------------------------------------
    POTLOK:  cpu time     79.7981: real time     79.8044
    SETDIJ:  cpu time      0.0677: real time      0.0677
    TRIAL :  cpu time     98.2488: real time     98.2563
    CORREC:  cpu time      0.1991: real time      0.1991
    CHARGE:  cpu time      3.3791: real time      3.3794
    --------------------------------------------
      LOOP:  cpu time    181.7260: real time    181.7470

 eigenvalue-minimisations  :     0
 total energy-change (2. order) :-0.8168139E-04  (-0.9302265E-04)
 number of electron      38.0000001 magnetization       0.0000000
 augmentation part        0.8598184 magnetization      -0.0000000

 Free energy of the ion-electron system (eV)
  ---------------------------------------------------
  alpha Z        PSCENC =         0.10622807
  Ewald energy   TEWEN  =      3254.64727547
  -Hartree energ DENC   =     -4253.51434983
  -exchange      EXHF   =        82.38562601
  -V(xc)+E(xc)   XCENC  =        95.82824514
  PAW double counting   =      3665.28619619    -3669.01010496
  entropy T*S    EENTRO =        -0.00000000
  eigenvalues    EBANDS =      -520.52657039
  atomic energy  EATOM  =      1235.10535425
  ---------------------------------------------------
  free energy    TOTEN  =      -105.88664006 eV

  energy without entropy =     -105.88664006  energy(sigma->0) =     -105.88664006
  exchange ACFDT corr.  =         0.00000000  see jH, gK, PRB 81, 115126


--------------------------------------------------------------------------------------------------------




--------------------------------------- Iteration      1(   7)  ---------------------------------------


    --------------------------------------------
      INIT:  cpu time      0.3958: real time      0.3958
  FINALIZE:  cpu time     64.3463: real time     64.3515
    --------------------------------------------
    POTLOK:  cpu time     79.6692: real time     79.6755
    SETDIJ:  cpu time      0.0639: real time      0.0639
    TRIAL :  cpu time     97.0769: real time     97.0840
    CORREC:  cpu time      0.1106: real time      0.1107
    CHARGE:  cpu time      2.7962: real time      2.7965
    --------------------------------------------
      LOOP:  cpu time    179.7504: real time    179.7729

 eigenvalue-minimisations  :     0
 total energy-change (2. order) :-0.4660418E-04  (-0.3772093E-04)
 number of electron      38.0000001 magnetization       0.0000000
 augmentation part        0.8598892 magnetization       0.0000000

 Free energy of the ion-electron system (eV)
  ---------------------------------------------------
  alpha Z        PSCENC =         0.10622807
  Ewald energy   TEWEN  =      3254.64727547
  -Hartree energ DENC   =     -4253.64667593
  -exchange      EXHF   =        82.39040736
  -V(xc)+E(xc)   XCENC  =        95.83283858
  PAW double counting   =      3665.28123091    -3669.00560882
  entropy T*S    EENTRO =        -0.00000000
  eigenvalues    EBANDS =      -520.39571502
  atomic energy  EATOM  =      1235.10535425
  ---------------------------------------------------
  free energy    TOTEN  =      -105.88668666 eV

  energy without entropy =     -105.88668666  energy(sigma->0) =     -105.88668666
  exchange ACFDT corr.  =         0.00000000  see jH, gK, PRB 81, 115126


--------------------------------------------------------------------------------------------------------




--------------------------------------- Iteration      1(   8)  ---------------------------------------


    --------------------------------------------
      INIT:  cpu time      0.3953: real time      0.3954
  FINALIZE:  cpu time     64.9012: real time     64.9060
    --------------------------------------------
    POTLOK:  cpu time     84.4572: real time     84.4636
    SETDIJ:  cpu time      0.0674: real time      0.0674
    TRIAL :  cpu time     98.1246: real time     98.1314
    CORREC:  cpu time      0.0017: real time      0.0017
    CHARGE:  cpu time      3.1858: real time      3.1860
    --------------------------------------------
      LOOP:  cpu time    185.8665: real time    185.8876

 eigenvalue-minimisations  :     0
 total energy-change (2. order) :-0.1829650E-04  (-0.1681103E-04)
 number of electron      38.0000001 magnetization       0.0000000
 augmentation part        0.8598968 magnetization       0.0000000

 Free energy of the ion-electron system (eV)
  ---------------------------------------------------
  alpha Z        PSCENC =         0.10622807
  Ewald energy   TEWEN  =      3254.64727547
  -Hartree energ DENC   =     -4253.68719702
  -exchange      EXHF   =        82.39152737
  -V(xc)+E(xc)   XCENC  =        95.83421387
  PAW double counting   =      3664.97229244    -3668.69689062
  entropy T*S    EENTRO =        -0.00000000
  eigenvalues    EBANDS =      -520.35600345
  atomic energy  EATOM  =      1235.10535425
  ---------------------------------------------------
  free energy    TOTEN  =      -105.88670496 eV

  energy without entropy =     -105.88670496  energy(sigma->0) =     -105.88670496
  exchange ACFDT corr.  =         0.00000000  see jH, gK, PRB 81, 115126


--------------------------------------------------------------------------------------------------------




--------------------------------------- Iteration      1(   9)  ---------------------------------------


    --------------------------------------------
      INIT:  cpu time      0.7747: real time      0.7748
  FINALIZE:  cpu time     51.2369: real time     51.2410
    --------------------------------------------
    POTLOK:  cpu time     66.9362: real time     66.9416
    SETDIJ:  cpu time      0.0683: real time      0.0683
    TRIAL :  cpu time     96.6798: real time     96.6871
    CORREC:  cpu time      0.1552: real time      0.1552
    CHARGE:  cpu time      2.9793: real time      2.9797
    --------------------------------------------
      LOOP:  cpu time    166.8369: real time    166.8593

 eigenvalue-minimisations  :     0
 total energy-change (2. order) :-0.8458371E-05  (-0.6164438E-05)
 number of electron      38.0000001 magnetization       0.0000000
 augmentation part        0.8598947 magnetization      -0.0000000

 Free energy of the ion-electron system (eV)
  ---------------------------------------------------
  alpha Z        PSCENC =         0.10622807
  Ewald energy   TEWEN  =      3254.64727547
  -Hartree energ DENC   =     -4253.64609316
  -exchange      EXHF   =        82.39024849
  -V(xc)+E(xc)   XCENC  =        95.83317567
  PAW double counting   =      3664.60502509    -3668.32958211
  entropy T*S    EENTRO =        -0.00000000
  eigenvalues    EBANDS =      -520.39400050
  atomic energy  EATOM  =      1235.10535425
  ---------------------------------------------------
  free energy    TOTEN  =      -105.88671342 eV

  energy without entropy =     -105.88671342  energy(sigma->0) =     -105.88671342
  exchange ACFDT corr.  =         0.00000000  see jH, gK, PRB 81, 115126


--------------------------------------------------------------------------------------------------------


  average scaling for gradient   1.2046


 average (electrostatic) potential at core
  the test charge radii are     0.6991  0.5201
  (the norm of the test charge is              1.0000)
       1 -55.2478       2 -55.2553       3 -55.2477       4 -55.3437       5 -55.8838
       6 -55.3439       7 -55.3326       8 -55.0547       9 -38.1640      10 -39.4011
      11 -38.1640      12 -38.1136      13 -38.1156      14 -38.1136
 
 
 
 E-fermi :  -6.2730     XC(G=0):  -0.0196     alpha+bet : -0.0151

 Fermi energy:        -6.2730408913

 spin component 1

 k-point     1 :       0.0000    0.0000    0.0000
  band No.  band energies     occupation 
      1     -24.0252      1.00000
      2     -21.7849      1.00000
      3     -20.8423      1.00000
      4     -20.1621      1.00000
      5     -17.3357      1.00000
      6     -16.8769      1.00000
      7     -15.1508      1.00000
      8     -14.1300      1.00000
      9     -13.1425      1.00000
     10     -12.6823      1.00000
     11     -11.9703      1.00000
     12     -11.6633      1.00000
     13     -10.6732      1.00000
     14      -9.8829      1.00000
     15      -9.6309      1.00000
     16      -8.6852      1.00000
     17      -7.7518      1.00000
     18      -7.2268      1.00000
     19      -6.5798      1.00000
     20      -1.5936      0.00000
     21      -0.9465      0.00000
     22      -0.3387      0.00000
     23       0.2882      0.00000
     24       0.0110      0.00000
     25       0.0288      0.00000
     26       0.0453      0.00000
     27       0.1005      0.00000
     28       0.1120      0.00000
     29       0.1129      0.00000
     30       0.1325      0.00000
     31       0.1354      0.00000
     32       0.1437      0.00000
     33       0.1728      0.00000
     34       0.2032      0.00000
     35       0.3717      0.00000
     36       0.2464      0.00000
 Fermi energy:        -6.2730408913

 spin component 2

 k-point     1 :       0.0000    0.0000    0.0000
  band No.  band energies     occupation 
      1     -24.0252      1.00000
      2     -21.7849      1.00000
      3     -20.8423      1.00000
      4     -20.1621      1.00000
      5     -17.3357      1.00000
      6     -16.8769      1.00000
      7     -15.1508      1.00000
      8     -14.1300      1.00000
      9     -13.1425      1.00000
     10     -12.6823      1.00000
     11     -11.9703      1.00000
     12     -11.6633      1.00000
     13     -10.6732      1.00000
     14      -9.8829      1.00000
     15      -9.6309      1.00000
     16      -8.6852      1.00000
     17      -7.7518      1.00000
     18      -7.2268      1.00000
     19      -6.5798      1.00000
     20      -1.5936      0.00000
     21      -0.9465      0.00000
     22      -0.3387      0.00000
     23       0.2839      0.00000
     24       0.0110      0.00000
     25       0.0288      0.00000
     26       0.0453      0.00000
     27       0.1005      0.00000
     28       0.1120      0.00000
     29       0.1129      0.00000
     30       0.1325      0.00000
     31       0.1355      0.00000
     32       0.1437      0.00000
     33       0.1728      0.00000
     34       0.2043      0.00000
     35       0.3650      0.00000
     36       0.2568      0.00000


--------------------------------------------------------------------------------------------------------


 soft charge-density along one line, spin component           1
         0         1         2         3         4         5         6         7         8         9
 total charge-density along one line
 
 soft charge-density along one line, spin component           2
         0         1         2         3         4         5         6         7         8         9
 total charge-density along one line
 
 pseudopotential strength for first ion, spin component:           1
  9.999  13.295   0.001   0.000  -0.001  -0.002  -0.000   0.002
 13.295  17.678   0.001   0.000  -0.001  -0.003  -0.000   0.003
  0.001   0.001  -4.217   0.000  -0.000   8.221  -0.000   0.000
  0.000   0.000   0.000  -4.218   0.000  -0.000   8.227  -0.000
 -0.001  -0.001  -0.000   0.000  -4.217   0.000  -0.000   8.222
 -0.002  -0.003   8.221  -0.000   0.000 -18.145   0.000  -0.000
 -0.000  -0.000  -0.000   8.227  -0.000   0.000 -18.163   0.000
  0.002   0.003   0.000  -0.000   8.222  -0.000   0.000 -18.146
 pseudopotential strength for first ion, spin component:           2
  9.999  13.295   0.001   0.000  -0.001  -0.002  -0.000   0.002
 13.295  17.678   0.001   0.000  -0.001  -0.003  -0.000   0.003
  0.001   0.001  -4.217  -0.000  -0.000   8.221   0.000   0.000
  0.000   0.000  -0.000  -4.218   0.000   0.000   8.227  -0.000
 -0.001  -0.001  -0.000   0.000  -4.217   0.000  -0.000   8.222
 -0.002  -0.003   8.221   0.000   0.000 -18.145  -0.000  -0.000
 -0.000  -0.000   0.000   8.227  -0.000  -0.000 -18.163   0.000
  0.002   0.003   0.000  -0.000   8.222  -0.000   0.000 -18.146
 total augmentation occupancy for first ion, spin component:           1
  8.790  -3.965   0.212  -0.000  -0.135   0.043  -0.000  -0.027
 -3.965   1.823  -0.136   0.000   0.088  -0.025   0.000   0.016
  0.212  -0.136   1.804  -0.000   0.045   0.167  -0.000   0.009
 -0.000   0.000  -0.000   1.147   0.000  -0.000   0.075   0.000
 -0.135   0.088   0.045   0.000   1.856   0.009   0.000   0.178
  0.043  -0.025   0.167  -0.000   0.009   0.016  -0.000   0.001
 -0.000   0.000  -0.000   0.075   0.000  -0.000   0.005   0.000
 -0.027   0.016   0.009   0.000   0.178   0.001   0.000   0.018
 total augmentation occupancy for first ion, spin component:           2
 -0.000   0.000   0.000  -0.000   0.000   0.000  -0.000   0.000
  0.000  -0.000  -0.000   0.000  -0.000  -0.000   0.000  -0.000
  0.000  -0.000   0.000  -0.000  -0.000  -0.000   0.000   0.000
 -0.000   0.000  -0.000   0.000  -0.000   0.000   0.000   0.000
  0.000  -0.000  -0.000  -0.000   0.000   0.000  -0.000  -0.000
  0.000  -0.000  -0.000   0.000   0.000  -0.000   0.000   0.000
 -0.000   0.000   0.000   0.000  -0.000   0.000   0.000  -0.000
  0.000  -0.000   0.000   0.000  -0.000   0.000  -0.000  -0.000


------------------------ aborting loop because EDIFF is reached ----------------------------------------


    FORLOC:  cpu time      0.2436: real time      0.2436
    FORHF :  cpu time     48.2803: real time     48.2842
    FORNL :  cpu time      3.4016: real time      3.4018
    STRESS:  cpu time      9.9338: real time      9.9345
    FORCOR:  cpu time     14.9067: real time     14.9077
    OFIELD:  cpu time      0.0211: real time      0.0211
 WARNING: Using user supplied parameters
     VDW_A1 = 0.383
     VDW_A2 = 5.685
     VDW_S8 = 2.31
     because the xc functional is not supported. Required parameters not
     defined in the INCAR file will be replaced with PBE defaults ones.


 ---------------------------------------------------------------------------------------------

         DFTD3 V3.0 Rev 1        
 IVDW         = 12
 DF unknown   
 parameters
 VDW_S6       =    1.0000
 VDW_S8       =    2.3100
 VDW_A1       =    0.3830
 VDW_A2       =    5.6850
 k1-k3        =   16.0000    1.3333   -4.0000
 VDW_RADIUS   =   50.2022 A
 VDW_CNRADIUS =   21.1671 A
 Edisp (eV)   -0.25646

 E6    (eV) :    -0.1287
 E8    (eV) :    -0.1278
 % E8        : 49.82
    FORVDW:  cpu time      0.0081: real time      0.0081

  FORCE on cell =-STRESS in cart. coord.  units (eV):
  Direction    XX          YY          ZZ          XY          YZ          ZX
  --------------------------------------------------------------------------------------
  Alpha Z     0.10623     0.10623     0.10623
  Ewald    2253.84321  1248.20745  -247.40384    -0.08081    -0.00003    -0.00985
  Hartree  2175.68902  1486.53876   587.78889    -0.04735    -0.00001     0.00381
  E(xc)    -102.97927  -103.63712  -105.00202    -0.00006     0.00000    -0.00005
  Local   -4757.53787 -3102.54992  -764.71915     0.12184     0.00004     0.00180
  n-local   -38.11349   -40.10820   -36.94747    -0.00027    -0.00000    -0.00011
  augment    -2.36524    -2.13824    -2.02057     0.00004    -0.00000     0.00003
  Kinetic   504.92217   546.60484   600.61046     0.00800     0.00000     0.00440
  Fock      -38.02320   -35.88951   -32.53988     0.00041    -0.00000     0.00019
  vdW        -0.11901    -0.04058    -0.00000     0.00001     0.00000     0.00000
  -------------------------------------------------------------------------------------
  Total      -4.57745    -2.90628    -0.12735     0.00183    -0.00001     0.00022
  in kB      -0.11459    -0.07276    -0.00319     0.00005    -0.00000     0.00001
  external pressure =       -0.06 kB  Pullay stress =        0.00 kB


 VOLUME and BASIS-vectors are now :
 -----------------------------------------------------------------------------
  energy-cutoff  :      500.00
  volume of cell :    64000.00
      direct lattice vectors                 reciprocal lattice vectors
    40.000000000  0.000000000  0.000000000     0.025000000  0.000000000  0.000000000
     0.000000000 40.000000000  0.000000000     0.000000000  0.025000000  0.000000000
     0.000000000  0.000000000 40.000000000     0.000000000  0.000000000  0.025000000

  length of vectors
    40.000000000 40.000000000 40.000000000     0.025000000  0.025000000  0.025000000


 FORCES acting on ions:
    Electron-Ion                     Ewald-Force                    Non-Local-Force
 -----------------------------------------------------------------------------------------------
   -.111E+03 0.160E+03 -.309E-02   0.112E+03 -.161E+03 0.308E-02   -.727E+00 0.936E+00 -.340E-04
   -.197E+03 -.434E-02 -.458E-02   0.198E+03 0.418E-02 0.458E-02   -.117E+01 0.171E-04 -.277E-04
   -.111E+03 -.160E+03 -.310E-02   0.112E+03 0.161E+03 0.309E-02   -.728E+00 -.936E+00 -.331E-04
   0.479E+02 -.171E+03 0.286E-02   -.481E+02 0.173E+03 -.299E-02   0.222E+00 -.150E+01 0.108E-03
   0.802E+02 0.237E-01 -.340E-02   -.767E+02 -.245E-01 0.368E-02   -.293E+01 -.527E-03 -.102E-02
   0.479E+02 0.171E+03 0.288E-02   -.481E+02 -.173E+03 -.301E-02   0.222E+00 0.150E+01 0.109E-03
   0.734E+02 0.417E-01 0.268E-01   -.728E+02 -.469E-01 -.246E-01   -.149E+01 0.550E-02 -.177E-02
   0.208E+03 -.695E-01 0.104E-01   -.211E+03 0.731E-01 -.102E-01   0.299E+01 -.485E-02 0.598E-03
   0.325E+02 0.771E+02 0.224E-02   -.353E+02 -.821E+02 -.238E-02   0.286E+01 0.491E+01 0.164E-03
   0.713E+02 0.140E-01 -.254E-01   -.773E+02 -.153E-01 0.277E-01   0.602E+01 0.206E-02 -.292E-02
   0.325E+02 -.771E+02 0.227E-02   -.353E+02 0.821E+02 -.241E-02   0.286E+01 -.491E+01 0.167E-03
   -.438E+02 -.714E+02 -.129E-02   0.466E+02 0.763E+02 0.135E-02   -.281E+01 -.490E+01 -.915E-04
   -.834E+02 -.362E-02 -.709E-03   0.891E+02 0.386E-02 0.774E-03   -.567E+01 -.299E-03 -.200E-04
   -.438E+02 0.714E+02 -.129E-02   0.466E+02 -.763E+02 0.135E-02   -.281E+01 0.490E+01 -.916E-04
 -----------------------------------------------------------------------------------------------
   0.335E+01 -.206E-02 0.460E-02   -.107E-12 -.426E-13 -.434E-17   -.316E+01 0.157E-02 -.485E-02
 
 
 POSITION                                       TOTAL-FORCE (eV/Angst)
 -----------------------------------------------------------------------------------
     21.37939     18.79040     19.99999        -0.091294      0.181378     -0.000017
     22.08114     20.00001     20.00000        -0.244716     -0.000104      0.000002
     21.37930     21.20956     19.99999        -0.091159     -0.180987     -0.000018
     19.98512     21.21478     19.99995         0.048773     -0.223108      0.000018
     19.26870     19.99993     19.99995         0.452575     -0.001334     -0.000750
     19.98521     18.78507     19.99995         0.048532      0.223368      0.000020
     17.84473     19.99999     19.99988        -1.023162      0.000635      0.000368
     16.62984     20.00036     19.99998         0.940791     -0.001597      0.000835
     19.43610     17.84350     19.99992         0.124629      0.218411      0.000061
     15.55964     20.00003     20.00047         0.235421      0.000882     -0.000651
     19.43590     22.15626     19.99992         0.124634     -0.217529      0.000063
     21.92171     22.15594     20.00000        -0.136426     -0.230706     -0.000003
     23.17131     20.00007     20.00001        -0.251890     -0.000044      0.000077
     21.92191     17.84408     20.00000        -0.136709      0.230735     -0.000003
 -----------------------------------------------------------------------------------
    total drift:                                0.021164     -0.000436     -0.000447


--------------------------------------------------------------------------------------------------------



  FREE ENERGIE OF THE ION-ELECTRON SYSTEM (eV)
  ---------------------------------------------------
  free  energy   TOTEN  =      -106.14317217 eV

  energy  without entropy=     -106.14317217  energy(sigma->0) =     -106.14317217
 


--------------------------------------------------------------------------------------------------------


    --------------------------------------------
      INIT:  cpu time      0.5697: real time      0.5697
  FINALIZE:  cpu time     60.2211: real time     60.2259
    --------------------------------------------
    POTLOK:  cpu time     75.9673: real time     75.9733


--------------------------------------------------------------------------------------------------------


 writing wavefunctions
     LOOP+:  cpu time   1793.0433: real time   1794.0280
    4ORBIT:  cpu time      0.0000: real time      0.0000

 total amount of memory used by VASP MPI-rank0  2237419. kBytes
=======================================================================

   base      :      30000. kBytes
   nonlr-proj:       2136. kBytes
   fftplans  :     224335. kBytes
   grid      :     401872. kBytes
   one-center:         12. kBytes
   HF        :          9. kBytes
   wavefun   :      62397. kBytes
   fock_wrk  :    1516658. kBytes
 
  
  
 General timing and accounting informations for this job:
 ========================================================
  
                  Total CPU time used (sec):     1843.469
                            User time (sec):     1093.405
                          System time (sec):      750.063
                         Elapsed time (sec):     1845.474
  
                   Maximum memory used (kb):     3565440.
                   Average memory used (kb):          N/A
  
                          Minor page faults:     18869466
                          Major page faults:            0
                 Voluntary context switches:         8307
