
                                 *****************
                                 * O   R   C   A *
                                 *****************

                                            #,                                       
                                            ###                                      
                                            ####                                     
                                            #####                                    
                                            ######                                   
                                           ########,                                 
                                     ,,################,,,,,                         
                               ,,#################################,,                 
                          ,,##########################################,,             
                       ,#########################################, ''#####,          
                    ,#############################################,,   '####,        
                  ,##################################################,,,,####,       
                ,###########''''           ''''###############################       
              ,#####''   ,,,,##########,,,,          '''####'''          '####       
            ,##' ,,,,###########################,,,                        '##       
           ' ,,###''''                  '''############,,,                           
         ,,##''                                '''############,,,,        ,,,,,,###''
      ,#''                                            '''#######################'''  
     '                                                          ''''####''''         
             ,#######,   #######,   ,#######,      ##                                
            ,#'     '#,  ##    ##  ,#'     '#,    #''#        ,####,   ,####,        
            ##       ##  ##   ,#'  ##            #'  '#       #'       #'  '#        
            ##       ##  #######   ##           ,######,      #####,   #    #        
            '#,     ,#'  ##    ##  '#,     ,#' ,#      #,     #,   #   #,  ,#        
             '#######'   ##     ##  '#######'  #'      '#     '####' # '####'        



                #########################################################
                #                        -***-                          #
                #          Department of theory and spectroscopy        #
                #                                                       #
                #                      Frank Neese                      #
                #                                                       #
                #     Directorship, Architecture, Infrastructure        #
                #                    SHARK, DRIVERS                     #
                #        Core code/Algorithms in most modules           #
                #                                                       #
                #        Max Planck Institute fuer Kohlenforschung      #
                #                Kaiser Wilhelm Platz 1                 #
                #                 D-45470 Muelheim/Ruhr                 #
                #                      Germany                          #
                #                                                       #
                #                  All rights reserved                  #
                #                        -***-                          #
                #########################################################


                         Program Version 6.0.0  -   RELEASE  -


 With contributions from (in alphabetic order):
   Daniel Aravena         : Magnetic Suceptibility
   Michael Atanasov       : Ab Initio Ligand Field Theory (pilot matlab implementation)
   Alexander A. Auer      : GIAO ZORA, VPT2 properties, NMR spectrum
   Ute Becker             : All parallelization in ORCA, NUMFREQ, NUMCALC
   Giovanni Bistoni       : ED, misc. LED, open-shell LED, HFLD
   Martin Brehm           : Molecular dynamics
   Dmytro Bykov           : pre 5.0 version of the SCF Hessian
   Marcos Casanova-Páez   : Triplet and SCS-CIS(D). UHF-(DLPNO)-IP/EA/STEOM-CCSD. UHF-CVS-IP/STEOM-CCSD
   Vijay G. Chilkuri      : MRCI spin determinant printing, contributions to CSF-ICE
   Pauline Colinet        : FMM embedding
   Dipayan Datta          : RHF DLPNO-CCSD density
   Achintya Kumar Dutta   : EOM-CC, STEOM-CC
   Nicolas Foglia         : Exact transition moments, OPA infrastructure, MCD improvements
   Dmitry Ganyushin       : Spin-Orbit,Spin-Spin,Magnetic field MRCI
   Miquel Garcia          : C-PCM and meta-GGA Hessian, CCSD/C-PCM, Gaussian charge scheme
   Tiago L. C. Gouveia    : GS-ROHF, GS-ROCIS
   Yang Guo               : DLPNO-NEVPT2, F12-NEVPT2, CIM, IAO-localization
   Andreas Hansen         : Spin unrestricted coupled pair/coupled cluster methods
   Ingolf Harden          : AUTO-CI MPn and infrastructure 
   Benjamin Helmich-Paris : MC-RPA, TRAH-(SCF,CASSCF), AVAS, COSX integrals, SCF dyn. polar.
   Lee Huntington         : MR-EOM, pCC
   Robert Izsak           : Overlap fitted RIJCOSX, COSX-SCS-MP3, EOM
   Riya Kayal             : Wick's Theorem for AUTO-CI, AUTO-CI UHF-CCSDT
   Emily Kempfer          : AUTO-CI, RHF CISDT and CCSDT
   Christian Kollmar      : KDIIS, OOCD, Brueckner-CCSD(T), CCSD density, CASPT2, CASPT2-K, improved NEVPT2
   Axel Koslowski         : Symmetry handling
   Simone Kossmann        : Meta GGA functionals, TD-DFT gradient, OOMP2, (MP2 Hessian; deprecated post 5.0)
   Lucas Lang             : DCDCAS
   Marvin Lechner         : AUTO-CI (C++ implementation), FIC-MRCC
   Spencer Leger          : CASSCF response
   Dagmar Lenk            : GEPOL surface, SMD, ORCA-2-JSON
   Dimitrios Liakos       : Extrapolation schemes; Compound Job, initial MDCI parallelization
   Dimitrios Manganas     : Further ROCIS development; embedding schemes. LFT, Crystal Embedding
   Dimitrios Pantazis     : SARC Basis sets
   Anastasios Papadopoulos: AUTO-CI, single reference methods and gradients
   Taras Petrenko         : pre 6.0 DFT Hessian and TD-DFT gradient, (ASA, deprecated), ECA, 1-Electron XAS/XES, NRVS
   Peter Pinski           : DLPNO-MP2, DLPNO-MP2 Gradient
   Christoph Reimann      : Effective Core Potentials
   Marius Retegan         : Local ZFS, SOC
   Christoph Riplinger    : Optimizer, TS searches, QM/MM, DLPNO-CCSD(T), (RO)-DLPNO pert. Triples
   Michael Roemelt        : Original ROCIS implementation
   Masaaki Saitow         : Open-shell DLPNO-CCSD energy and density
   Barbara Sandhoefer     : DKH picture change effects
   Kantharuban Sivalingam : CASSCF convergence/infrastructure, NEVPT2 and variants, FIC-MRCI
   Bernardo de Souza      : ESD, SOC TD-DFT
   Georgi Stoychev        : AutoAux, RI-MP2 NMR, DLPNO-MP2 response, X2C
   Van Anh Tran           : RI-MP2 g-tensors
   Willem Van den Heuvel  : Paramagnetic NMR
   Zikuan Wang            : NOTCH, Electric field optimization 
   Frank Wennmohs         : Technical directorship and infrastructure
   Hang Xu                : AUTO-CI-Response properties 


 We gratefully acknowledge several colleagues who have allowed us to
 interface, adapt or use parts of their codes:
   Stefan Grimme, W. Hujo, H. Kruse, P. Pracht,  : VdW corrections, initial TS optimization,
                  C. Bannwarth, S. Ehlert,         DFT functionals, gCP, sTDA/sTD-DF
                  L. Wittmann, M. Mueller
   Ed Valeev, F. Pavosevic, A. Kumar             : LibInt (2-el integral package), F12 methods
   Garnet Chan, S. Sharma, J. Yang, R. Olivares  : DMRG
   Ulf Ekstrom                                   : XCFun DFT Library
   Mihaly Kallay                                 : mrcc  (arbitrary order and MRCC methods)
   Frank Weinhold                                : gennbo (NPA and NBO analysis)
   Simon Mueller                                 : openCOSMO-RS
   Christopher J. Cramer and Donald G. Truhlar   : smd solvation model
   Lars Goerigk                                  : TD-DFT with DH, B97 family of functionals
   V. Asgeirsson, H. Jonsson                     : NEB implementation
   FAccTs GmbH                                   : IRC, NEB, NEB-TS, DLPNO-Multilevel, CI-OPT
                                                   MM, QMMM, 2- and 3-layer-ONIOM, Crystal-QMMM,
                                                   LR-CPCM, SF, NACMEs, symmetry and pop. for TD-DFT,
                                                   nearIR, NL-DFT gradient (VV10), updates on ESD,
                                                   ML-optimized integration grids, MBIS, APM,
                                                   GOAT, DOCKER, SOLVATOR, interface openCOSMO-RS
   S Lehtola, MJT Oliveira, MAL Marques          : LibXC Library
   Liviu Ungur et al                             : ANISO software


 Your calculation uses the libint2 library for the computation of 2-el integrals
 For citations please refer to: http://libint.valeyev.net

 Your ORCA version has been built with support for libXC version: 6.2.2
 For citations please refer to: https://libxc.gitlab.io

 This ORCA versions uses:
   CBLAS   interface :  Fast vector & matrix operations
   LAPACKE interface :  Fast linear algebra routines
   SCALAPACK package :  Parallel linear algebra routines
   Shared memory     :  Shared parallel matrices
   BLAS/LAPACK       :  OpenBLAS 0.3.27  USE64BITINT DYNAMIC_ARCH NO_AFFINITY Sandybridge SINGLE_THREADED
        Core in use  :  Sandybridge
   Copyright (c) 2011-2014, The OpenBLAS Project


NOTE: MaxCore=3500 MB was set to SCF,MP2,MDCI,CIPSI,MRCI and CIS
      => If you want to overwrite this, your respective input block should be placed after the MaxCore statement
Your calculation utilizes the atom-pairwise dispersion correction
with the Becke-Johnson damping scheme (D3BJ)


Your calculation utilizes the SMD solvation module
Please cite in your paper:
A.V. Marenich, C.J. Cramer, D.G. Truhlar J. Phys. Chem. B, 113, (2009), 6378 

Warning: RI is on but no J-basis has been assigned. Assigning Def2/J (nothing to worry about!)
================================================================================

----- Orbital basis set information -----
Your calculation utilizes the basis: aug-cc-pVTZ 
    H, B-Ne : Obtained from the ccRepo (grant-hill.group.shef.ac.uk/ccrepo) Feb. 2017
              R. A. Kendall, T. H. Dunning, Jr., R. J. Harrison, J. Chem. Phys. 96, 6796 (1992)
         He : Obtained from the ccRepo (grant-hill.group.shef.ac.uk/ccrepo) Feb. 2017
              D. E. Woon, T. H. Dunning, Jr., J. Chem. Phys. 100, 2975 (1994)
  Li-Be, Na : Obtained from the ccRepo (grant-hill.group.shef.ac.uk/ccrepo) Feb. 2017
              B. P. Prascher, D. E. Woon, K. A. Peterson, T. H. Dunning, Jr., A. K. Wilson, Theor. Chem. Acc. 128, 69 (2011)
         Mg : Obtained from the Peterson Research Group Website (tyr0.chem.wsu.edu/~kipeters) Feb. 2017
              B. P. Prascher, D. E. Woon, K. A. Peterson, T. H. Dunning, Jr., A. K. Wilson, Theor. Chem. Acc. 128, 69 (2011)
      Al-Ar : Obtained from the ccRepo (grant-hill.group.shef.ac.uk/ccrepo) Feb. 2017
              D. E. Woon, T. H. Dunning, Jr., J. Chem. Phys. 98, 1358 (1993)
      Sc-Zn : Obtained from the ccRepo (grant-hill.group.shef.ac.uk/ccrepo) Feb. 2017
              N. B. Balabanov, K. A. Peterson, J. Chem. Phys. 123, 064107 (2005)
              N. B. Balabanov, K. A. Peterson, J. Chem. Phys. 125, 074110 (2006)
      Ga-Kr : Obtained from the ccRepo (grant-hill.group.shef.ac.uk/ccrepo) Feb. 2017
              A. K. Wilson, D. E. Woon, K. A. Peterson, T. H. Dunning, Jr., J. Chem. Phys. 110, 7667 (1999)
     Ag, Au : Obtained from the Peterson Research Group Website (tyr0.chem.wsu.edu/~kipeters) Feb. 2017
              K. A. Peterson, C. Puzzarini, Theor. Chem. Acc. 114, 283 (2005)

----- AuxJ basis set information -----
Your calculation utilizes the auxiliary basis: def2/J
   F. Weigend, Phys. Chem. Chem. Phys. 8, 1057 (2006).

================================================================================
                                        WARNINGS
                       Please study these warnings very carefully!
================================================================================


================================================================================
                                       INPUT FILE
================================================================================
NAME = cs_rporg_w08_ox_solv_05.inp
|  1> !PBE0 aug-cc-pVTZ d3 TightSCF SlowConv RIJCOSX defgrid2
|  2> 
|  3> %pal
|  4> nprocs 15
|  5> end
|  6> 
|  7> %scf
|  8> MaxIter 1500
|  9> end
| 10> 
| 11> %maxcore 3500
| 12> 
| 13> !CPCM
| 14> %cpcm smd true
| 15> SMDsolvent "WATER"
| 16> surfacetype gepol_ses
| 17> rsolv 1.40
| 18> end
| 19> 
| 20> * xyz 0 1
| 21> C          -0.04022979995253      0.10934243063256     -0.04781414840262
| 22> C          -1.20598933737927     -0.38579508968121      0.72535064655671
| 23> C           1.16762735129884      0.48320931067021      0.71660533841080
| 24> H          -2.08977721092752     -0.65804131143695      0.14047110955844
| 25> H           2.00933821779047      0.84338404791193      0.11644510533465
| 26> C          -1.15729609336593     -0.48547962221092      2.06219653568719
| 27> C           1.23994061348118      0.39162604465106      2.05974182181754
| 28> H          -1.99856910405152     -0.84630774685815      2.66159543961282
| 29> C           0.05550809013202     -0.10787998980524      2.82546584658989
| 30> O           0.08824138271929     -0.20066312730217      4.03611457894647
| 31> O          -0.08237810438593      0.20201294968745     -1.25889477385297
| 32> C           2.43938990003151      0.75910371183851      2.86443148480113
| 33> H           2.18564348705276      1.54409943819251      3.59804132816950
| 34> H           2.78911766568061     -0.10695868663051      3.45298570242047
| 35> H           3.25938092587604      1.11528426934092      2.22204567334997
| 36> *
| 37> 
| 38>                          ****END OF INPUT****
================================================================================

                       ****************************
                       * Single Point Calculation *
                       ****************************

---------------------------------
CARTESIAN COORDINATES (ANGSTROEM)
---------------------------------
  C     -0.040230    0.109342   -0.047814
  C     -1.205989   -0.385795    0.725351
  C      1.167627    0.483209    0.716605
  H     -2.089777   -0.658041    0.140471
  H      2.009338    0.843384    0.116445
  C     -1.157296   -0.485480    2.062197
  C      1.239941    0.391626    2.059742
  H     -1.998569   -0.846308    2.661595
  C      0.055508   -0.107880    2.825466
  O      0.088241   -0.200663    4.036115
  O     -0.082378    0.202013   -1.258895
  C      2.439390    0.759104    2.864431
  H      2.185643    1.544099    3.598041
  H      2.789118   -0.106959    3.452986
  H      3.259381    1.115284    2.222046

----------------------------
CARTESIAN COORDINATES (A.U.)
----------------------------
  NO LB      ZA    FRAG     MASS         X           Y           Z
   0 C     6.0000    0    12.011   -0.076023    0.206627   -0.090356
   1 C     6.0000    0    12.011   -2.278990   -0.729047    1.370714
   2 C     6.0000    0    12.011    2.206496    0.913133    1.354188
   3 H     1.0000    0     1.008   -3.949107   -1.243518    0.265452
   4 H     1.0000    0     1.008    3.797099    1.593765    0.220049
   5 C     6.0000    0    12.011   -2.186973   -0.917424    3.896987
   6 C     6.0000    0    12.011    2.343148    0.740066    3.892348
   7 H     1.0000    0     1.008   -3.776748   -1.599290    5.029686
   8 C     6.0000    0    12.011    0.104895   -0.203864    5.339357
   9 O     8.0000    0    15.999    0.166752   -0.379198    7.627151
  10 O     8.0000    0    15.999   -0.155672    0.381749   -2.378966
  11 C     6.0000    0    12.011    4.609779    1.434498    5.412991
  12 H     1.0000    0     1.008    4.130268    2.917925    6.799313
  13 H     1.0000    0     1.008    5.270669   -0.202123    6.525197
  14 H     1.0000    0     1.008    6.159337    2.107582    4.199058

--------------------------------
INTERNAL COORDINATES (ANGSTROEM)
--------------------------------
 C      0   0   0     0.000000000000     0.00000000     0.00000000
 C      1   0   0     1.483893615893     0.00000000     0.00000000
 C      1   2   0     1.477508881069   117.19978305     0.00000000
 H      2   1   3     1.094204315240   116.04317557   180.05234236
 H      3   1   2     1.094712441458   115.35176519   179.94287657
 C      2   1   3     1.341441377520   121.03300941     0.06208198
 C      3   1   2     1.348195948503   122.82589158   359.93603638
 H      6   2   1     1.094173779649   122.85600489   179.99227828
 C      6   2   1     1.481909413854   121.60538787     0.00000000
 O      9   6   2     1.214640083401   121.06142682   179.91457362
 O      1   2   3     1.215352042007   121.15831091   180.02268152
 C      7   3   1     1.490383803119   124.35455092   180.00951164
 H     12   7   3     1.103987742133   110.43389805   121.51360875
 H     12   7   3     1.103979010301   110.44837173   238.49316774
 H     12   7   3     1.100867568222   111.35672114     0.00000000

---------------------------
INTERNAL COORDINATES (A.U.)
---------------------------
 C      0   0   0     0.000000000000     0.00000000     0.00000000
 C      1   0   0     2.804152545912     0.00000000     0.00000000
 C      1   2   0     2.792087145657   117.19978305     0.00000000
 H      2   1   3     2.067746490359   116.04317557   180.05234236
 H      3   1   2     2.068706709752   115.35176519   179.94287657
 C      2   1   3     2.534956828223   121.03300941     0.06208198
 C      3   1   2     2.547721117533   122.82589158   359.93603638
 H      6   2   1     2.067688786454   122.85600489   179.99227828
 C      6   2   1     2.800402947464   121.60538787     0.00000000
 O      9   6   2     2.295337108911   121.06142682   179.91457362
 O      1   2   3     2.296682515695   121.15831091   180.02268152
 C      7   3   1     2.816417222327   124.35455092   180.00951164
 H     12   7   3     2.086234487838   110.43389805   121.51360875
 H     12   7   3     2.086217987066   110.44837173   238.49316774
 H     12   7   3     2.080338213655   111.35672114     0.00000000

---------------------
BASIS SET INFORMATION
---------------------
There are 3 groups of distinct atoms

 Group   1 Type C   : 19s6p3d2f contracted to 5s4p3d2f pattern {88111/3111/111/11}
 Group   2 Type H   : 6s3p2d contracted to 4s3p2d pattern {3111/111/11}
 Group   3 Type O   : 19s6p3d2f contracted to 5s4p3d2f pattern {88111/3111/111/11}

Atom   0C    basis set group =>   1
Atom   1C    basis set group =>   1
Atom   2C    basis set group =>   1
Atom   3H    basis set group =>   2
Atom   4H    basis set group =>   2
Atom   5C    basis set group =>   1
Atom   6C    basis set group =>   1
Atom   7H    basis set group =>   2
Atom   8C    basis set group =>   1
Atom   9O    basis set group =>   3
Atom  10O    basis set group =>   3
Atom  11C    basis set group =>   1
Atom  12H    basis set group =>   2
Atom  13H    basis set group =>   2
Atom  14H    basis set group =>   2
---------------------------------
AUXILIARY/J BASIS SET INFORMATION
---------------------------------
There are 3 groups of distinct atoms

 Group   1 Type C   : 12s5p4d2f1g contracted to 6s4p3d1f1g pattern {711111/2111/211/2/1}
 Group   2 Type H   : 5s2p1d contracted to 3s1p1d pattern {311/2/1}
 Group   3 Type O   : 12s5p4d2f1g contracted to 6s4p3d1f1g pattern {711111/2111/211/2/1}

Atom   0C    basis set group =>   1
Atom   1C    basis set group =>   1
Atom   2C    basis set group =>   1
Atom   3H    basis set group =>   2
Atom   4H    basis set group =>   2
Atom   5C    basis set group =>   1
Atom   6C    basis set group =>   1
Atom   7H    basis set group =>   2
Atom   8C    basis set group =>   1
Atom   9O    basis set group =>   3
Atom  10O    basis set group =>   3
Atom  11C    basis set group =>   1
Atom  12H    basis set group =>   2
Atom  13H    basis set group =>   2
Atom  14H    basis set group =>   2


           ************************************************************
           *        Program running with 15 parallel MPI-processes    *
           *              working on a common directory               *
           ************************************************************
------------------------------------------------------------------------------
                             ORCA STARTUP CALCULATIONS
                           -- RI-GTO INTEGRALS CHOSEN --
------------------------------------------------------------------------------
------------------------------------------------------------------------------
                   ___                                                        
                  /   \      - P O W E R E D   B Y -                         
                 /     \                                                     
                 |  |  |   _    _      __       _____    __    __             
                 |  |  |  | |  | |    /  \     |  _  \  |  |  /  |          
                  \  \/   | |  | |   /    \    | | | |  |  | /  /          
                 / \  \   | |__| |  /  /\  \   | |_| |  |  |/  /          
                |  |  |   |  __  | /  /__\  \  |    /   |      \           
                |  |  |   | |  | | |   __   |  |    \   |  |\   \          
                \     /   | |  | | |  |  |  |  | |\  \  |  | \   \       
                 \___/    |_|  |_| |__|  |__|  |_| \__\ |__|  \__/        
                                                                              
                      - O R C A' S   B I G   F R I E N D -                    
                                      &                                       
                       - I N T E G R A L  F E E D E R -                       
                                                                              
 v1 FN, 2020, v2 2021, v3 2022-2024                                           
------------------------------------------------------------------------------


----------------------
SHARK INTEGRAL PACKAGE
----------------------

Number of atoms                             ...     15
Number of basis functions                   ...    606
Number of shells                            ...    234
Maximum angular momentum                    ...      3
Integral batch strategy                     ... SHARK/LIBINT Hybrid
RI-J (if used) integral strategy            ... SPLIT-RIJ (Revised 2003 algorithm where possible)
Printlevel                                  ...      1
Contraction scheme used                     ... PARTIAL GENERAL contraction
Prescreening option                         ... SCHWARTZ
   Thresh                                   ... 2.500e-11
   Tcut                                     ... 2.500e-12
   Tpresel                                  ... 2.500e-12 
Coulomb Range Separation                    ... NOT USED
Exchange Range Separation                   ... NOT USED
Multipole approximations                    ... NOT USED
Finite Nucleus Model                        ... NOT USED
CABS basis                                  ... NOT available
Auxiliary Coulomb fitting basis             ... AVAILABLE
   # of basis functions in Aux-J            ...    507
   # of shells in Aux-J                     ...    165
   Maximum angular momentum in Aux-J        ...      4
Auxiliary J/K fitting basis                 ... NOT available
Auxiliary Correlation fitting basis         ... NOT available
Auxiliary 'external' fitting basis          ... NOT available

Checking pre-screening integrals            ... done (  0.1 sec) Dimension = 234
Save PGC pre-screening integrals            ... done (  0.1 sec) Dimension = 234
Calculate PGC overlap integrals             ... done (  0.2 sec) Dimension = 180
Calculating pre-screening integrals (ORCA)  ... done (  0.2 sec) Dimension = 180
Check shell pair data                       ... done (  0.1 sec)
Shell pair information
Shell pair cut-off parameter TPreSel        ...   2.5e-12
Total number of shell pairs                 ...     27495
Shell pairs after pre-screening             ...     23263
Total number of primitive shell pairs       ...     35025
Primitive shell pairs kept                  ...     27793
          la=0 lb=0:   5259 shell pairs
          la=1 lb=0:   5838 shell pairs
          la=1 lb=1:   1421 shell pairs
          la=2 lb=0:   4205 shell pairs
          la=2 lb=1:   2008 shell pairs
          la=2 lb=2:    740 shell pairs
          la=3 lb=0:   2006 shell pairs
          la=3 lb=1:    941 shell pairs
          la=3 lb=2:    678 shell pairs
          la=3 lb=3:    167 shell pairs

Calculating one electron integrals          ... done (  0.0 sec)
Calculating RI/J V-Matrix + Cholesky decomp.... done (  0.0 sec)
Calculating Nuclear repulsion               ... done (  0.0 sec) ENN=    404.170194957223 Eh

Diagonalization of the overlap matrix:
Smallest eigenvalue                        ... 1.091e-06
Time for diagonalization                   ...    0.080 sec
Threshold for overlap eigenvalues          ... 1.000e-07
Number of eigenvalues below threshold      ... 0
Time for construction of square roots      ...    0.062 sec
Total time needed                          ...    0.209 sec

-------------------
DFT GRID GENERATION
-------------------

General Integration Accuracy     IntAcc      ... 4.388
Radial Grid Type                 RadialGrid  ... OptM3 with GC (2021)
Angular Grid (max. ang.)         AngularGrid ... 4 (Lebedev-302)
Angular grid pruning method      GridPruning ... 4 (adaptive)
Weight generation scheme         WeightScheme... mBecke (2022)
Basis function cutoff            BFCut       ... 1.0000e-11
Integration weight cutoff        WCut        ... 1.0000e-14
Partially contracted basis set               ... off
Rotationally invariant grid construction     ... off
Angular grids for H and He will be reduced by one unit
Diffuse basis detected: some atoms will have their outermost
                        angular grid increased by 1.

Total number of grid points                  ...    77249
Total number of batches                      ...     1216
Average number of points per batch           ...       63
Average number of grid points per atom       ...     5150

---------------------
SHARK GRID GENERATION
---------------------

General Integration Accuracy     IntAcc      ... 4.388
Radial Grid Type                 RadialGrid  ... OptM3 with GC (2021)
Angular Grid (max. ang.)         AngularGrid ... 4 (Lebedev-302)
Angular grid pruning method      GridPruning ... 4 (adaptive)
Weight generation scheme         WeightScheme... mBecke (2022)
Basis function cutoff            BFCut       ... 1.0000e-11
Integration weight cutoff        WCut        ... 1.0000e-14
Partially contracted basis set               ... off
Rotationally invariant grid construction     ... off
Angular grids for H and He will be reduced by one unit
Diffuse basis detected: some atoms will have their outermost
                        angular grid increased by 1.
Steep s-basis detected: some atoms will have their radial
                        grid points doubled.

Total number of grid points                  ...   134432
Total number of batches                      ...     2109
Average number of points per batch           ...       63
Average number of grid points per atom       ...     8962

--------------------
COSX GRID GENERATION
--------------------

GRIDX 1
-------
General Integration Accuracy     IntAcc      ... 3.816
Radial Grid Type                 RadialGrid  ... OptM3 with GC (2021)
Angular Grid (max. ang.)         AngularGrid ... 1 (Lebedev-50)
Angular grid pruning method      GridPruning ... 4 (adaptive)
Weight generation scheme         WeightScheme... mBecke (2022)
Basis function cutoff            BFCut       ... 1.0000e-11
Integration weight cutoff        WCut        ... 1.0000e-14
Partially contracted basis set               ... on
Rotationally invariant grid construction     ... off
Angular grids for H and He will be reduced by one unit
Diffuse basis detected: some atoms will have their outermost
                        angular grid increased by 1.

Total number of grid points                  ...     9724
Total number of batches                      ...       84
Average number of points per batch           ...      115
Average number of grid points per atom       ...      648
UseSFitting                                  ... on

GRIDX 2
-------
General Integration Accuracy     IntAcc      ... 4.020
Radial Grid Type                 RadialGrid  ... OptM3 with GC (2021)
Angular Grid (max. ang.)         AngularGrid ... 2 (Lebedev-110)
Angular grid pruning method      GridPruning ... 4 (adaptive)
Weight generation scheme         WeightScheme... mBecke (2022)
Basis function cutoff            BFCut       ... 1.0000e-11
Integration weight cutoff        WCut        ... 1.0000e-14
Partially contracted basis set               ... on
Rotationally invariant grid construction     ... off
Angular grids for H and He will be reduced by one unit
Diffuse basis detected: some atoms will have their outermost
                        angular grid increased by 1.

Total number of grid points                  ...    24245
Total number of batches                      ...      198
Average number of points per batch           ...      122
Average number of grid points per atom       ...     1616
UseSFitting                                  ... on

GRIDX 3
-------
General Integration Accuracy     IntAcc      ... 4.338
Radial Grid Type                 RadialGrid  ... OptM3 with GC (2021)
Angular Grid (max. ang.)         AngularGrid ... 3 (Lebedev-194)
Angular grid pruning method      GridPruning ... 4 (adaptive)
Weight generation scheme         WeightScheme... mBecke (2022)
Basis function cutoff            BFCut       ... 1.0000e-11
Integration weight cutoff        WCut        ... 1.0000e-14
Partially contracted basis set               ... on
Rotationally invariant grid construction     ... off
Angular grids for H and He will be reduced by one unit
Diffuse basis detected: some atoms will have their outermost
                        angular grid increased by 1.

Total number of grid points                  ...    53539
Total number of batches                      ...      424
Average number of points per batch           ...      126
Average number of grid points per atom       ...     3569
UseSFitting                                  ... on
Initializing property integral containers    ... done (  0.2 sec)

SHARK setup successfully completed in   6.0 seconds

Maximum memory used throughout the entire STARTUP-calculation: 54.1 MB


           ************************************************************
           *        Program running with 15 parallel MPI-processes    *
           *              working on a common directory               *
           ************************************************************
-------------------------------------------------------------------------------
                                 ORCA GUESS
                   Start orbitals & Density for SCF / CASSCF
-------------------------------------------------------------------------------

------------
SCF SETTINGS
------------
Hamiltonian:
 Density Functional     Method          .... DFT(GTOs)
 Exchange Functional    Exchange        .... PBE
   PBE kappa parameter   XKappa         ....  0.804000
   PBE mue parameter    XMuePBE         ....  0.219520
 Correlation Functional Correlation     .... PBE
   PBE beta parameter  CBetaPBE         ....  0.066725
 LDA part of GGA corr.  LDAOpt          .... PW91-LDA
 Gradients option       PostSCFGGA      .... off
 Hybrid DFT is turned on
   Fraction HF Exchange ScalHFX         ....  0.250000
   Scaling of DF-GGA-X  ScalDFX         ....  0.750000
   Scaling of DF-GGA-C  ScalDFC         ....  1.000000
   Scaling of DF-LDA-C  ScalLDAC        ....  1.000000
   Perturbative correction              ....  0.000000
   NL short-range parameter             ....  6.900000
 RI-approximation to the Coulomb term is turned on
   Number of AuxJ basis functions       .... 507
   RIJ-COSX (HFX calculated with COS-X)).... on


General Settings:
 Integral files         IntName         .... cs_rporg_w08_ox_solv_05
 Hartree-Fock type      HFTyp           .... RHF
 Total Charge           Charge          ....    0
 Multiplicity           Mult            ....    1
 Number of Electrons    NEL             ....   64
 Basis Dimension        Dim             ....  552
 Nuclear Repulsion      ENuc            ....    404.1701949572 Eh

Convergence Acceleration:
 AO-DIIS                CNVDIIS         .... on
   Start iteration      DIISMaxIt       ....     0
   Startup error        DIISStart       ....  0.200000
   # of expansion vecs  DIISMaxEq       ....     5
   Bias factor          DIISBfac        ....   1.050
   Max. coefficient     DIISMaxC        ....  10.000
 MO-DIIS                CNVKDIIS        .... off
 Trust-Rad. Augm. Hess. CNVTRAH         .... auto
   Auto Start mean grad. ratio tolernc. ....  1.125000
   Auto Start start iteration           ....    50
   Auto Start num. interpolation iter.  ....    10
   Max. Number of Micro iterations      ....    24
   Max. Number of Macro iterations      .... Maxiter - #DIIS iter
   Number of Davidson start vectors     ....     2
   Converg. threshold    (grad. norm)   ....   1.000e-05
   Grad. Scal. Fac. for Micro threshold ....   0.100
   Minimum threshold for Micro iter.    ....   1.000e-02
   NR start threshold (gradient norm)   ....   1.000e-04
   Initial trust radius                 ....   0.400
   Minimum AH scaling param. (alpha)    ....   1.000
   Maximum AH scaling param. (alpha)    .... 1000.000
   Quad. conv. algorithm                .... NR
   White noise on init. David. guess    .... on
   Maximum white noise                  ....   0.010
   Pseudo random numbers                .... off
   Inactive MOs                         .... canonical
   Orbital update algorithm             .... Taylor
   Preconditioner                       .... Diag
   Full preconditioner red. dimension   ....   250
 SOSCF                  CNVSOSCF        .... on
   Start iteration      SOSCFMaxIt      ....   150
   Startup grad/error   SOSCFStart      ....  0.001000
   Hessian update       SOSCFHessUp     .... L-BFGS
 Level Shifting         CNVShift        .... on
   Level shift para.    LevelShift      ....    0.2500
   Turn off err/grad.   ShiftErr        ....    0.0000
 Zerner damping         CNVZerner       .... off
 Static damping         CNVDamp         .... on
   Fraction old density DampFac         ....    0.8500
   Max. Damping (<1)    DampMax         ....    0.9800
   Min. Damping (>=0)   DampMin         ....    0.0000
   Turn off err/grad.   DampErr         ....    0.0300

SCF Procedure:
 Maximum # iterations   MaxIter         ....  1500
 SCF integral mode      SCFMode         .... Direct
   Integral package                     .... SHARK and LIBINT hybrid scheme
 Reset frequency        DirectResetFreq ....    20
 Integral Threshold     Thresh          ....  2.500e-11 Eh
 Primitive CutOff       TCut            ....  2.500e-12 Eh

Convergence Tolerance:
 Convergence Check Mode ConvCheckMode   .... Total+1el-Energy
 Convergence forced     ConvForced      .... 0
 Energy Change          TolE            ....  1.000e-08 Eh
 1-El. energy change                    ....  1.000e-05 Eh
 Orbital Gradient       TolG            ....  1.000e-05
 Orbital Rotation angle TolX            ....  1.000e-05
 DIIS Error             TolErr          ....  5.000e-07

------------------------------
INITIAL GUESS: MODEL POTENTIAL
------------------------------
Loading Hartree-Fock densities                     ... done
Calculating cut-offs                               ... done
Initializing the effective Hamiltonian             ... done
Setting up the integral package (SHARK)            ... done
Starting the Coulomb interaction                   ... done (   0.3 sec)
Making the grid                                    ... done (   0.3 sec)
Mapping shells                                     ... done
Starting the XC term evaluation                    ... done (   0.2 sec)
  promolecular density results
     # of electrons  =     63.993600930
     EX              =    -53.810730544
     EC              =     -2.126128466
     EX+EC           =    -55.936859010
Transforming the Hamiltonian                       ... done (   0.1 sec)
Diagonalizing the Hamiltonian                      ... done (   0.1 sec)
Back transforming the eigenvectors                 ... done (   0.1 sec)
Now organizing SCF variables                       ... done
                      ------------------
                      INITIAL GUESS DONE (   1.5 sec)
                      ------------------
             **** ENERGY FILE WAS UPDATED (cs_rporg_w08_ox_solv_05.en.tmp) ****
Finished Guess after   2.8 sec
Maximum memory used throughout the entire GUESS-calculation: 36.9 MB


           ************************************************************
           *        Program running with 15 parallel MPI-processes    *
           *              working on a common directory               *
           ************************************************************

-------------------------------------------------------------------------------------------
                                      ORCA LEAN-SCF
                              memory conserving SCF solver
-------------------------------------------------------------------------------------------

--------------------
CPCM SOLVATION MODEL
--------------------
CPCM parameters:
  Epsilon                                         ...      78.3550
  Refrac                                          ...       1.3328
  Rsolv                                           ...       1.4000
  Surface type                                    ...    GEPOL SES
  Discretization scheme                           ... Constant num. charges
  Epsilon function type                           ...         CPCM
Solvent:                                          ... WATER
SMD-CDS solvent descriptors:
  Soln                                            ...       1.3328
  Soln25                                          ...       1.3323
  Sola                                            ...       0.0000
  Solb                                            ...       0.0000
  Solg                                            ...       0.0000
  Solc                                            ...       0.0000
  Solh                                            ...       0.0000
Radii:
  Scheme                                          ... Element-dependent radii
  Radius for C  used is    3.4960 Bohr (=   1.8500 Ang.)
  Radius for H  used is    2.2677 Bohr (=   1.2000 Ang.)
  Radius for O  used is    2.8724 Bohr (=   1.5200 Ang.)
Calculating surface                               ...        done! (  0.0s)
Cavity surface points                             ...          534
Cavity Volume                                     ...     832.7280
Cavity Surface-area                               ...     511.2254
Calculating surface distance matrix               ...        done! (  0.0s)
Performing Cholesky decomposition & store         ...        done! (  0.0s)
Overall time for CPCM initialization              ...                 0.1s

----------------------------------------D-I-I-S--------------------------------------------
Iteration    Energy (Eh)           Delta-E    RMSDP     MaxDP     DIISErr   Damp  Time(sec)
-------------------------------------------------------------------------------------------
               ***  Starting incremental Fock matrix formation  ***
    1    -420.2454001741342040     0.00e+00  1.03e-03  4.32e-02  2.57e-01  0.850   7.9
    2    -420.3026466893792872    -5.72e-02  1.00e-03  4.56e-02  1.83e-01  0.850   6.2
                               ***Turning on AO-DIIS***
    3    -420.3389119204073836    -3.63e-02  6.92e-04  3.36e-02  1.19e-01  0.850   6.5
    4    -420.3618856393042620    -2.30e-02  5.31e-04  2.48e-02  9.71e-02  0.850   6.5
    5    -420.3786197896134240    -1.67e-02  4.34e-04  2.01e-02  8.39e-02  0.850   6.0
    6    -420.3920636331407081    -1.34e-02  3.66e-04  1.66e-02  7.22e-02  0.850   6.4
    7    -420.4032645327769728    -1.12e-02  3.13e-04  1.40e-02  6.04e-02  0.850   6.7
    8    -420.4125396913167947    -9.28e-03  2.63e-04  1.20e-02  4.92e-02  0.850   6.0
    9    -420.4200796280561576    -7.54e-03  2.22e-04  1.03e-02  4.10e-02  0.850   6.0
   10    -420.4262695266049263    -6.19e-03  1.89e-04  8.70e-03  3.49e-02  0.850   6.2
   11    -420.4314187321891154    -5.15e-03  1.60e-04  7.30e-03  2.97e-02  0.850   6.0
   12    -420.4357297559700442    -4.31e-03  9.06e-04  4.10e-02  2.49e-02  0.000   5.7
   13    -420.4587732141960146    -2.30e-02  5.02e-05  3.79e-03  3.44e-03  0.000   8.0
   14    -420.4587905687939724    -1.74e-05  1.59e-05  1.26e-03  1.58e-03  0.000   5.5
                              *** Initializing SOSCF ***
---------------------------------------S-O-S-C-F--------------------------------------
Iteration    Energy (Eh)           Delta-E    RMSDP     MaxDP     MaxGrad    Time(sec)
--------------------------------------------------------------------------------------
   15    -420.4587975863034330    -7.02e-06  1.05e-05  6.68e-04  2.43e-04     6.4
               *** Restarting incremental Fock matrix formation ***
   16    -420.4588004145229547    -2.83e-06  1.62e-04  7.59e-03  3.64e-05     9.5
   17    -420.4588004660677711    -5.15e-08  5.77e-05  2.47e-03  4.49e-05     6.5
   18    -420.4588004811902806    -1.51e-08  7.22e-05  3.09e-03  2.46e-05     7.4
   19    -420.4588004912183692    -1.00e-08  4.64e-05  2.19e-03  3.49e-06     7.9
   20    -420.4588005011425480    -9.92e-09  1.52e-05  1.01e-03  2.32e-06     5.9
                 **** Energy Check signals convergence ****

               *****************************************************
               *                     SUCCESS                       *
               *           SCF CONVERGED AFTER  20 CYCLES          *
               *****************************************************

Recomputing exchange energy using gridx3       ... done (    6.802 sec)
Old exchange energy                            :    -13.698233662 Eh
New exchange energy                            :    -13.698312294 Eh
Exchange energy change after final integration :     -0.000078632 Eh
Total energy after final integration           :   -420.458879133 Eh

SMD CDS free energy correction energy :                 4.91101     Kcal/mol
Total Energy after SMD CDS correction =              -420.451052937 Eh
             **** ENERGY FILE WAS UPDATED (cs_rporg_w08_ox_solv_05.en.tmp) ****

----------------
TOTAL SCF ENERGY
----------------

Total Energy       :       -420.45105293689340 Eh          -11441.05480 eV

Components:
Nuclear Repulsion  :        404.17019495722349 Eh           10998.03013 eV
Electronic Energy  :       -824.60805878523945 Eh          -22438.72604 eV
One Electron Energy:      -1371.48102043973745 Eh          -37319.89587 eV
Two Electron Energy:        546.87296165449800 Eh           14881.16983 eV
CPCM Dielectric    :         -0.02093667312654 Eh              -0.56972 eV
SMD CDS (Gcds)     :          0.00782619615921 Eh               0.21296 eV

Virial components:
Potential Energy   :       -838.36008251801945 Eh          -22812.93763 eV
Kinetic Energy     :        417.90902958112599 Eh           11371.88283 eV
Virial Ratio       :          2.00608271938588

DFT components:
N(Alpha)           :       32.000033715106 electrons
N(Beta)            :       32.000033715106 electrons
N(Total)           :       64.000067430213 electrons
E(X)               :      -41.031026752006 Eh       
E(C)               :       -2.132309540826 Eh       
E(XC)              :      -43.163336292832 Eh       

CPCM Solvation Model Properties:
Surface-charge          :         -0.04812692621064
Corrected charge        :         -0.00000000000000
Outlying charge corr.   :          0.00018389972452 Eh               0.00500 eV
Free-energy (cav+disp)  :          0.00782619615921 Eh               0.21296 eV

---------------
SCF CONVERGENCE
---------------

  Last Energy change         ...    9.9242e-09  Tolerance :   1.0000e-08
  Last MAX-Density change    ...    1.0148e-03  Tolerance :   1.0000e-07
  Last RMS-Density change    ...    1.5164e-05  Tolerance :   5.0000e-09
  Last DIIS Error            ...    2.4285e-04  Tolerance :   5.0000e-07
  Last Orbital Gradient      ...    2.3202e-06  Tolerance :   1.0000e-05
  Last Orbital Rotation      ...    2.2354e-06  Tolerance :   1.0000e-05


----------------
ORBITAL ENERGIES
----------------

  NO   OCC          E(Eh)            E(eV) 
   0   2.0000     -19.228775      -523.2416 
   1   2.0000     -19.225966      -523.1651 
   2   2.0000     -10.337682      -281.3026 
   3   2.0000     -10.336127      -281.2603 
   4   2.0000     -10.271451      -279.5004 
   5   2.0000     -10.260961      -279.2149 
   6   2.0000     -10.260021      -279.1894 
   7   2.0000     -10.252138      -278.9749 
   8   2.0000     -10.225172      -278.2411 
   9   2.0000      -1.103016       -30.0146 
  10   2.0000      -1.099643       -29.9228 
  11   2.0000      -0.883296       -24.0357 
  12   2.0000      -0.822327       -22.3767 
  13   2.0000      -0.744301       -20.2534 
  14   2.0000      -0.707181       -19.2434 
  15   2.0000      -0.639969       -17.4144 
  16   2.0000      -0.604194       -16.4409 
  17   2.0000      -0.537608       -14.6291 
  18   2.0000      -0.521631       -14.1943 
  19   2.0000      -0.497541       -13.5388 
  20   2.0000      -0.470079       -12.7915 
  21   2.0000      -0.458208       -12.4685 
  22   2.0000      -0.449205       -12.2235 
  23   2.0000      -0.438752       -11.9390 
  24   2.0000      -0.434781       -11.8310 
  25   2.0000      -0.414295       -11.2735 
  26   2.0000      -0.410328       -11.1656 
  27   2.0000      -0.392766       -10.6877 
  28   2.0000      -0.319666        -8.6985 
  29   2.0000      -0.304212        -8.2780 
  30   2.0000      -0.294228        -8.0063 
  31   2.0000      -0.288580        -7.8527 
  32   0.0000      -0.126831        -3.4513 
  33   0.0000      -0.016559        -0.4506 
  34   0.0000       0.004651         0.1266 
  35   0.0000       0.008907         0.2424 
  36   0.0000       0.016297         0.4435 
  37   0.0000       0.019706         0.5362 
  38   0.0000       0.034433         0.9370 
  39   0.0000       0.036938         1.0051 
  40   0.0000       0.040077         1.0906 
  41   0.0000       0.055099         1.4993 
  42   0.0000       0.063380         1.7247 
*Only the first 10 virtual orbitals were printed.

                    ********************************
                    * MULLIKEN POPULATION ANALYSIS *
                    ********************************

-----------------------
MULLIKEN ATOMIC CHARGES
-----------------------
   0 C :    0.993735
   1 C :   -0.567386
   2 C :   -0.763882
   3 H :    0.547444
   4 H :    0.415579
   5 C :   -0.597605
   6 C :    0.595467
   7 H :    0.583465
   8 C :    0.679817
   9 O :   -0.972435
  10 O :   -0.944785
  11 C :   -0.728649
  12 H :    0.256703
  13 H :    0.256463
  14 H :    0.246069
Sum of atomic charges:    0.0000000

--------------------------------
MULLIKEN REDUCED ORBITAL CHARGES
--------------------------------
  0 C s       :     3.169845  s :     3.169845
      pz      :     0.546991  p :     1.742051
      px      :     0.552346
      py      :     0.642714
      dz2     :    -0.016831  d :     0.095340
      dxz     :     0.033725
      dyz     :     0.035654
      dx2y2   :     0.020621
      dxy     :     0.022171
      f0      :     0.002729  f :    -0.000971
      f+1     :    -0.007795
      f-1     :     0.001641
      f+2     :    -0.000690
      f-2     :     0.000205
      f+3     :     0.002225
      f-3     :     0.000713

  1 C s       :     3.554686  s :     3.554686
      pz      :     1.021898  p :     2.876501
      px      :     0.950867
      py      :     0.903736
      dz2     :     0.079678  d :     0.147260
      dxz     :     0.012348
      dyz     :     0.030690
      dx2y2   :     0.015196
      dxy     :     0.009349
      f0      :    -0.000532  f :    -0.011061
      f+1     :    -0.012716
      f-1     :    -0.001212
      f+2     :     0.002418
      f-2     :    -0.000430
      f+3     :     0.000858
      f-3     :     0.000554

  2 C s       :     3.732753  s :     3.732753
      pz      :     1.027888  p :     2.871825
      px      :     0.881337
      py      :     0.962600
      dz2     :     0.089663  d :     0.181693
      dxz     :     0.020034
      dyz     :     0.038219
      dx2y2   :     0.016063
      dxy     :     0.017714
      f0      :    -0.000576  f :    -0.022388
      f+1     :    -0.022701
      f-1     :    -0.003641
      f+2     :     0.001081
      f-2     :     0.001443
      f+3     :     0.001088
      f-3     :     0.000918

  3 H s       :     0.469996  s :     0.469996
      pz      :    -0.018709  p :    -0.023419
      px      :    -0.014544
      py      :     0.009834
      dz2     :     0.001582  d :     0.005980
      dxz     :     0.000337
      dyz     :     0.001197
      dx2y2   :     0.001079
      dxy     :     0.001784

  4 H s       :     0.581711  s :     0.581711
      pz      :    -0.016322  p :    -0.002238
      px      :    -0.005484
      py      :     0.019567
      dz2     :     0.000886  d :     0.004948
      dxz     :     0.000878
      dyz     :     0.000315
      dx2y2   :     0.001316
      dxy     :     0.001551

  5 C s       :     3.584740  s :     3.584740
      pz      :     1.027054  p :     2.898928
      px      :     0.962079
      py      :     0.909795
      dz2     :     0.063912  d :     0.123957
      dxz     :     0.016249
      dyz     :     0.022134
      dx2y2   :     0.010810
      dxy     :     0.010852
      f0      :    -0.001750  f :    -0.010020
      f+1     :    -0.010278
      f-1     :    -0.001897
      f+2     :     0.000657
      f-2     :     0.001516
      f+3     :     0.000949
      f-3     :     0.000782

  6 C s       :     3.037754  s :     3.037754
      pz      :     0.601077  p :     2.249512
      px      :     0.787404
      py      :     0.861030
      dz2     :     0.095827  d :     0.182881
      dxz     :     0.026104
      dyz     :     0.023417
      dx2y2   :     0.024706
      dxy     :     0.012827
      f0      :    -0.006247  f :    -0.065614
      f+1     :    -0.041645
      f-1     :    -0.005108
      f+2     :    -0.003697
      f-2     :    -0.006178
      f+3     :    -0.000519
      f-3     :    -0.002220

  7 H s       :     0.430601  s :     0.430601
      pz      :    -0.017151  p :    -0.019701
      px      :    -0.012898
      py      :     0.010348
      dz2     :     0.001740  d :     0.005635
      dxz     :     0.000041
      dyz     :     0.000872
      dx2y2   :     0.001423
      dxy     :     0.001559

  8 C s       :     3.275764  s :     3.275764
      pz      :     0.644116  p :     1.930806
      px      :     0.613956
      py      :     0.672734
      dz2     :     0.010158  d :     0.129749
      dxz     :     0.037560
      dyz     :     0.041839
      dx2y2   :     0.023887
      dxy     :     0.016304
      f0      :     0.003097  f :    -0.016137
      f+1     :    -0.020322
      f-1     :    -0.000423
      f+2     :    -0.000858
      f-2     :     0.000594
      f+3     :     0.001399
      f-3     :     0.000376

  9 O s       :     4.185318  s :     4.185318
      pz      :     1.388842  p :     4.730393
      px      :     1.895493
      py      :     1.446058
      dz2     :     0.010356  d :     0.051543
      dxz     :     0.018308
      dyz     :     0.019889
      dx2y2   :     0.001518
      dxy     :     0.001471
      f0      :     0.000087  f :     0.005181
      f+1     :     0.002432
      f-1     :     0.002001
      f+2     :     0.000267
      f-2     :     0.000242
      f+3     :     0.000062
      f-3     :     0.000091

 10 O s       :     4.162256  s :     4.162256
      pz      :     1.384744  p :     4.721690
      px      :     1.883308
      py      :     1.453638
      dz2     :     0.010211  d :     0.055830
      dxz     :     0.021927
      dyz     :     0.021301
      dx2y2   :     0.001259
      dxy     :     0.001133
      f0      :     0.000044  f :     0.005008
      f+1     :     0.002429
      f-1     :     0.001977
      f+2     :     0.000263
      f-2     :     0.000229
      f+3     :     0.000020
      f-3     :     0.000045

 11 C s       :     3.505845  s :     3.505845
      pz      :     1.064986  p :     3.169183
      px      :     0.986321
      py      :     1.117877
      dz2     :     0.005438  d :     0.042914
      dxz     :     0.020265
      dyz     :     0.025465
      dx2y2   :    -0.000984
      dxy     :    -0.007270
      f0      :     0.000905  f :     0.010706
      f+1     :     0.001143
      f-1     :     0.000366
      f+2     :     0.002540
      f-2     :     0.003482
      f+3     :     0.002506
      f-3     :    -0.000235

 12 H s       :     0.693572  s :     0.693572
      pz      :     0.007961  p :     0.042020
      px      :     0.019419
      py      :     0.014641
      dz2     :     0.001918  d :     0.007705
      dxz     :     0.003164
      dyz     :     0.000145
      dx2y2   :     0.001083
      dxy     :     0.001395

 13 H s       :     0.694700  s :     0.694700
      pz      :     0.008309  p :     0.041211
      px      :     0.018550
      py      :     0.014352
      dz2     :     0.001412  d :     0.007626
      dxz     :     0.003075
      dyz     :     0.000332
      dx2y2   :     0.001426
      dxy     :     0.001380

 14 H s       :     0.700450  s :     0.700450
      pz      :     0.009293  p :     0.044962
      px      :     0.024421
      py      :     0.011247
      dz2     :     0.001986  d :     0.008520
      dxz     :     0.000512
      dyz     :     0.001896
      dx2y2   :     0.002303
      dxy     :     0.001824



                     *******************************
                     * LOEWDIN POPULATION ANALYSIS *
                     *******************************

----------------------
LOEWDIN ATOMIC CHARGES
----------------------
   0 C :   -0.584884
   1 C :    0.224457
   2 C :    0.235420
   3 H :   -0.162147
   4 H :   -0.161268
   5 C :    0.228261
   6 C :   -0.116543
   7 H :   -0.162608
   8 C :   -0.552865
   9 O :    0.489663
  10 O :    0.456817
  11 C :    0.565713
  12 H :   -0.152066
  13 H :   -0.152011
  14 H :   -0.155940

-------------------------------
LOEWDIN REDUCED ORBITAL CHARGES
-------------------------------
  0 C s       :     2.500497  s :     2.500497
      pz      :     0.868498  p :     2.233836
      px      :     0.799098
      py      :     0.566240
      dz2     :     0.346649  d :     1.219625
      dxz     :     0.394059
      dyz     :     0.232400
      dx2y2   :     0.125240
      dxy     :     0.121276
      f0      :     0.129450  f :     0.630927
      f+1     :     0.236144
      f-1     :     0.094210
      f+2     :     0.050583
      f-2     :     0.053258
      f+3     :     0.028420
      f-3     :     0.038861

  1 C s       :     2.510781  s :     2.510781
      pz      :     0.888021  p :     2.291064
      px      :     0.791572
      py      :     0.611471
      dz2     :     0.180740  d :     0.658990
      dxz     :     0.238010
      dyz     :     0.114532
      dx2y2   :     0.067051
      dxy     :     0.058658
      f0      :     0.057503  f :     0.314708
      f+1     :     0.113797
      f-1     :     0.046629
      f+2     :     0.029775
      f-2     :     0.028874
      f+3     :     0.017459
      f-3     :     0.020671

  2 C s       :     2.498563  s :     2.498563
      pz      :     0.878423  p :     2.292495
      px      :     0.787282
      py      :     0.626790
      dz2     :     0.172146  d :     0.656220
      dxz     :     0.242168
      dyz     :     0.108111
      dx2y2   :     0.069339
      dxy     :     0.064455
      f0      :     0.058993  f :     0.317302
      f+1     :     0.113695
      f-1     :     0.042323
      f+2     :     0.032786
      f-2     :     0.031144
      f+3     :     0.016422
      f-3     :     0.021940

  3 H s       :     0.655938  s :     0.655938
      pz      :     0.095870  p :     0.292898
      px      :     0.121351
      py      :     0.075677
      dz2     :     0.051365  d :     0.213311
      dxz     :     0.053914
      dyz     :     0.026786
      dx2y2   :     0.040372
      dxy     :     0.040873

  4 H s       :     0.645194  s :     0.645194
      pz      :     0.096746  p :     0.296603
      px      :     0.119868
      py      :     0.079989
      dz2     :     0.053231  d :     0.219471
      dxz     :     0.053277
      dyz     :     0.029958
      dx2y2   :     0.043441
      dxy     :     0.039565

  5 C s       :     2.509151  s :     2.509151
      pz      :     0.888873  p :     2.291586
      px      :     0.787640
      py      :     0.615073
      dz2     :     0.179442  d :     0.656871
      dxz     :     0.244725
      dyz     :     0.108988
      dx2y2   :     0.063449
      dxy     :     0.060268
      f0      :     0.057378  f :     0.314131
      f+1     :     0.117806
      f-1     :     0.042101
      f+2     :     0.030385
      f-2     :     0.028822
      f+3     :     0.016053
      f-3     :     0.021587

  6 C s       :     2.478525  s :     2.478525
      pz      :     0.874496  p :     2.247619
      px      :     0.771636
      py      :     0.601486
      dz2     :     0.228373  d :     0.919498
      dxz     :     0.281951
      dyz     :     0.174011
      dx2y2   :     0.115795
      dxy     :     0.119369
      f0      :     0.062663  f :     0.470901
      f+1     :     0.168678
      f-1     :     0.054538
      f+2     :     0.051789
      f-2     :     0.059257
      f+3     :     0.032878
      f-3     :     0.041098

  7 H s       :     0.654550  s :     0.654550
      pz      :     0.097420  p :     0.293651
      px      :     0.117004
      py      :     0.079227
      dz2     :     0.052720  d :     0.214408
      dxz     :     0.050824
      dyz     :     0.030280
      dx2y2   :     0.042281
      dxy     :     0.038303

  8 C s       :     2.492966  s :     2.492966
      pz      :     0.867116  p :     2.221618
      px      :     0.792232
      py      :     0.562269
      dz2     :     0.343852  d :     1.205394
      dxz     :     0.392796
      dyz     :     0.227744
      dx2y2   :     0.122733
      dxy     :     0.118268
      f0      :     0.132920  f :     0.632887
      f+1     :     0.233020
      f-1     :     0.094606
      f+2     :     0.050302
      f-2     :     0.053146
      f+3     :     0.030314
      f-3     :     0.038578

  9 O s       :     3.184464  s :     3.184464
      pz      :     1.424523  p :     4.018491
      px      :     1.431515
      py      :     1.162452
      dz2     :     0.082815  d :     0.228295
      dxz     :     0.093206
      dyz     :     0.042569
      dx2y2   :     0.004944
      dxy     :     0.004761
      f0      :     0.025464  f :     0.079088
      f+1     :     0.032395
      f-1     :     0.018461
      f+2     :     0.001262
      f-2     :     0.001253
      f+3     :     0.000129
      f-3     :     0.000124

 10 O s       :     3.200261  s :     3.200261
      pz      :     1.425242  p :     4.037256
      px      :     1.438850
      py      :     1.173163
      dz2     :     0.080753  d :     0.227062
      dxz     :     0.094628
      dyz     :     0.043562
      dx2y2   :     0.004121
      dxy     :     0.003998
      f0      :     0.025315  f :     0.078604
      f+1     :     0.032133
      f-1     :     0.018313
      f+2     :     0.001322
      f-2     :     0.001341
      f+3     :     0.000097
      f-3     :     0.000083

 11 C s       :     2.449225  s :     2.449225
      pz      :     0.768972  p :     2.294356
      px      :     0.754313
      py      :     0.771071
      dz2     :     0.060269  d :     0.504562
      dxz     :     0.139933
      dyz     :     0.123325
      dx2y2   :     0.094035
      dxy     :     0.087000
      f0      :     0.022365  f :     0.186144
      f+1     :     0.048706
      f-1     :     0.010951
      f+2     :     0.029738
      f-2     :     0.029199
      f+3     :     0.021898
      f-3     :     0.023287

 12 H s       :     0.613596  s :     0.613596
      pz      :     0.108149  p :     0.313522
      px      :     0.087083
      py      :     0.118290
      dz2     :     0.050204  d :     0.224948
      dxz     :     0.050702
      dyz     :     0.043280
      dx2y2   :     0.038943
      dxy     :     0.041819

 13 H s       :     0.613656  s :     0.613656
      pz      :     0.099068  p :     0.313460
      px      :     0.087608
      py      :     0.126784
      dz2     :     0.037734  d :     0.224895
      dxz     :     0.039239
      dyz     :     0.052316
      dx2y2   :     0.051759
      dxy     :     0.043847

 14 H s       :     0.620703  s :     0.620703
      pz      :     0.109993  p :     0.310042
      px      :     0.110277
      py      :     0.089772
      dz2     :     0.043553  d :     0.225194
      dxz     :     0.051856
      dyz     :     0.044552
      dx2y2   :     0.045500
      dxy     :     0.039734



                      *****************************
                      * MAYER POPULATION ANALYSIS *
                      *****************************

  NA   - Mulliken gross atomic population
  ZA   - Total nuclear charge
  QA   - Mulliken gross atomic charge
  VA   - Mayer's total valence
  BVA  - Mayer's bonded valence
  FA   - Mayer's free valence

  ATOM       NA         ZA         QA         VA         BVA        FA
  0 C      5.0063     6.0000     0.9937     2.5294     2.5294    -0.0000
  1 C      6.5674     6.0000    -0.5674     3.4659     3.4659    -0.0000
  2 C      6.7639     6.0000    -0.7639     3.1410     3.1410     0.0000
  3 H      0.4526     1.0000     0.5474     0.5896     0.5896     0.0000
  4 H      0.5844     1.0000     0.4156     0.8004     0.8004    -0.0000
  5 C      6.5976     6.0000    -0.5976     3.4395     3.4395     0.0000
  6 C      5.4045     6.0000     0.5955     3.2418     3.2418     0.0000
  7 H      0.4165     1.0000     0.5835     0.5166     0.5166    -0.0000
  8 C      5.3202     6.0000     0.6798     3.0172     3.0172    -0.0000
  9 O      8.9724     8.0000    -0.9724     1.3080     1.3080    -0.0000
 10 O      8.9448     8.0000    -0.9448     1.4132     1.4132     0.0000
 11 C      6.7286     6.0000    -0.7286     3.6150     3.6150     0.0000
 12 H      0.7433     1.0000     0.2567     0.9645     0.9645     0.0000
 13 H      0.7435     1.0000     0.2565     0.9641     0.9641     0.0000
 14 H      0.7539     1.0000     0.2461     0.9832     0.9832    -0.0000

  Mayer bond orders larger than 0.100000
B(  0-C ,  1-C ) :   0.9278 B(  0-C ,  2-C ) :   0.9148 B(  0-C , 10-O ) :   0.7184 
B(  1-C ,  2-C ) :   0.2514 B(  1-C ,  3-H ) :   0.3995 B(  1-C ,  5-C ) :   1.8130 
B(  1-C , 10-O ) :   0.1361 B(  2-C ,  4-H ) :   0.5544 B(  2-C ,  5-C ) :  -0.1519 
B(  2-C ,  6-C ) :   1.3774 B(  2-C , 10-O ) :   0.1050 B(  4-H ,  6-C ) :   0.1004 
B(  5-C ,  6-C ) :   0.2128 B(  5-C ,  7-H ) :   0.3227 B(  5-C ,  8-C ) :   0.9910 
B(  5-C ,  9-O ) :   0.1543 B(  6-C ,  8-C ) :   0.9640 B(  6-C , 10-O ) :   0.1217 
B(  6-C , 11-C ) :   0.6573 B(  8-C ,  9-O ) :   0.7460 B(  8-C , 11-C ) :   0.1622 
B( 11-C , 12-H ) :   0.9213 B( 11-C , 13-H ) :   0.9216 B( 11-C , 14-H ) :   0.9491 


-------
TIMINGS
-------

Total SCF time: 0 days 0 hours 2 min 25 sec 

Total time                  ....     145.172 sec
Sum of individual times     ....     143.065 sec  ( 98.5%)

SCF preparation             ....       2.836 sec  (  2.0%)
Fock matrix formation       ....     102.491 sec  ( 70.6%)
  Startup                   ....       6.127 sec  (  6.0% of F)
  Split-RI-J                ....      13.749 sec  ( 13.4% of F)
  Chain of spheres X        ....      51.314 sec  ( 50.1% of F)
  XC integration            ....      18.833 sec  ( 18.4% of F)
    XC Preparation          ....       0.000 sec  (  0.0% of XC)
    Basis function eval.    ....       2.324 sec  ( 12.3% of XC)
    Density eval.           ....       3.168 sec  ( 16.8% of XC)
    XC-Functional eval.     ....       0.123 sec  (  0.7% of XC)
    XC-Potential eval.      ....       4.422 sec  ( 23.5% of XC)
  CPCM terms                ....       5.334 sec  (  5.2% of F)
Diagonalization             ....       0.000 sec  (  0.0%)
Density matrix formation    ....      11.901 sec  (  8.2%)
Total Energy calculation    ....       5.748 sec  (  4.0%)
Population analysis         ....       0.964 sec  (  0.7%)
Orbital Transformation      ....       1.008 sec  (  0.7%)
Orbital Orthonormalization  ....       0.000 sec  (  0.0%)
DIIS solution               ....      14.492 sec  ( 10.0%)
SOSCF solution              ....       3.626 sec  (  2.5%)
Finished LeanSCF after 145.7 sec

Maximum memory used throughout the entire LEANSCF-calculation: 68.0 MB


-------------------------------------------------------------------------------
                          DFT DISPERSION CORRECTION                            
                                                                               
                              DFTD3 V3.1  Rev 1                                
                          USING Becke-Johnson damping                          
-------------------------------------------------------------------------------
The PBE0 functional is recognized
Active option DFTDOPT                   ...         4   

molecular C6(AA) [au] = 2707.352389 


            DFT-D V3
 parameters
 s6 scaling factor         :     1.0000 
 a1 scaling factor         :     0.4145 
 s8 scaling factor         :     1.2177 
 a2 scaling factor         :     4.8593 
 ad hoc parameters k1-k3   :    16.0000     1.3333    -4.0000 

 Edisp/kcal,au: -8.368544340381  -0.013336122869 
 E6   /kcal   :  -5.194629818 
 E8   /kcal   :  -3.173914522 
 % E8         :  37.926721699 

-------------------------   ----------------
Dispersion correction           -0.013336123
-------------------------   ----------------


-------------------------   --------------------
FINAL SINGLE POINT ENERGY      -420.464389059763
-------------------------   --------------------



           ************************************************************
           *        Program running with 15 parallel MPI-processes    *
           *              working on a common directory               *
           ************************************************************

------------------------------------------------------------------------------
                              ORCA PROPERTY CALCULATIONS
------------------------------------------------------------------------------

GBWName                                 ... cs_rporg_w08_ox_solv_05.gbw
Number of atoms                         ...     15
Number of basis functions               ...    606
Max core memory                         ...   3500 MB

Electric properties:
Dipole moment                           ... YES
Quadrupole moment                       ...  NO
Static polarizability (Dipole/Dipole)   ...  NO
Static polarizability (Dipole/Quad.)    ...  NO
Static polarizability (Quad./Quad.)     ...  NO
Static polarizability (Velocity)        ...  NO

Atomic electric properties:
Dipole moment                           ...  NO
Quadrupole moment                       ...  NO
Static polarizability                   ...  NO

Choice of electric origin               ... Center of mass
Position of electric origin             ...     0.561907     0.171856     2.960429

General magnetic properties:
Magnetizability                         ...  NO

EPR properties:
g-Tensor (aka g-matrix)                 ...  NO
Zero-Field splitting spin-orbit         ...  NO
Zero-field splitting spin-spin          ...  NO
Hyperfine couplings                     ...  NO (   0 nuclei)
Quadrupole couplings                    ...  NO (   0 nuclei)
Contact density                         ...  NO (   0 nuclei)

NMR properties:
Chemical shifts                         ...  NO (   0 nuclei)
Spin-rotation constants                 ...  NO (   0 nuclei)
Spin-spin couplings                     ...  NO (   0 nuclei,    0 pairs)

Choice of magnetic origin               ... GIAO
Position of magnetic origin             ...     0.000000     0.000000     0.000000

Properties with geometric perturbations:
SCF Hessian                             ...  NO
IR spectrum                             ...  NO
VCD spectrum                            ...  NO
X-ray spectroscopy properties:
SCF XES/XAS/RIXS spectra                ...  NO


-------------
DIPOLE MOMENT
-------------

Method             : SCF
Type of density    : Electron Density
Multiplicity       :   1
Irrep              :   0
Energy             :  -420.4510529368934044 Eh
Relativity type    : 
Basis              : AO
                                X                 Y                 Z
Electronic contribution:     -3.858266635      -1.209722081      -2.256854021
Nuclear contribution   :      4.092101562       1.259935150       2.614157328
                        -----------------------------------------
Total Dipole Moment    :      0.233834927       0.050213069       0.357303306
                        -----------------------------------------
Magnitude (a.u.)       :      0.429960205
Magnitude (Debye)      :      1.092871990



--------------------
Rotational spectrum 
--------------------
 
Rotational constants in cm-1:             0.099449             0.047883             0.032517 
Rotational constants in MHz :          2981.414348          1435.498503           974.822832 

Dipole components along the rotational axes: 
x,y,z [a.u.] :     0.412577    -0.120968     0.003609 
x,y,z [Debye]:     1.048686    -0.307477     0.009174 

 

Dipole moment calculation done in   0.3 sec 

Maximum memory used throughout the entire PROP-calculation: 36.9 MB

--------------------------------
SUGGESTED CITATIONS FOR THIS RUN
--------------------------------

Below you find a list of papers that are relevant to this ORCA run
We neither can nor want to force you to cite these papers, but we appreciate if you do
You receive ORCA, which is the product of decades of hard work by many enthusiastic individuals, for free
The only thing we kindly ask in return is that you cite our papers,
We deeply appreciate it, if you show your appreciation for ORCA by not just citing the generic ORCA reference.

Please note that relegating all ORCA citations to the supporting information does *not* help us.
SI sections are not indexed - citations you put there will not count into any citation statistics
But we need these citations in order to attract the funding resources that allow us to do what we are doing

Therefore, if you are a happy ORCA user, please consider citing a few of the papers listed below in the main body of your paper

In addition to the list printed below, the program has created the file cs_rporg_w08_ox_solv_05.bibtex that contains the list in bibtex format
You can import this file easily into all common literature databanks and citation aid programs


List of essential papers. We consider these as the minimum necessary citations

  1. Neese,F.
     Software update: the ORCA program system, version 5.0
     WIRES Comput. Molec. Sci., 2022 12(1)e1606
     doi.org/10.1002/wcms.1606

List of papers to cite with high priority. The work reported in these papers was absolutely
necessary for this run to complete.
Our perspective: the developers of density functionals and basis sets usually get cited in chemistry papers
Good! But without the algorithms to do something with them, the functionals or basis sets would not do anything.
Hence, in our opinion, the algorithm design and method developments papers are equally worthy of getting cited

  1. Neese,F.
     An improvement of the resolution of the identity approximation for the formation of the Coulomb matrix
     J. Comp. Chem., 2003 24(14)1740-1747
     doi.org/10.1002/jcc.10318
  2. Neese,F.; Wennmohs,F.; Hansen,A.; Becker,U.
     Efficient, approximate and parallel Hartree-Fock and hybrid DFT calculations. A 'chain-of-spheres' algorithm for the Hartree-Fock exchange
     Chem. Phys., 2009 356(1-3)98-109
     doi.org/10.1016/j.chemphys.2008.10.036
  3. Garcia-Rates,M.; Neese,F.
     Effect of the Solute Cavity on the Solvation Energy and its Derivatives within the Framework of the Gaussian Charge Scheme
     J. Comput. Chem., 2020 41 922-939
     doi.org/10.1002/jcc.26139
  4. Helmich-Paris,B.; de Souza,B.; Neese,F.; Izsák,R.
     An improved chain of spheres for exchange algorithm
     J. Chem. Phys., 2021 155 104109
     doi.org/doi: 10.1063/5.0058766.
  5. Neese,F.
     The SHARK Integral Generation and Digestion System
     J. Comp. Chem., 2022  1-16
     doi.org/10.1002/jcc.26942
  6. Grimme,S.; Antony,J.; Ehrlich,S.; Krieg,H.
     A consistent and accurate ab initio parametrization of density functional dispersion correction (DFT-D) for the 94 elements H-Pu
     J. Chem. Phys., 2010 132 154104-XXXX
     doi.org/10.1063/1.3382344
  7. Grimme,S.; Ehrlich,S.; Goerigk,L.
     Effect of the damping function in dispersion corrected density functional theory
     J. Comput. Chem., 2011 32(7)1456-1465
     doi.org/10.1002/jcc.21759

List of suggested additional citations. These are papers that are important in the 'surrounding' of 
of this run, or papers that preceded the highly important papers. If you like your results we are grateful for a citation.

  1. Izsak,R.; Neese,F.
     An overlap fitted chain of spheres exchange method
     J. Chem. Phys., 2011 135 144105
     doi.org/10.1063/1.3646921
  2. Izsak,R.; Hansen,A.; Neese,F.
     The resolution of identity and chain of spheres approximations for the LPNO-CCSD singles Fock term
     Molec. Phys., 2012 110 2413-2417
     doi.org/10.1080/00268976.2012.687466
  3. Neese,F.
     The ORCA program system
     WIRES Comput. Molec. Sci., 2012 2(1)73-78
     doi.org/10.1002/wcms.81
  4. Izsak,R.; Neese,F.; Klopper,W.
     Robust fitting techniques in the chain of spheres approximation to the Fock exchange: The role of the complementary space
     J. Chem. Phys., 2013 139 
     doi.org/10.1063/1.4819264
  5. Neese,F.
     Software update: the ORCA program system, version 4.0
     WIRES Comput. Molec. Sci., 2018 8(1)1-6
     doi.org/10.1002/wcms.1327
  6. Neese,F.; Wennmohs,F.; Becker,U.; Riplinger,C.
     The ORCA quantum chemistry program package
     J. Chem. Phys., 2020 152 Art. No. L224108
     doi.org/10.1063/5.0004608

List of optional additional citations

  1. Neese,F.
     Approximate second-order SCF convergence for spin unrestricted wavefunctions
     Chem. Phys. Lett., 2000 325(1-3)93-98
     doi.org/10.1016/s0009-2614(00)00662-x

Timings for individual modules:

Sum of individual times          ...      161.150 sec (=   2.686 min)
Startup calculation              ...        7.637 sec (=   0.127 min)   4.7 %
SCF iterations                   ...      151.153 sec (=   2.519 min)  93.8 %
Property calculations            ...        2.360 sec (=   0.039 min)   1.5 %
                             ****ORCA TERMINATED NORMALLY****
TOTAL RUN TIME: 0 days 0 hours 2 minutes 44 seconds 985 msec
