
                                 *****************
                                 * O   R   C   A *
                                 *****************

                                            #,                                       
                                            ###                                      
                                            ####                                     
                                            #####                                    
                                            ######                                   
                                           ########,                                 
                                     ,,################,,,,,                         
                               ,,#################################,,                 
                          ,,##########################################,,             
                       ,#########################################, ''#####,          
                    ,#############################################,,   '####,        
                  ,##################################################,,,,####,       
                ,###########''''           ''''###############################       
              ,#####''   ,,,,##########,,,,          '''####'''          '####       
            ,##' ,,,,###########################,,,                        '##       
           ' ,,###''''                  '''############,,,                           
         ,,##''                                '''############,,,,        ,,,,,,###''
      ,#''                                            '''#######################'''  
     '                                                          ''''####''''         
             ,#######,   #######,   ,#######,      ##                                
            ,#'     '#,  ##    ##  ,#'     '#,    #''#        ,####,   ,####,        
            ##       ##  ##   ,#'  ##            #'  '#       #'       #'  '#        
            ##       ##  #######   ##           ,######,      #####,   #    #        
            '#,     ,#'  ##    ##  '#,     ,#' ,#      #,     #,   #   #,  ,#        
             '#######'   ##     ##  '#######'  #'      '#     '####' # '####'        



                #########################################################
                #                        -***-                          #
                #          Department of theory and spectroscopy        #
                #                                                       #
                #                      Frank Neese                      #
                #                                                       #
                #     Directorship, Architecture, Infrastructure        #
                #                    SHARK, DRIVERS                     #
                #        Core code/Algorithms in most modules           #
                #                                                       #
                #        Max Planck Institute fuer Kohlenforschung      #
                #                Kaiser Wilhelm Platz 1                 #
                #                 D-45470 Muelheim/Ruhr                 #
                #                      Germany                          #
                #                                                       #
                #                  All rights reserved                  #
                #                        -***-                          #
                #########################################################


                         Program Version 6.0.0  -   RELEASE  -


 With contributions from (in alphabetic order):
   Daniel Aravena         : Magnetic Suceptibility
   Michael Atanasov       : Ab Initio Ligand Field Theory (pilot matlab implementation)
   Alexander A. Auer      : GIAO ZORA, VPT2 properties, NMR spectrum
   Ute Becker             : All parallelization in ORCA, NUMFREQ, NUMCALC
   Giovanni Bistoni       : ED, misc. LED, open-shell LED, HFLD
   Martin Brehm           : Molecular dynamics
   Dmytro Bykov           : pre 5.0 version of the SCF Hessian
   Marcos Casanova-Páez   : Triplet and SCS-CIS(D). UHF-(DLPNO)-IP/EA/STEOM-CCSD. UHF-CVS-IP/STEOM-CCSD
   Vijay G. Chilkuri      : MRCI spin determinant printing, contributions to CSF-ICE
   Pauline Colinet        : FMM embedding
   Dipayan Datta          : RHF DLPNO-CCSD density
   Achintya Kumar Dutta   : EOM-CC, STEOM-CC
   Nicolas Foglia         : Exact transition moments, OPA infrastructure, MCD improvements
   Dmitry Ganyushin       : Spin-Orbit,Spin-Spin,Magnetic field MRCI
   Miquel Garcia          : C-PCM and meta-GGA Hessian, CCSD/C-PCM, Gaussian charge scheme
   Tiago L. C. Gouveia    : GS-ROHF, GS-ROCIS
   Yang Guo               : DLPNO-NEVPT2, F12-NEVPT2, CIM, IAO-localization
   Andreas Hansen         : Spin unrestricted coupled pair/coupled cluster methods
   Ingolf Harden          : AUTO-CI MPn and infrastructure 
   Benjamin Helmich-Paris : MC-RPA, TRAH-(SCF,CASSCF), AVAS, COSX integrals, SCF dyn. polar.
   Lee Huntington         : MR-EOM, pCC
   Robert Izsak           : Overlap fitted RIJCOSX, COSX-SCS-MP3, EOM
   Riya Kayal             : Wick's Theorem for AUTO-CI, AUTO-CI UHF-CCSDT
   Emily Kempfer          : AUTO-CI, RHF CISDT and CCSDT
   Christian Kollmar      : KDIIS, OOCD, Brueckner-CCSD(T), CCSD density, CASPT2, CASPT2-K, improved NEVPT2
   Axel Koslowski         : Symmetry handling
   Simone Kossmann        : Meta GGA functionals, TD-DFT gradient, OOMP2, (MP2 Hessian; deprecated post 5.0)
   Lucas Lang             : DCDCAS
   Marvin Lechner         : AUTO-CI (C++ implementation), FIC-MRCC
   Spencer Leger          : CASSCF response
   Dagmar Lenk            : GEPOL surface, SMD, ORCA-2-JSON
   Dimitrios Liakos       : Extrapolation schemes; Compound Job, initial MDCI parallelization
   Dimitrios Manganas     : Further ROCIS development; embedding schemes. LFT, Crystal Embedding
   Dimitrios Pantazis     : SARC Basis sets
   Anastasios Papadopoulos: AUTO-CI, single reference methods and gradients
   Taras Petrenko         : pre 6.0 DFT Hessian and TD-DFT gradient, (ASA, deprecated), ECA, 1-Electron XAS/XES, NRVS
   Peter Pinski           : DLPNO-MP2, DLPNO-MP2 Gradient
   Christoph Reimann      : Effective Core Potentials
   Marius Retegan         : Local ZFS, SOC
   Christoph Riplinger    : Optimizer, TS searches, QM/MM, DLPNO-CCSD(T), (RO)-DLPNO pert. Triples
   Michael Roemelt        : Original ROCIS implementation
   Masaaki Saitow         : Open-shell DLPNO-CCSD energy and density
   Barbara Sandhoefer     : DKH picture change effects
   Kantharuban Sivalingam : CASSCF convergence/infrastructure, NEVPT2 and variants, FIC-MRCI
   Bernardo de Souza      : ESD, SOC TD-DFT
   Georgi Stoychev        : AutoAux, RI-MP2 NMR, DLPNO-MP2 response, X2C
   Van Anh Tran           : RI-MP2 g-tensors
   Willem Van den Heuvel  : Paramagnetic NMR
   Zikuan Wang            : NOTCH, Electric field optimization 
   Frank Wennmohs         : Technical directorship and infrastructure
   Hang Xu                : AUTO-CI-Response properties 


 We gratefully acknowledge several colleagues who have allowed us to
 interface, adapt or use parts of their codes:
   Stefan Grimme, W. Hujo, H. Kruse, P. Pracht,  : VdW corrections, initial TS optimization,
                  C. Bannwarth, S. Ehlert,         DFT functionals, gCP, sTDA/sTD-DF
                  L. Wittmann, M. Mueller
   Ed Valeev, F. Pavosevic, A. Kumar             : LibInt (2-el integral package), F12 methods
   Garnet Chan, S. Sharma, J. Yang, R. Olivares  : DMRG
   Ulf Ekstrom                                   : XCFun DFT Library
   Mihaly Kallay                                 : mrcc  (arbitrary order and MRCC methods)
   Frank Weinhold                                : gennbo (NPA and NBO analysis)
   Simon Mueller                                 : openCOSMO-RS
   Christopher J. Cramer and Donald G. Truhlar   : smd solvation model
   Lars Goerigk                                  : TD-DFT with DH, B97 family of functionals
   V. Asgeirsson, H. Jonsson                     : NEB implementation
   FAccTs GmbH                                   : IRC, NEB, NEB-TS, DLPNO-Multilevel, CI-OPT
                                                   MM, QMMM, 2- and 3-layer-ONIOM, Crystal-QMMM,
                                                   LR-CPCM, SF, NACMEs, symmetry and pop. for TD-DFT,
                                                   nearIR, NL-DFT gradient (VV10), updates on ESD,
                                                   ML-optimized integration grids, MBIS, APM,
                                                   GOAT, DOCKER, SOLVATOR, interface openCOSMO-RS
   S Lehtola, MJT Oliveira, MAL Marques          : LibXC Library
   Liviu Ungur et al                             : ANISO software


 Your calculation uses the libint2 library for the computation of 2-el integrals
 For citations please refer to: http://libint.valeyev.net

 Your ORCA version has been built with support for libXC version: 6.2.2
 For citations please refer to: https://libxc.gitlab.io

 This ORCA versions uses:
   CBLAS   interface :  Fast vector & matrix operations
   LAPACKE interface :  Fast linear algebra routines
   SCALAPACK package :  Parallel linear algebra routines
   Shared memory     :  Shared parallel matrices
   BLAS/LAPACK       :  OpenBLAS 0.3.27  USE64BITINT DYNAMIC_ARCH NO_AFFINITY Sandybridge SINGLE_THREADED
        Core in use  :  Sandybridge
   Copyright (c) 2011-2014, The OpenBLAS Project


NOTE: MaxCore=3000 MB was set to SCF,MP2,MDCI,CIPSI,MRCI and CIS
      => If you want to overwrite this, your respective input block should be placed after the MaxCore statement
Your calculation utilizes the atom-pairwise dispersion correction
with the Becke-Johnson damping scheme (D3BJ)


Your calculation utilizes the SMD solvation module
Please cite in your paper:
A.V. Marenich, C.J. Cramer, D.G. Truhlar J. Phys. Chem. B, 113, (2009), 6378 

Warning: RI is on but no J-basis has been assigned. Assigning Def2/J (nothing to worry about!)
================================================================================

----- Orbital basis set information -----
Your calculation utilizes the basis: aug-cc-pVTZ 
    H, B-Ne : Obtained from the ccRepo (grant-hill.group.shef.ac.uk/ccrepo) Feb. 2017
              R. A. Kendall, T. H. Dunning, Jr., R. J. Harrison, J. Chem. Phys. 96, 6796 (1992)
         He : Obtained from the ccRepo (grant-hill.group.shef.ac.uk/ccrepo) Feb. 2017
              D. E. Woon, T. H. Dunning, Jr., J. Chem. Phys. 100, 2975 (1994)
  Li-Be, Na : Obtained from the ccRepo (grant-hill.group.shef.ac.uk/ccrepo) Feb. 2017
              B. P. Prascher, D. E. Woon, K. A. Peterson, T. H. Dunning, Jr., A. K. Wilson, Theor. Chem. Acc. 128, 69 (2011)
         Mg : Obtained from the Peterson Research Group Website (tyr0.chem.wsu.edu/~kipeters) Feb. 2017
              B. P. Prascher, D. E. Woon, K. A. Peterson, T. H. Dunning, Jr., A. K. Wilson, Theor. Chem. Acc. 128, 69 (2011)
      Al-Ar : Obtained from the ccRepo (grant-hill.group.shef.ac.uk/ccrepo) Feb. 2017
              D. E. Woon, T. H. Dunning, Jr., J. Chem. Phys. 98, 1358 (1993)
      Sc-Zn : Obtained from the ccRepo (grant-hill.group.shef.ac.uk/ccrepo) Feb. 2017
              N. B. Balabanov, K. A. Peterson, J. Chem. Phys. 123, 064107 (2005)
              N. B. Balabanov, K. A. Peterson, J. Chem. Phys. 125, 074110 (2006)
      Ga-Kr : Obtained from the ccRepo (grant-hill.group.shef.ac.uk/ccrepo) Feb. 2017
              A. K. Wilson, D. E. Woon, K. A. Peterson, T. H. Dunning, Jr., J. Chem. Phys. 110, 7667 (1999)
     Ag, Au : Obtained from the Peterson Research Group Website (tyr0.chem.wsu.edu/~kipeters) Feb. 2017
              K. A. Peterson, C. Puzzarini, Theor. Chem. Acc. 114, 283 (2005)

----- AuxJ basis set information -----
Your calculation utilizes the auxiliary basis: def2/J
   F. Weigend, Phys. Chem. Chem. Phys. 8, 1057 (2006).

================================================================================
                                        WARNINGS
                       Please study these warnings very carefully!
================================================================================


================================================================================
                                       INPUT FILE
================================================================================
NAME = cs_rporg_066_red_solv_04.inp
|  1> !PBE0 aug-cc-pVTZ d3 TightSCF SlowConv RIJCOSX defgrid2
|  2>  
|  3> %pal
|  4> nprocs 4
|  5> end
|  6>  
|  7> %scf
|  8> MaxIter 1500
|  9> end
| 10>  
| 11> %maxcore 3000
| 12>  
| 13> !CPCM
| 14> %cpcm smd true
| 15> SMDsolvent "MeCN"
| 16> surfacetype gepol_ses
| 17> rsolv 2.19
| 18> end 
| 19>  
| 20> * xyz 0 1
| 21> C          -0.49592270970750      1.20689036506876     -0.03130110264914
| 22> C          -1.88685532532519      1.19699753212455     -0.02314506175738
| 23> C          -2.60125975900159      0.00006218322477     -0.01917601586061
| 24> C          -1.88691051129410     -1.19690511286666     -0.02342725949643
| 25> C          -0.49597917173478     -1.20686134487156     -0.03159202517744
| 26> C           0.23868603456831     -0.00000172653772     -0.03609509009819
| 27> N           1.61626182022358     -0.00003106078646     -0.04469127469160
| 28> C           2.33183955992311      1.24597481666428     -0.04486665705751
| 29> H           3.41338665254704      1.04576364513015     -0.05323272367948
| 30> H           2.09753310431419      1.86285731996164     -0.93541110907656
| 31> H           2.10988003494310      1.85696995864317      0.85303702382408
| 32> C           2.33179343347907     -1.24606302804888     -0.04453387362300
| 33> H           3.41335300622739     -1.04589190456372     -0.05217912937846
| 34> H           2.10924230348017     -1.85707031820411      0.85320726726296
| 35> H           2.09802467704190     -1.86292175713273     -0.93524555395099
| 36> H           0.02088202703341     -2.16757371924062     -0.03449261449586
| 37> H          -2.42069136544180     -2.15271053199358     -0.02020648268014
| 38> H          -3.69441433931262      0.00008648240457     -0.01268972961591
| 39> H          -2.42058983097200      2.15282777025830     -0.01968144249458
| 40> H           0.02098115900830      2.16758023076587     -0.03391284530377
| 41> *
| 42> 
| 43>                          ****END OF INPUT****
================================================================================

                       ****************************
                       * Single Point Calculation *
                       ****************************

---------------------------------
CARTESIAN COORDINATES (ANGSTROEM)
---------------------------------
  C     -0.495923    1.206890   -0.031301
  C     -1.886855    1.196998   -0.023145
  C     -2.601260    0.000062   -0.019176
  C     -1.886911   -1.196905   -0.023427
  C     -0.495979   -1.206861   -0.031592
  C      0.238686   -0.000002   -0.036095
  N      1.616262   -0.000031   -0.044691
  C      2.331840    1.245975   -0.044867
  H      3.413387    1.045764   -0.053233
  H      2.097533    1.862857   -0.935411
  H      2.109880    1.856970    0.853037
  C      2.331793   -1.246063   -0.044534
  H      3.413353   -1.045892   -0.052179
  H      2.109242   -1.857070    0.853207
  H      2.098025   -1.862922   -0.935246
  H      0.020882   -2.167574   -0.034493
  H     -2.420691   -2.152711   -0.020206
  H     -3.694414    0.000086   -0.012690
  H     -2.420590    2.152828   -0.019681
  H      0.020981    2.167580   -0.033913

----------------------------
CARTESIAN COORDINATES (A.U.)
----------------------------
  NO LB      ZA    FRAG     MASS         X           Y           Z
   0 C     6.0000    0    12.011   -0.937158    2.280692   -0.059151
   1 C     6.0000    0    12.011   -3.565640    2.261998   -0.043738
   2 C     6.0000    0    12.011   -4.915669    0.000118   -0.036237
   3 C     6.0000    0    12.011   -3.565744   -2.261823   -0.044271
   4 C     6.0000    0    12.011   -0.937265   -2.280637   -0.059700
   5 C     6.0000    0    12.011    0.451051   -0.000003   -0.068210
   6 N     7.0000    0    14.007    3.054292   -0.000059   -0.084454
   7 C     6.0000    0    12.011    4.406538    2.354551   -0.084786
   8 H     1.0000    0     1.008    6.450366    1.976207   -0.100595
   9 H     1.0000    0     1.008    3.963763    3.520290   -1.767671
  10 H     1.0000    0     1.008    3.987095    3.509165    1.612006
  11 C     6.0000    0    12.011    4.406451   -2.354718   -0.084157
  12 H     1.0000    0     1.008    6.450302   -1.976449   -0.098604
  13 H     1.0000    0     1.008    3.985890   -3.509354    1.612328
  14 H     1.0000    0     1.008    3.964692   -3.520412   -1.767358
  15 H     1.0000    0     1.008    0.039461   -4.096121   -0.065182
  16 H     1.0000    0     1.008   -4.574444   -4.068033   -0.038185
  17 H     1.0000    0     1.008   -6.981431    0.000163   -0.023980
  18 H     1.0000    0     1.008   -4.574252    4.068255   -0.037193
  19 H     1.0000    0     1.008    0.039649    4.096133   -0.064086

--------------------------------
INTERNAL COORDINATES (ANGSTROEM)
--------------------------------
 C      0   0   0     0.000000000000     0.00000000     0.00000000
 C      1   0   0     1.390991707501     0.00000000     0.00000000
 C      2   1   0     1.393931016094   121.23922658     0.00000000
 C      3   2   1     1.393930998538   118.33909864     0.00000000
 C      4   3   2     1.390990935025   121.23927638     0.00000000
 C      1   2   3     1.412891188402   120.92099676     0.00000000
 N      6   1   2     1.377602606151   121.32971812   179.97494815
 C      7   6   1     1.436865400430   119.86682184     0.18728895
 H      8   7   6     1.099953916235   109.38048688   180.05123588
 H      8   7   6     1.108383038050   112.17601707   299.41152474
 H      8   7   6     1.108517981086   112.21924517    60.63980312
 C      7   6   1     1.436865052043   119.86705342   179.77748569
 H     12   7   6     1.099953652667   109.38053691   179.99152028
 H     12   7   6     1.108511646365   112.21615112   299.39943904
 H     12   7   6     1.108390644406   112.17918940    60.62733244
 H      5   4   3     1.090927210439   118.69063856   179.98922530
 H      4   3   2     1.094758591147   119.98869454   179.98413929
 H      3   2   1     1.093173823760   120.83045706   179.99542879
 H      2   1   3     1.094758404082   118.77195287   179.99063815
 H      1   2   3     1.090926875985   118.69048004   180.01452250

---------------------------
INTERNAL COORDINATES (A.U.)
---------------------------
 C      0   0   0     0.000000000000     0.00000000     0.00000000
 C      1   0   0     2.628593381732     0.00000000     0.00000000
 C      2   1   0     2.634147869995   121.23922658     0.00000000
 C      3   2   1     2.634147836820   118.33909864     0.00000000
 C      4   3   2     2.628591921965   121.23927638     0.00000000
 C      1   2   3     2.669977403111   120.92099676     0.00000000
 N      6   1   2     2.603291647001   121.32971812   179.97494815
 C      7   6   1     2.715282098121   119.86682184     0.18728895
 H      8   7   6     2.078611661619   109.38048688   180.05123588
 H      8   7   6     2.094540393398   112.17601707   299.41152474
 H      8   7   6     2.094795398781   112.21924517    60.63980312
 C      7   6   1     2.715281439764   119.86705342   179.77748569
 H     12   7   6     2.078611163548   109.38053691   179.99152028
 H     12   7   6     2.094783427891   112.21615112   299.39943904
 H     12   7   6     2.094554767327   112.17918940    60.62733244
 H      5   4   3     2.061553659772   118.69063856   179.98922530
 H      4   3   2     2.068793920025   119.98869454   179.98413929
 H      3   2   1     2.065799143678   120.83045706   179.99542879
 H      2   1   3     2.068793566523   118.77195287   179.99063815
 H      1   2   3     2.061553027746   118.69048004   180.01452250

---------------------
BASIS SET INFORMATION
---------------------
There are 3 groups of distinct atoms

 Group   1 Type C   : 19s6p3d2f contracted to 5s4p3d2f pattern {88111/3111/111/11}
 Group   2 Type N   : 19s6p3d2f contracted to 5s4p3d2f pattern {88111/3111/111/11}
 Group   3 Type H   : 6s3p2d contracted to 4s3p2d pattern {3111/111/11}

Atom   0C    basis set group =>   1
Atom   1C    basis set group =>   1
Atom   2C    basis set group =>   1
Atom   3C    basis set group =>   1
Atom   4C    basis set group =>   1
Atom   5C    basis set group =>   1
Atom   6N    basis set group =>   2
Atom   7C    basis set group =>   1
Atom   8H    basis set group =>   3
Atom   9H    basis set group =>   3
Atom  10H    basis set group =>   3
Atom  11C    basis set group =>   1
Atom  12H    basis set group =>   3
Atom  13H    basis set group =>   3
Atom  14H    basis set group =>   3
Atom  15H    basis set group =>   3
Atom  16H    basis set group =>   3
Atom  17H    basis set group =>   3
Atom  18H    basis set group =>   3
Atom  19H    basis set group =>   3
---------------------------------
AUXILIARY/J BASIS SET INFORMATION
---------------------------------
There are 3 groups of distinct atoms

 Group   1 Type C   : 12s5p4d2f1g contracted to 6s4p3d1f1g pattern {711111/2111/211/2/1}
 Group   2 Type N   : 12s5p4d2f1g contracted to 6s4p3d1f1g pattern {711111/2111/211/2/1}
 Group   3 Type H   : 5s2p1d contracted to 3s1p1d pattern {311/2/1}

Atom   0C    basis set group =>   1
Atom   1C    basis set group =>   1
Atom   2C    basis set group =>   1
Atom   3C    basis set group =>   1
Atom   4C    basis set group =>   1
Atom   5C    basis set group =>   1
Atom   6N    basis set group =>   2
Atom   7C    basis set group =>   1
Atom   8H    basis set group =>   3
Atom   9H    basis set group =>   3
Atom  10H    basis set group =>   3
Atom  11C    basis set group =>   1
Atom  12H    basis set group =>   3
Atom  13H    basis set group =>   3
Atom  14H    basis set group =>   3
Atom  15H    basis set group =>   3
Atom  16H    basis set group =>   3
Atom  17H    basis set group =>   3
Atom  18H    basis set group =>   3
Atom  19H    basis set group =>   3


           ************************************************************
           *        Program running with 4 parallel MPI-processes     *
           *              working on a common directory               *
           ************************************************************
------------------------------------------------------------------------------
                             ORCA STARTUP CALCULATIONS
                           -- RI-GTO INTEGRALS CHOSEN --
------------------------------------------------------------------------------
------------------------------------------------------------------------------
                   ___                                                        
                  /   \      - P O W E R E D   B Y -                         
                 /     \                                                     
                 |  |  |   _    _      __       _____    __    __             
                 |  |  |  | |  | |    /  \     |  _  \  |  |  /  |          
                  \  \/   | |  | |   /    \    | | | |  |  | /  /          
                 / \  \   | |__| |  /  /\  \   | |_| |  |  |/  /          
                |  |  |   |  __  | /  /__\  \  |    /   |      \           
                |  |  |   | |  | | |   __   |  |    \   |  |\   \          
                \     /   | |  | | |  |  |  |  | |\  \  |  | \   \       
                 \___/    |_|  |_| |__|  |__|  |_| \__\ |__|  \__/        
                                                                              
                      - O R C A' S   B I G   F R I E N D -                    
                                      &                                       
                       - I N T E G R A L  F E E D E R -                       
                                                                              
 v1 FN, 2020, v2 2021, v3 2022-2024                                           
------------------------------------------------------------------------------


----------------------
SHARK INTEGRAL PACKAGE
----------------------

Number of atoms                             ...     20
Number of basis functions                   ...    721
Number of shells                            ...    279
Maximum angular momentum                    ...      3
Integral batch strategy                     ... SHARK/LIBINT Hybrid
RI-J (if used) integral strategy            ... SPLIT-RIJ (Revised 2003 algorithm where possible)
Printlevel                                  ...      1
Contraction scheme used                     ... PARTIAL GENERAL contraction
Prescreening option                         ... SCHWARTZ
   Thresh                                   ... 2.500e-11
   Tcut                                     ... 2.500e-12
   Tpresel                                  ... 2.500e-12 
Coulomb Range Separation                    ... NOT USED
Exchange Range Separation                   ... NOT USED
Multipole approximations                    ... NOT USED
Finite Nucleus Model                        ... NOT USED
CABS basis                                  ... NOT available
Auxiliary Coulomb fitting basis             ... AVAILABLE
   # of basis functions in Aux-J            ...    562
   # of shells in Aux-J                     ...    190
   Maximum angular momentum in Aux-J        ...      4
Auxiliary J/K fitting basis                 ... NOT available
Auxiliary Correlation fitting basis         ... NOT available
Auxiliary 'external' fitting basis          ... NOT available

Checking pre-screening integrals            ... done (  0.0 sec) Dimension = 279
Save PGC pre-screening integrals            ... done (  0.0 sec) Dimension = 279
Calculate PGC overlap integrals             ... done (  0.1 sec) Dimension = 225
Calculating pre-screening integrals (ORCA)  ... done (  0.3 sec) Dimension = 225
Check shell pair data                       ... done (  0.0 sec)
Shell pair information
Shell pair cut-off parameter TPreSel        ...   2.5e-12
Total number of shell pairs                 ...     39060
Shell pairs after pre-screening             ...     33514
Total number of primitive shell pairs       ...     51100
Primitive shell pairs kept                  ...     40608
          la=0 lb=0:   7592 shell pairs
          la=1 lb=0:   8625 shell pairs
          la=1 lb=1:   2276 shell pairs
          la=2 lb=0:   6092 shell pairs
          la=2 lb=1:   3161 shell pairs
          la=2 lb=2:   1157 shell pairs
          la=3 lb=0:   2386 shell pairs
          la=3 lb=1:   1203 shell pairs
          la=3 lb=2:    851 shell pairs
          la=3 lb=3:    171 shell pairs

Calculating one electron integrals          ... done (  0.1 sec)
Calculating RI/J V-Matrix + Cholesky decomp.... done (  0.1 sec)
Calculating Nuclear repulsion               ... done (  0.0 sec) ENN=    429.366113373619 Eh

Diagonalization of the overlap matrix:
Smallest eigenvalue                        ... 4.725e-07
Time for diagonalization                   ...    0.160 sec
Threshold for overlap eigenvalues          ... 1.000e-07
Number of eigenvalues below threshold      ... 0

IMPORTANT:
Smallest eigenvalue of S below the DiffSThresh (1.000e-06) while
Thresh>1e-12 and/or TCut>1e-13! In order to avoid SCF convergence issues,
Thresh will be set to at least 1e-12 and TCut to at least 1e-13.
This can be turned off by adding %SCF DiffSThresh -1 END to the input.

Time for construction of square roots      ...    0.095 sec
Total time needed                          ...    0.276 sec

-------------------
DFT GRID GENERATION
-------------------

General Integration Accuracy     IntAcc      ... 4.388
Radial Grid Type                 RadialGrid  ... OptM3 with GC (2021)
Angular Grid (max. ang.)         AngularGrid ... 4 (Lebedev-302)
Angular grid pruning method      GridPruning ... 4 (adaptive)
Weight generation scheme         WeightScheme... mBecke (2022)
Basis function cutoff            BFCut       ... 1.0000e-11
Integration weight cutoff        WCut        ... 1.0000e-14
Partially contracted basis set               ... off
Rotationally invariant grid construction     ... off
Angular grids for H and He will be reduced by one unit
Diffuse basis detected: some atoms will have their outermost
                        angular grid increased by 1.

Total number of grid points                  ...    93502
Total number of batches                      ...     1471
Average number of points per batch           ...       63
Average number of grid points per atom       ...     4675

---------------------
SHARK GRID GENERATION
---------------------

General Integration Accuracy     IntAcc      ... 4.388
Radial Grid Type                 RadialGrid  ... OptM3 with GC (2021)
Angular Grid (max. ang.)         AngularGrid ... 4 (Lebedev-302)
Angular grid pruning method      GridPruning ... 4 (adaptive)
Weight generation scheme         WeightScheme... mBecke (2022)
Basis function cutoff            BFCut       ... 1.0000e-11
Integration weight cutoff        WCut        ... 1.0000e-14
Partially contracted basis set               ... off
Rotationally invariant grid construction     ... off
Angular grids for H and He will be reduced by one unit
Diffuse basis detected: some atoms will have their outermost
                        angular grid increased by 1.
Steep s-basis detected: some atoms will have their radial
                        grid points doubled.

Total number of grid points                  ...   149965
Total number of batches                      ...     2355
Average number of points per batch           ...       63
Average number of grid points per atom       ...     7498

--------------------
COSX GRID GENERATION
--------------------

GRIDX 1
-------
General Integration Accuracy     IntAcc      ... 3.816
Radial Grid Type                 RadialGrid  ... OptM3 with GC (2021)
Angular Grid (max. ang.)         AngularGrid ... 1 (Lebedev-50)
Angular grid pruning method      GridPruning ... 4 (adaptive)
Weight generation scheme         WeightScheme... mBecke (2022)
Basis function cutoff            BFCut       ... 1.0000e-11
Integration weight cutoff        WCut        ... 1.0000e-14
Partially contracted basis set               ... on
Rotationally invariant grid construction     ... off
Angular grids for H and He will be reduced by one unit
Diffuse basis detected: some atoms will have their outermost
                        angular grid increased by 1.

Total number of grid points                  ...    11742
Total number of batches                      ...      100
Average number of points per batch           ...      117
Average number of grid points per atom       ...      587
UseSFitting                                  ... on

GRIDX 2
-------
General Integration Accuracy     IntAcc      ... 4.020
Radial Grid Type                 RadialGrid  ... OptM3 with GC (2021)
Angular Grid (max. ang.)         AngularGrid ... 2 (Lebedev-110)
Angular grid pruning method      GridPruning ... 4 (adaptive)
Weight generation scheme         WeightScheme... mBecke (2022)
Basis function cutoff            BFCut       ... 1.0000e-11
Integration weight cutoff        WCut        ... 1.0000e-14
Partially contracted basis set               ... on
Rotationally invariant grid construction     ... off
Angular grids for H and He will be reduced by one unit
Diffuse basis detected: some atoms will have their outermost
                        angular grid increased by 1.

Total number of grid points                  ...    27738
Total number of batches                      ...      228
Average number of points per batch           ...      121
Average number of grid points per atom       ...     1387
UseSFitting                                  ... on

GRIDX 3
-------
General Integration Accuracy     IntAcc      ... 4.338
Radial Grid Type                 RadialGrid  ... OptM3 with GC (2021)
Angular Grid (max. ang.)         AngularGrid ... 3 (Lebedev-194)
Angular grid pruning method      GridPruning ... 4 (adaptive)
Weight generation scheme         WeightScheme... mBecke (2022)
Basis function cutoff            BFCut       ... 1.0000e-11
Integration weight cutoff        WCut        ... 1.0000e-14
Partially contracted basis set               ... on
Rotationally invariant grid construction     ... off
Angular grids for H and He will be reduced by one unit
Diffuse basis detected: some atoms will have their outermost
                        angular grid increased by 1.

Total number of grid points                  ...    62015
Total number of batches                      ...      495
Average number of points per batch           ...      125
Average number of grid points per atom       ...     3101
UseSFitting                                  ... on
Initializing property integral containers    ... done (  0.0 sec)

SHARK setup successfully completed in  10.7 seconds

Maximum memory used throughout the entire STARTUP-calculation: 80.7 MB


           ************************************************************
           *        Program running with 4 parallel MPI-processes     *
           *              working on a common directory               *
           ************************************************************
-------------------------------------------------------------------------------
                                 ORCA GUESS
                   Start orbitals & Density for SCF / CASSCF
-------------------------------------------------------------------------------

------------
SCF SETTINGS
------------
Hamiltonian:
 Density Functional     Method          .... DFT(GTOs)
 Exchange Functional    Exchange        .... PBE
   PBE kappa parameter   XKappa         ....  0.804000
   PBE mue parameter    XMuePBE         ....  0.219520
 Correlation Functional Correlation     .... PBE
   PBE beta parameter  CBetaPBE         ....  0.066725
 LDA part of GGA corr.  LDAOpt          .... PW91-LDA
 Gradients option       PostSCFGGA      .... off
 Hybrid DFT is turned on
   Fraction HF Exchange ScalHFX         ....  0.250000
   Scaling of DF-GGA-X  ScalDFX         ....  0.750000
   Scaling of DF-GGA-C  ScalDFC         ....  1.000000
   Scaling of DF-LDA-C  ScalLDAC        ....  1.000000
   Perturbative correction              ....  0.000000
   NL short-range parameter             ....  6.900000
 RI-approximation to the Coulomb term is turned on
   Number of AuxJ basis functions       .... 562
   RIJ-COSX (HFX calculated with COS-X)).... on


General Settings:
 Integral files         IntName         .... cs_rporg_066_red_solv_04
 Hartree-Fock type      HFTyp           .... RHF
 Total Charge           Charge          ....    0
 Multiplicity           Mult            ....    1
 Number of Electrons    NEL             ....   66
 Basis Dimension        Dim             ....  667
 Nuclear Repulsion      ENuc            ....    429.3661133736 Eh

Convergence Acceleration:
 AO-DIIS                CNVDIIS         .... on
   Start iteration      DIISMaxIt       ....     0
   Startup error        DIISStart       ....  0.200000
   # of expansion vecs  DIISMaxEq       ....     5
   Bias factor          DIISBfac        ....   1.050
   Max. coefficient     DIISMaxC        ....  10.000
 MO-DIIS                CNVKDIIS        .... off
 Trust-Rad. Augm. Hess. CNVTRAH         .... auto
   Auto Start mean grad. ratio tolernc. ....  1.125000
   Auto Start start iteration           ....    50
   Auto Start num. interpolation iter.  ....    10
   Max. Number of Micro iterations      ....    24
   Max. Number of Macro iterations      .... Maxiter - #DIIS iter
   Number of Davidson start vectors     ....     2
   Converg. threshold    (grad. norm)   ....   1.000e-05
   Grad. Scal. Fac. for Micro threshold ....   0.100
   Minimum threshold for Micro iter.    ....   1.000e-02
   NR start threshold (gradient norm)   ....   1.000e-04
   Initial trust radius                 ....   0.400
   Minimum AH scaling param. (alpha)    ....   1.000
   Maximum AH scaling param. (alpha)    .... 1000.000
   Quad. conv. algorithm                .... NR
   White noise on init. David. guess    .... on
   Maximum white noise                  ....   0.010
   Pseudo random numbers                .... off
   Inactive MOs                         .... canonical
   Orbital update algorithm             .... Taylor
   Preconditioner                       .... Diag
   Full preconditioner red. dimension   ....   250
 SOSCF                  CNVSOSCF        .... on
   Start iteration      SOSCFMaxIt      ....   150
   Startup grad/error   SOSCFStart      ....  0.001000
   Hessian update       SOSCFHessUp     .... L-BFGS
 Level Shifting         CNVShift        .... on
   Level shift para.    LevelShift      ....    0.2500
   Turn off err/grad.   ShiftErr        ....    0.0000
 Zerner damping         CNVZerner       .... off
 Static damping         CNVDamp         .... on
   Fraction old density DampFac         ....    0.8500
   Max. Damping (<1)    DampMax         ....    0.9800
   Min. Damping (>=0)   DampMin         ....    0.0000
   Turn off err/grad.   DampErr         ....    0.0300

SCF Procedure:
 Maximum # iterations   MaxIter         ....  1500
 SCF integral mode      SCFMode         .... Direct
   Integral package                     .... SHARK and LIBINT hybrid scheme
 Reset frequency        DirectResetFreq ....    20
 Integral Threshold     Thresh          ....  1.000e-12 Eh
 Primitive CutOff       TCut            ....  1.000e-13 Eh

Convergence Tolerance:
 Convergence Check Mode ConvCheckMode   .... Total+1el-Energy
 Convergence forced     ConvForced      .... 0
 Energy Change          TolE            ....  1.000e-08 Eh
 1-El. energy change                    ....  1.000e-05 Eh
 Orbital Gradient       TolG            ....  1.000e-05
 Orbital Rotation angle TolX            ....  1.000e-05
 DIIS Error             TolErr          ....  5.000e-07

------------------------------
INITIAL GUESS: MODEL POTENTIAL
------------------------------
Loading Hartree-Fock densities                     ... done
Calculating cut-offs                               ... done
Initializing the effective Hamiltonian             ... done
Setting up the integral package (SHARK)            ... done
Starting the Coulomb interaction                   ... done (   0.9 sec)
Making the grid                                    ... done (   0.5 sec)
Mapping shells                                     ... done
Starting the XC term evaluation                    ... done (   1.1 sec)
  promolecular density results
     # of electrons  =     66.000983704
     EX              =    -50.704603320
     EC              =     -2.176464602
     EX+EC           =    -52.881067921
Transforming the Hamiltonian                       ... done (   0.1 sec)
Diagonalizing the Hamiltonian                      ... done (   0.2 sec)
Back transforming the eigenvectors                 ... done (   0.1 sec)
Now organizing SCF variables                       ... done
                      ------------------
                      INITIAL GUESS DONE (   3.1 sec)
                      ------------------
             **** ENERGY FILE WAS UPDATED (cs_rporg_066_red_solv_04.en.tmp) ****
Finished Guess after   4.4 sec
Maximum memory used throughout the entire GUESS-calculation: 59.8 MB


           ************************************************************
           *        Program running with 4 parallel MPI-processes     *
           *              working on a common directory               *
           ************************************************************

-------------------------------------------------------------------------------------------
                                      ORCA LEAN-SCF
                              memory conserving SCF solver
-------------------------------------------------------------------------------------------

--------------------
CPCM SOLVATION MODEL
--------------------
CPCM parameters:
  Epsilon                                         ...      35.6880
  Refrac                                          ...       1.3442
  Rsolv                                           ...       2.1900
  Surface type                                    ...    GEPOL SES
  Discretization scheme                           ... Constant num. charges
  Epsilon function type                           ...         CPCM
Solvent:                                          ... ACETONITRILE
SMD-CDS solvent descriptors:
  Soln                                            ...       1.3442
  Soln25                                          ...       1.3416
  Sola                                            ...       0.0700
  Solb                                            ...       0.3200
  Solg                                            ...      41.2500
  Solc                                            ...       0.0000
  Solh                                            ...       0.0000
Radii:
  Scheme                                          ... Element-dependent radii
  Radius for C  used is    3.4960 Bohr (=   1.8500 Ang.)
  Radius for N  used is    3.5716 Bohr (=   1.8900 Ang.)
  Radius for H  used is    2.2677 Bohr (=   1.2000 Ang.)
Calculating surface                               ...        done! (  0.0s)
Cavity surface points                             ...          635
Cavity Volume                                     ...     976.7553
Cavity Surface-area                               ...     573.5128
Calculating surface distance matrix               ...        done! (  0.0s)
Performing Cholesky decomposition & store         ...        done! (  0.0s)
Overall time for CPCM initialization              ...                 0.1s

----------------------------------------D-I-I-S--------------------------------------------
Iteration    Energy (Eh)           Delta-E    RMSDP     MaxDP     DIISErr   Damp  Time(sec)
-------------------------------------------------------------------------------------------
               ***  Starting incremental Fock matrix formation  ***
    1    -365.6942502885201520     0.00e+00  9.48e-04  9.35e-02  1.51e-01  0.850  25.5
    2    -365.7452611583737507    -5.10e-02  8.51e-04  7.84e-02  1.16e-01  0.850  14.8
                               ***Turning on AO-DIIS***
    3    -365.7815047274206108    -3.62e-02  6.18e-04  5.27e-02  8.45e-02  0.850  14.3
    4    -365.8059240221640493    -2.44e-02  5.10e-04  4.40e-02  6.78e-02  0.850  14.0
    5    -365.8238925375553663    -1.80e-02  4.30e-04  3.79e-02  5.68e-02  0.850  14.2
    6    -365.8380186926673332    -1.41e-02  3.67e-04  3.32e-02  4.81e-02  0.850  14.1
    7    -365.8495262248495692    -1.15e-02  3.13e-04  2.89e-02  4.08e-02  0.850  14.1
    8    -365.8590032170344557    -9.48e-03  2.65e-04  2.43e-02  3.44e-02  0.850  13.8
    9    -365.8668081034971920    -7.80e-03  2.25e-04  2.04e-02  2.90e-02  0.850  13.9
   10    -365.8732498378871014    -6.44e-03  1.27e-03  1.15e-01  2.44e-02  0.000  13.7
   11    -365.9066758091130396    -3.34e-02  2.75e-05  1.51e-03  1.62e-03  0.000  14.7
                              *** Initializing SOSCF ***
---------------------------------------S-O-S-C-F--------------------------------------
Iteration    Energy (Eh)           Delta-E    RMSDP     MaxDP     MaxGrad    Time(sec)
--------------------------------------------------------------------------------------
   12    -365.9066983700100764    -2.26e-05  9.62e-06  7.94e-04  4.94e-04    14.4
               *** Restarting incremental Fock matrix formation ***
   13    -365.9067051496623435    -6.78e-06  6.48e-04  4.20e-02  5.02e-05    25.4
   14    -365.9067052308014354    -8.11e-08  1.30e-04  8.87e-03  7.76e-05    22.0
   15    -365.9067054695173056    -2.39e-07  1.41e-04  9.61e-03  1.23e-05    21.4
   16    -365.9067054894427429    -1.99e-08  3.04e-06  2.01e-04  6.71e-06    21.1
   17    -365.9067054887162840     7.26e-10  2.52e-05  1.70e-03  4.61e-06    18.7
                 **** Energy Check signals convergence ****

               *****************************************************
               *                     SUCCESS                       *
               *           SCF CONVERGED AFTER  17 CYCLES          *
               *****************************************************

Recomputing exchange energy using gridx3       ... done (   40.302 sec)
Old exchange energy                            :    -12.991305311 Eh
New exchange energy                            :    -12.991364606 Eh
Exchange energy change after final integration :     -0.000059295 Eh
Total energy after final integration           :   -365.906764784 Eh

SMD CDS free energy correction energy :                -1.93212     Kcal/mol
Total Energy after SMD CDS correction =              -365.909843814 Eh
             **** ENERGY FILE WAS UPDATED (cs_rporg_066_red_solv_04.en.tmp) ****

----------------
TOTAL SCF ENERGY
----------------

Total Energy       :       -365.90984381420833 Eh           -9956.91305 eV

Components:
Nuclear Repulsion  :        429.36611337361910 Eh           11683.64593 eV
Electronic Energy  :       -795.26136298128995 Eh          -21640.16185 eV
One Electron Energy:      -1344.31612234893419 Eh          -36580.70142 eV
Two Electron Energy:        549.05475936764424 Eh           14940.53956 eV
CPCM Dielectric    :         -0.01145588104546 Eh              -0.31173 eV
SMD CDS (Gcds)     :         -0.00307903026236 Eh              -0.08378 eV

Virial components:
Potential Energy   :       -729.35614958770748 Eh          -19846.78982 eV
Kinetic Energy     :        363.44630577349920 Eh            9889.87677 eV
Virial Ratio       :          2.00677827233782

DFT components:
N(Alpha)           :       33.000070200568 electrons
N(Beta)            :       33.000070200568 electrons
N(Total)           :       66.000140401135 electrons
E(X)               :      -38.834744384296 Eh       
E(C)               :       -2.179184909691 Eh       
E(XC)              :      -41.013929293987 Eh       

CPCM Solvation Model Properties:
Surface-charge          :         -0.05198169928003
Corrected charge        :         -0.00000000000000
Outlying charge corr.   :          0.00019924218490 Eh               0.00542 eV
Free-energy (cav+disp)  :         -0.00307903026236 Eh              -0.08378 eV

---------------
SCF CONVERGENCE
---------------

  Last Energy change         ...   -7.2646e-10  Tolerance :   1.0000e-08
  Last MAX-Density change    ...    1.7008e-03  Tolerance :   1.0000e-07
  Last RMS-Density change    ...    2.5178e-05  Tolerance :   5.0000e-09
  Last DIIS Error            ...    4.9393e-04  Tolerance :   5.0000e-07
  Last Orbital Gradient      ...    4.6146e-06  Tolerance :   1.0000e-05
  Last Orbital Rotation      ...    9.8155e-06  Tolerance :   1.0000e-05


----------------
ORBITAL ENERGIES
----------------

  NO   OCC          E(Eh)            E(eV) 
   0   2.0000     -14.404090      -391.9552 
   1   2.0000     -10.267646      -279.3968 
   2   2.0000     -10.243401      -278.7371 
   3   2.0000     -10.243383      -278.7366 
   4   2.0000     -10.226244      -278.2702 
   5   2.0000     -10.226221      -278.2696 
   6   2.0000     -10.219588      -278.0891 
   7   2.0000     -10.219577      -278.0888 
   8   2.0000     -10.214929      -277.9624 
   9   2.0000      -0.977684       -26.6041 
  10   2.0000      -0.867847       -23.6153 
  11   2.0000      -0.768421       -20.9098 
  12   2.0000      -0.765620       -20.8336 
  13   2.0000      -0.734252       -19.9800 
  14   2.0000      -0.672647       -18.3037 
  15   2.0000      -0.614140       -16.7116 
  16   2.0000      -0.587282       -15.9808 
  17   2.0000      -0.540823       -14.7166 
  18   2.0000      -0.491172       -13.3655 
  19   2.0000      -0.483820       -13.1654 
  20   2.0000      -0.473594       -12.8872 
  21   2.0000      -0.452881       -12.3235 
  22   2.0000      -0.429967       -11.7000 
  23   2.0000      -0.426480       -11.6051 
  24   2.0000      -0.405595       -11.0368 
  25   2.0000      -0.396825       -10.7982 
  26   2.0000      -0.382480       -10.4078 
  27   2.0000      -0.377926       -10.2839 
  28   2.0000      -0.363040        -9.8788 
  29   2.0000      -0.339535        -9.2392 
  30   2.0000      -0.298426        -8.1206 
  31   2.0000      -0.265291        -7.2189 
  32   2.0000      -0.202039        -5.4978 
  33   0.0000      -0.006696        -0.1822 
  34   0.0000       0.000089         0.0024 
  35   0.0000       0.010490         0.2855 
  36   0.0000       0.014019         0.3815 
  37   0.0000       0.016770         0.4563 
  38   0.0000       0.026501         0.7211 
  39   0.0000       0.031583         0.8594 
  40   0.0000       0.032579         0.8865 
  41   0.0000       0.040575         1.1041 
  42   0.0000       0.045312         1.2330 
  43   0.0000       0.053649         1.4599 
*Only the first 10 virtual orbitals were printed.

                    ********************************
                    * MULLIKEN POPULATION ANALYSIS *
                    ********************************

-----------------------
MULLIKEN ATOMIC CHARGES
-----------------------
   0 C :   -0.699569
   1 C :   -0.695811
   2 C :   -0.668893
   3 C :   -0.694802
   4 C :   -0.700262
   5 C :    1.221435
   6 N :   -0.163278
   7 C :   -0.923423
   8 H :    0.277426
   9 H :    0.290218
  10 H :    0.291097
  11 C :   -0.923800
  12 H :    0.278564
  13 H :    0.290923
  14 H :    0.290390
  15 H :    0.435819
  16 H :    0.546207
  17 H :    0.564952
  18 H :    0.544399
  19 H :    0.438408
Sum of atomic charges:   -0.0000000

--------------------------------
MULLIKEN REDUCED ORBITAL CHARGES
--------------------------------
  0 C s       :     4.004095  s :     4.004095
      pz      :     1.040421  p :     2.622760
      px      :     0.604356
      py      :     0.977982
      dz2     :    -0.002405  d :     0.089094
      dxz     :     0.004064
      dyz     :    -0.001635
      dx2y2   :     0.014156
      dxy     :     0.074913
      f0      :     0.000943  f :    -0.016380
      f+1     :    -0.000209
      f-1     :    -0.000118
      f+2     :     0.001005
      f-2     :    -0.001374
      f+3     :     0.004108
      f-3     :    -0.020736

  1 C s       :     3.626176  s :     3.626176
      pz      :     0.958680  p :     2.989802
      px      :     1.132898
      py      :     0.898224
      dz2     :    -0.011019  d :     0.090405
      dxz     :     0.033126
      dyz     :     0.016273
      dx2y2   :     0.020187
      dxy     :     0.031837
      f0      :     0.001179  f :    -0.010572
      f+1     :     0.001177
      f-1     :     0.000434
      f+2     :     0.000555
      f-2     :    -0.000185
      f+3     :    -0.002925
      f-3     :    -0.010809

  2 C s       :     3.623961  s :     3.623961
      pz      :     1.021077  p :     2.920616
      px      :     0.967375
      py      :     0.932164
      dz2     :    -0.015246  d :     0.133594
      dxz     :     0.004226
      dyz     :     0.038859
      dx2y2   :     0.110401
      dxy     :    -0.004647
      f0      :     0.000953  f :    -0.009278
      f+1     :     0.001134
      f-1     :     0.001063
      f+2     :     0.000445
      f-2     :     0.000026
      f+3     :    -0.002792
      f-3     :    -0.010107

  3 C s       :     3.627015  s :     3.627015
      pz      :     0.958705  p :     2.989347
      px      :     1.134125
      py      :     0.896518
      dz2     :    -0.010998  d :     0.088851
      dxz     :     0.033119
      dyz     :     0.016279
      dx2y2   :     0.019606
      dxy     :     0.030844
      f0      :     0.001179  f :    -0.010411
      f+1     :     0.001179
      f-1     :     0.000433
      f+2     :     0.000557
      f-2     :    -0.000186
      f+3     :    -0.002880
      f-3     :    -0.010693

  4 C s       :     4.005319  s :     4.005319
      pz      :     1.040391  p :     2.621651
      px      :     0.602321
      py      :     0.978939
      dz2     :    -0.002571  d :     0.089550
      dxz     :     0.004116
      dyz     :    -0.001640
      dx2y2   :     0.016104
      dxy     :     0.073542
      f0      :     0.000943  f :    -0.016258
      f+1     :    -0.000186
      f-1     :    -0.000115
      f+2     :     0.001009
      f-2     :    -0.001372
      f+3     :     0.004076
      f-3     :    -0.020613

  5 C s       :     3.199271  s :     3.199271
      pz      :     0.929161  p :     1.789027
      px      :     0.255201
      py      :     0.604665
      dz2     :    -0.031242  d :    -0.206646
      dxz     :     0.080280
      dyz     :    -0.029426
      dx2y2   :    -0.241892
      dxy     :     0.015635
      f0      :     0.002760  f :    -0.003088
      f+1     :    -0.000301
      f-1     :    -0.000576
      f+2     :     0.008929
      f-2     :     0.000928
      f+3     :    -0.011585
      f-3     :    -0.003244

  6 N s       :     3.940912  s :     3.940912
      pz      :     1.538035  p :     3.165410
      px      :     0.808193
      py      :     0.819182
      dz2     :    -0.004615  d :     0.032926
      dxz     :     0.026417
      dyz     :     0.021760
      dx2y2   :    -0.020709
      dxy     :     0.010072
      f0      :     0.001011  f :     0.024030
      f+1     :    -0.000532
      f-1     :    -0.000747
      f+2     :     0.003198
      f-2     :     0.001727
      f+3     :    -0.004253
      f-3     :     0.023627

  7 C s       :     3.540330  s :     3.540330
      pz      :     1.144713  p :     3.173450
      px      :     1.051460
      py      :     0.977277
      dz2     :     0.021444  d :     0.175275
      dxz     :     0.005982
      dyz     :     0.108226
      dx2y2   :     0.032568
      dxy     :     0.007055
      f0      :     0.005091  f :     0.034367
      f+1     :     0.000911
      f-1     :     0.004802
      f+2     :    -0.000179
      f-2     :     0.008747
      f+3     :     0.001940
      f-3     :     0.013056

  8 H s       :     0.685481  s :     0.685481
      pz      :     0.012128  p :     0.030840
      px      :     0.018172
      py      :     0.000540
      dz2     :    -0.000509  d :     0.006253
      dxz     :     0.002045
      dyz     :     0.001300
      dx2y2   :     0.001716
      dxy     :     0.001702

  9 H s       :     0.672197  s :     0.672197
      pz      :     0.014153  p :     0.033202
      px      :     0.004939
      py      :     0.014110
      dz2     :     0.001938  d :     0.004383
      dxz     :     0.001259
      dyz     :     0.000658
      dx2y2   :    -0.000023
      dxy     :     0.000551

 10 H s       :     0.671178  s :     0.671178
      pz      :     0.014326  p :     0.033332
      px      :     0.004931
      py      :     0.014075
      dz2     :     0.001865  d :     0.004393
      dxz     :     0.001340
      dyz     :     0.000681
      dx2y2   :    -0.000029
      dxy     :     0.000535

 11 C s       :     3.541394  s :     3.541394
      pz      :     1.144691  p :     3.172571
      px      :     1.050632
      py      :     0.977248
      dz2     :     0.021465  d :     0.175499
      dxz     :     0.005982
      dyz     :     0.108223
      dx2y2   :     0.032638
      dxy     :     0.007191
      f0      :     0.005090  f :     0.034336
      f+1     :     0.000914
      f-1     :     0.004790
      f+2     :    -0.000179
      f-2     :     0.008744
      f+3     :     0.001947
      f-3     :     0.013030

 12 H s       :     0.684499  s :     0.684499
      pz      :     0.012139  p :     0.030698
      px      :     0.018129
      py      :     0.000431
      dz2     :    -0.000506  d :     0.006238
      dxz     :     0.002044
      dyz     :     0.001300
      dx2y2   :     0.001695
      dxy     :     0.001705

 13 H s       :     0.671376  s :     0.671376
      pz      :     0.014298  p :     0.033315
      px      :     0.004935
      py      :     0.014081
      dz2     :     0.001872  d :     0.004386
      dxz     :     0.001338
      dyz     :     0.000675
      dx2y2   :    -0.000030
      dxy     :     0.000532

 14 H s       :     0.671998  s :     0.671998
      pz      :     0.014210  p :     0.033230
      px      :     0.004945
      py      :     0.014074
      dz2     :     0.001939  d :     0.004383
      dxz     :     0.001264
      dyz     :     0.000658
      dx2y2   :    -0.000025
      dxy     :     0.000547

 15 H s       :     0.584173  s :     0.584173
      pz      :     0.016559  p :    -0.029047
      px      :    -0.001494
      py      :    -0.044112
      dz2     :     0.000608  d :     0.009054
      dxz     :     0.001685
      dyz     :     0.002847
      dx2y2   :     0.003096
      dxy     :     0.000818

 16 H s       :     0.429570  s :     0.429570
      pz      :     0.015304  p :     0.017767
      px      :     0.004623
      py      :    -0.002161
      dz2     :    -0.000275  d :     0.006456
      dxz     :     0.000744
      dyz     :     0.003243
      dx2y2   :     0.001292
      dxy     :     0.001454

 17 H s       :     0.452428  s :     0.452428
      pz      :     0.018628  p :    -0.023179
      px      :    -0.037514
      py      :    -0.004292
      dz2     :    -0.000320  d :     0.005799
      dxz     :     0.004709
      dyz     :    -0.000354
      dx2y2   :     0.000551
      dxy     :     0.001212

 18 H s       :     0.431443  s :     0.431443
      pz      :     0.015307  p :     0.017690
      px      :     0.004548
      py      :    -0.002165
      dz2     :    -0.000275  d :     0.006467
      dxz     :     0.000744
      dyz     :     0.003243
      dx2y2   :     0.001301
      dxy     :     0.001454

 19 H s       :     0.581206  s :     0.581206
      pz      :     0.016556  p :    -0.028664
      px      :    -0.001208
      py      :    -0.044012
      dz2     :     0.000614  d :     0.009050
      dxz     :     0.001686
      dyz     :     0.002846
      dx2y2   :     0.003094
      dxy     :     0.000810



                     *******************************
                     * LOEWDIN POPULATION ANALYSIS *
                     *******************************

----------------------
LOEWDIN ATOMIC CHARGES
----------------------
   0 C :    0.200552
   1 C :    0.161964
   2 C :    0.157038
   3 C :    0.161964
   4 C :    0.200550
   5 C :   -0.235115
   6 N :    0.229860
   7 C :    0.463248
   8 H :   -0.160366
   9 H :   -0.141803
  10 H :   -0.141299
  11 C :    0.463256
  12 H :   -0.160346
  13 H :   -0.141332
  14 H :   -0.141782
  15 H :   -0.196155
  16 H :   -0.170588
  17 H :   -0.182901
  18 H :   -0.170590
  19 H :   -0.196154

-------------------------------
LOEWDIN REDUCED ORBITAL CHARGES
-------------------------------
  0 C s       :     2.471349  s :     2.471349
      pz      :     0.636156  p :     2.295758
      px      :     0.840267
      py      :     0.819335
      dz2     :     0.069456  d :     0.691492
      dxz     :     0.109264
      dyz     :     0.058843
      dx2y2   :     0.211267
      dxy     :     0.242662
      f0      :     0.020630  f :     0.340849
      f+1     :     0.029248
      f-1     :     0.022427
      f+2     :     0.047280
      f-2     :     0.028424
      f+3     :     0.061417
      f-3     :     0.131422

  1 C s       :     2.489374  s :     2.489374
      pz      :     0.599030  p :     2.288446
      px      :     0.848945
      py      :     0.840471
      dz2     :     0.067590  d :     0.722448
      dxz     :     0.124618
      dyz     :     0.066025
      dx2y2   :     0.202869
      dxy     :     0.261347
      f0      :     0.018848  f :     0.337769
      f+1     :     0.027962
      f-1     :     0.022513
      f+2     :     0.049923
      f-2     :     0.025106
      f+3     :     0.056843
      f-3     :     0.136573

  2 C s       :     2.490941  s :     2.490941
      pz      :     0.637389  p :     2.322271
      px      :     0.831318
      py      :     0.853564
      dz2     :     0.067407  d :     0.699495
      dxz     :     0.044861
      dyz     :     0.121601
      dx2y2   :     0.292214
      dxy     :     0.173411
      f0      :     0.019459  f :     0.330255
      f+1     :     0.019952
      f-1     :     0.030394
      f+2     :     0.010278
      f-2     :     0.058711
      f+3     :     0.054096
      f-3     :     0.137366

  3 C s       :     2.489374  s :     2.489374
      pz      :     0.599030  p :     2.288446
      px      :     0.848945
      py      :     0.840472
      dz2     :     0.067590  d :     0.722446
      dxz     :     0.124614
      dyz     :     0.066029
      dx2y2   :     0.202858
      dxy     :     0.261356
      f0      :     0.018848  f :     0.337769
      f+1     :     0.027962
      f-1     :     0.022514
      f+2     :     0.049927
      f-2     :     0.025102
      f+3     :     0.056844
      f-3     :     0.136573

  4 C s       :     2.471351  s :     2.471351
      pz      :     0.636155  p :     2.295759
      px      :     0.840268
      py      :     0.819335
      dz2     :     0.069456  d :     0.691491
      dxz     :     0.109267
      dyz     :     0.058840
      dx2y2   :     0.211273
      dxy     :     0.242655
      f0      :     0.020630  f :     0.340850
      f+1     :     0.029249
      f-1     :     0.022426
      f+2     :     0.047277
      f-2     :     0.028427
      f+3     :     0.061417
      f-3     :     0.131423

  5 C s       :     2.442858  s :     2.442858
      pz      :     0.596229  p :     2.212829
      px      :     0.770046
      py      :     0.846554
      dz2     :     0.092054  d :     1.012808
      dxz     :     0.200590
      dyz     :     0.126366
      dx2y2   :     0.307242
      dxy     :     0.286557
      f0      :     0.032735  f :     0.566620
      f+1     :     0.040436
      f-1     :     0.033738
      f+2     :     0.085377
      f-2     :     0.068122
      f+3     :     0.085826
      f-3     :     0.220388

  6 N s       :     2.605228  s :     2.605228
      pz      :     1.092615  p :     2.989054
      px      :     0.964081
      py      :     0.932358
      dz2     :     0.062606  d :     0.835305
      dxz     :     0.111321
      dyz     :     0.150474
      dx2y2   :     0.256053
      dxy     :     0.254850
      f0      :     0.033344  f :     0.340553
      f+1     :     0.021462
      f-1     :     0.015486
      f+2     :     0.051779
      f-2     :     0.031639
      f+3     :     0.047107
      f-3     :     0.139736

  7 C s       :     2.431791  s :     2.431791
      pz      :     0.780475  p :     2.226067
      px      :     0.747668
      py      :     0.697925
      dz2     :     0.091150  d :     0.622607
      dxz     :     0.034213
      dyz     :     0.210696
      dx2y2   :     0.169728
      dxy     :     0.116820
      f0      :     0.028449  f :     0.256286
      f+1     :     0.018619
      f-1     :     0.034030
      f+2     :     0.015239
      f-2     :     0.051862
      f+3     :     0.041252
      f-3     :     0.066835

  8 H s       :     0.612540  s :     0.612540
      pz      :     0.088805  p :     0.311656
      px      :     0.134092
      py      :     0.088759
      dz2     :     0.018924  d :     0.236170
      dxz     :     0.073834
      dyz     :     0.017998
      dx2y2   :     0.050367
      dxy     :     0.075047

  9 H s       :     0.618434  s :     0.618434
      pz      :     0.128432  p :     0.302691
      px      :     0.091073
      py      :     0.083186
      dz2     :     0.075897  d :     0.220679
      dxz     :     0.040652
      dyz     :     0.042791
      dx2y2   :     0.031767
      dxy     :     0.029572

 10 H s       :     0.618642  s :     0.618642
      pz      :     0.129095  p :     0.302354
      px      :     0.090498
      py      :     0.082761
      dz2     :     0.075625  d :     0.220303
      dxz     :     0.041544
      dyz     :     0.043282
      dx2y2   :     0.030902
      dxy     :     0.028949

 11 C s       :     2.431791  s :     2.431791
      pz      :     0.780467  p :     2.226069
      px      :     0.747688
      py      :     0.697914
      dz2     :     0.091149  d :     0.622600
      dxz     :     0.034210
      dyz     :     0.210701
      dx2y2   :     0.169724
      dxy     :     0.116818
      f0      :     0.028449  f :     0.256284
      f+1     :     0.018619
      f-1     :     0.034030
      f+2     :     0.015240
      f-2     :     0.051860
      f+3     :     0.041254
      f-3     :     0.066831

 12 H s       :     0.612516  s :     0.612516
      pz      :     0.088801  p :     0.311658
      px      :     0.134100
      py      :     0.088758
      dz2     :     0.018923  d :     0.236172
      dxz     :     0.073837
      dyz     :     0.017997
      dx2y2   :     0.050368
      dxy     :     0.075047

 13 H s       :     0.618628  s :     0.618628
      pz      :     0.129083  p :     0.302378
      px      :     0.090533
      py      :     0.082762
      dz2     :     0.075637  d :     0.220326
      dxz     :     0.041522
      dyz     :     0.043273
      dx2y2   :     0.030935
      dxy     :     0.028960

 14 H s       :     0.618457  s :     0.618457
      pz      :     0.128445  p :     0.302671
      px      :     0.091046
      py      :     0.083180
      dz2     :     0.075886  d :     0.220655
      dxz     :     0.040676
      dyz     :     0.042799
      dx2y2   :     0.031738
      dxy     :     0.029557

 15 H s       :     0.631522  s :     0.631522
      pz      :     0.091707  p :     0.330550
      px      :     0.117560
      py      :     0.121283
      dz2     :     0.024933  d :     0.234083
      dxz     :     0.021911
      dyz     :     0.047305
      dx2y2   :     0.082591
      dxy     :     0.057344

 16 H s       :     0.659631  s :     0.659631
      pz      :     0.081554  p :     0.298490
      px      :     0.091479
      py      :     0.125457
      dz2     :     0.022641  d :     0.212467
      dxz     :     0.018017
      dyz     :     0.045294
      dx2y2   :     0.072116
      dxy     :     0.054399

 17 H s       :     0.665823  s :     0.665823
      pz      :     0.090878  p :     0.305152
      px      :     0.139008
      py      :     0.075266
      dz2     :     0.022218  d :     0.211926
      dxz     :     0.062155
      dyz     :     0.003272
      dx2y2   :     0.044026
      dxy     :     0.080255

 18 H s       :     0.659633  s :     0.659633
      pz      :     0.081554  p :     0.298490
      px      :     0.091476
      py      :     0.125460
      dz2     :     0.022641  d :     0.212467
      dxz     :     0.018015
      dyz     :     0.045296
      dx2y2   :     0.072113
      dxy     :     0.054402

 19 H s       :     0.631521  s :     0.631521
      pz      :     0.091707  p :     0.330549
      px      :     0.117562
      py      :     0.121281
      dz2     :     0.024933  d :     0.234084
      dxz     :     0.021913
      dyz     :     0.047303
      dx2y2   :     0.082594
      dxy     :     0.057342



                      *****************************
                      * MAYER POPULATION ANALYSIS *
                      *****************************

  NA   - Mulliken gross atomic population
  ZA   - Total nuclear charge
  QA   - Mulliken gross atomic charge
  VA   - Mayer's total valence
  BVA  - Mayer's bonded valence
  FA   - Mayer's free valence

  ATOM       NA         ZA         QA         VA         BVA        FA
  0 C      6.6996     6.0000    -0.6996     2.5667     2.5667    -0.0000
  1 C      6.6958     6.0000    -0.6958     2.7216     2.7216    -0.0000
  2 C      6.6689     6.0000    -0.6689     3.1925     3.1925     0.0000
  3 C      6.6948     6.0000    -0.6948     2.7177     2.7177    -0.0000
  4 C      6.7003     6.0000    -0.7003     2.5585     2.5585     0.0000
  5 C      4.7786     6.0000     1.2214     0.9140     0.9140     0.0000
  6 N      7.1633     7.0000    -0.1633     2.3881     2.3881    -0.0000
  7 C      6.9234     6.0000    -0.9234     3.7565     3.7565    -0.0000
  8 H      0.7226     1.0000     0.2774     0.9496     0.9496     0.0000
  9 H      0.7098     1.0000     0.2902     0.9416     0.9416    -0.0000
 10 H      0.7089     1.0000     0.2911     0.9414     0.9414     0.0000
 11 C      6.9238     6.0000    -0.9238     3.7551     3.7551    -0.0000
 12 H      0.7214     1.0000     0.2786     0.9487     0.9487     0.0000
 13 H      0.7091     1.0000     0.2909     0.9416     0.9416    -0.0000
 14 H      0.7096     1.0000     0.2904     0.9417     0.9417    -0.0000
 15 H      0.5642     1.0000     0.4358     0.6057     0.6057    -0.0000
 16 H      0.4538     1.0000     0.5462     0.6171     0.6171    -0.0000
 17 H      0.4350     1.0000     0.5650     0.4801     0.4801    -0.0000
 18 H      0.4556     1.0000     0.5444     0.6197     0.6197     0.0000
 19 H      0.5616     1.0000     0.4384     0.6008     0.6008    -0.0000

  Mayer bond orders larger than 0.100000
B(  0-C ,  1-C ) :   1.2354 B(  0-C ,  2-C ) :   0.2587 B(  0-C ,  4-C ) :   0.1771 
B(  0-C ,  5-C ) :   0.6437 B(  0-C ,  6-N ) :  -0.2855 B(  0-C ,  7-C ) :  -0.1107 
B(  0-C , 19-H ) :   0.5491 B(  1-C ,  2-C ) :   1.2453 B(  1-C ,  5-C ) :  -0.2869 
B(  1-C , 18-H ) :   0.5319 B(  2-C ,  3-C ) :   1.2431 B(  2-C ,  4-C ) :   0.2585 
B(  2-C ,  5-C ) :  -0.1449 B(  2-C , 17-H ) :   0.4127 B(  3-C ,  4-C ) :   1.2382 
B(  3-C ,  5-C ) :  -0.2902 B(  3-C , 16-H ) :   0.5299 B(  4-C ,  5-C ) :   0.6425 
B(  4-C ,  6-N ) :  -0.2873 B(  4-C , 11-C ) :  -0.1145 B(  4-C , 15-H ) :   0.5490 
B(  5-C ,  6-N ) :   0.5868 B(  5-C ,  7-C ) :  -0.1230 B(  5-C , 11-C ) :  -0.1222 
B(  6-N ,  7-C ) :   1.1704 B(  6-N , 11-C ) :   1.1700 B(  7-C ,  8-H ) :   0.9235 
B(  7-C ,  9-H ) :   0.9147 B(  7-C , 10-H ) :   0.9138 B( 11-C , 12-H ) :   0.9228 
B( 11-C , 13-H ) :   0.9137 B( 11-C , 14-H ) :   0.9144 

-------
TIMINGS
-------

Total SCF time: 0 days 0 hours 5 min 32 sec 

Total time                  ....     332.856 sec
Sum of individual times     ....     332.344 sec  ( 99.8%)

SCF preparation             ....       1.214 sec  (  0.4%)
Fock matrix formation       ....     317.677 sec  ( 95.4%)
  Startup                   ....       0.713 sec  (  0.2% of F)
  Split-RI-J                ....      19.449 sec  (  6.1% of F)
  Chain of spheres X        ....     226.140 sec  ( 71.2% of F)
  XC integration            ....      59.895 sec  ( 18.9% of F)
    XC Preparation          ....       0.000 sec  (  0.0% of XC)
    Basis function eval.    ....       9.541 sec  ( 15.9% of XC)
    Density eval.           ....      17.891 sec  ( 29.9% of XC)
    XC-Functional eval.     ....       0.508 sec  (  0.8% of XC)
    XC-Potential eval.      ....      28.172 sec  ( 47.0% of XC)
  CPCM terms                ....       9.242 sec  (  2.9% of F)
Diagonalization             ....       0.000 sec  (  0.0%)
Density matrix formation    ....       1.724 sec  (  0.5%)
Total Energy calculation    ....       0.823 sec  (  0.2%)
Population analysis         ....       0.353 sec  (  0.1%)
Orbital Transformation      ....       0.949 sec  (  0.3%)
Orbital Orthonormalization  ....       0.000 sec  (  0.0%)
DIIS solution               ....       7.742 sec  (  2.3%)
SOSCF solution              ....       1.862 sec  (  0.6%)
Finished LeanSCF after 333.0 sec

Maximum memory used throughout the entire LEANSCF-calculation: 103.2 MB


-------------------------------------------------------------------------------
                          DFT DISPERSION CORRECTION                            
                                                                               
                              DFTD3 V3.1  Rev 1                                
                          USING Becke-Johnson damping                          
-------------------------------------------------------------------------------
The PBE0 functional is recognized
Active option DFTDOPT                   ...         4   

molecular C6(AA) [au] = 3828.268072 


            DFT-D V3
 parameters
 s6 scaling factor         :     1.0000 
 a1 scaling factor         :     0.4145 
 s8 scaling factor         :     1.2177 
 a2 scaling factor         :     4.8593 
 ad hoc parameters k1-k3   :    16.0000     1.3333    -4.0000 

 Edisp/kcal,au: -11.049575168352  -0.017608616995 
 E6   /kcal   :  -7.005980322 
 E8   /kcal   :  -4.043594846 
 % E8         :  36.595025460 

-------------------------   ----------------
Dispersion correction           -0.017608617
-------------------------   ----------------


-------------------------   --------------------
FINAL SINGLE POINT ENERGY      -365.927452431204
-------------------------   --------------------



           ************************************************************
           *        Program running with 4 parallel MPI-processes     *
           *              working on a common directory               *
           ************************************************************

------------------------------------------------------------------------------
                              ORCA PROPERTY CALCULATIONS
------------------------------------------------------------------------------

GBWName                                 ... cs_rporg_066_red_solv_04.gbw
Number of atoms                         ...     20
Number of basis functions               ...    721
Max core memory                         ...   3000 MB

Electric properties:
Dipole moment                           ... YES
Quadrupole moment                       ...  NO
Static polarizability (Dipole/Dipole)   ...  NO
Static polarizability (Dipole/Quad.)    ...  NO
Static polarizability (Quad./Quad.)     ...  NO
Static polarizability (Velocity)        ...  NO

Atomic electric properties:
Dipole moment                           ...  NO
Quadrupole moment                       ...  NO
Static polarizability                   ...  NO

Choice of electric origin               ... Center of mass
Position of electric origin             ...    -0.002524     0.000009    -0.063504

General magnetic properties:
Magnetizability                         ...  NO

EPR properties:
g-Tensor (aka g-matrix)                 ...  NO
Zero-Field splitting spin-orbit         ...  NO
Zero-field splitting spin-spin          ...  NO
Hyperfine couplings                     ...  NO (   0 nuclei)
Quadrupole couplings                    ...  NO (   0 nuclei)
Contact density                         ...  NO (   0 nuclei)

NMR properties:
Chemical shifts                         ...  NO (   0 nuclei)
Spin-rotation constants                 ...  NO (   0 nuclei)
Spin-spin couplings                     ...  NO (   0 nuclei,    0 pairs)

Choice of magnetic origin               ... GIAO
Position of magnetic origin             ...     0.000000     0.000000     0.000000

Properties with geometric perturbations:
SCF Hessian                             ...  NO
IR spectrum                             ...  NO
VCD spectrum                            ...  NO
X-ray spectroscopy properties:
SCF XES/XAS/RIXS spectra                ...  NO


-------------
DIPOLE MOMENT
-------------

Method             : SCF
Type of density    : Electron Density
Multiplicity       :   1
Irrep              :   0
Energy             :  -365.9098438142083296 Eh
Relativity type    : 
Basis              : AO
                                X                 Y                 Z
Electronic contribution:     -5.126948036       0.000174696       0.015606854
Nuclear contribution   :      6.353119330      -0.000129568      -0.019904796
                        -----------------------------------------
Total Dipole Moment    :      1.226171293       0.000045128      -0.004297942
                        -----------------------------------------
Magnitude (a.u.)       :      1.226178826
Magnitude (Debye)      :      3.116698889



--------------------
Rotational spectrum 
--------------------
 
Rotational constants in cm-1:             0.116345             0.041042             0.030696 
Rotational constants in MHz :          3487.926774          1230.417082           920.238252 

Dipole components along the rotational axes: 
x,y,z [a.u.] :    -1.226177     0.000072     0.002199 
x,y,z [Debye]:    -3.116694     0.000182     0.005591 

 

Dipole moment calculation done in   0.1 sec 

Maximum memory used throughout the entire PROP-calculation: 61.0 MB

--------------------------------
SUGGESTED CITATIONS FOR THIS RUN
--------------------------------

Below you find a list of papers that are relevant to this ORCA run
We neither can nor want to force you to cite these papers, but we appreciate if you do
You receive ORCA, which is the product of decades of hard work by many enthusiastic individuals, for free
The only thing we kindly ask in return is that you cite our papers,
We deeply appreciate it, if you show your appreciation for ORCA by not just citing the generic ORCA reference.

Please note that relegating all ORCA citations to the supporting information does *not* help us.
SI sections are not indexed - citations you put there will not count into any citation statistics
But we need these citations in order to attract the funding resources that allow us to do what we are doing

Therefore, if you are a happy ORCA user, please consider citing a few of the papers listed below in the main body of your paper

In addition to the list printed below, the program has created the file cs_rporg_066_red_solv_04.bibtex that contains the list in bibtex format
You can import this file easily into all common literature databanks and citation aid programs


List of essential papers. We consider these as the minimum necessary citations

  1. Neese,F.
     Software update: the ORCA program system, version 5.0
     WIRES Comput. Molec. Sci., 2022 12(1)e1606
     doi.org/10.1002/wcms.1606

List of papers to cite with high priority. The work reported in these papers was absolutely
necessary for this run to complete.
Our perspective: the developers of density functionals and basis sets usually get cited in chemistry papers
Good! But without the algorithms to do something with them, the functionals or basis sets would not do anything.
Hence, in our opinion, the algorithm design and method developments papers are equally worthy of getting cited

  1. Neese,F.
     An improvement of the resolution of the identity approximation for the formation of the Coulomb matrix
     J. Comp. Chem., 2003 24(14)1740-1747
     doi.org/10.1002/jcc.10318
  2. Neese,F.; Wennmohs,F.; Hansen,A.; Becker,U.
     Efficient, approximate and parallel Hartree-Fock and hybrid DFT calculations. A 'chain-of-spheres' algorithm for the Hartree-Fock exchange
     Chem. Phys., 2009 356(1-3)98-109
     doi.org/10.1016/j.chemphys.2008.10.036
  3. Garcia-Rates,M.; Neese,F.
     Effect of the Solute Cavity on the Solvation Energy and its Derivatives within the Framework of the Gaussian Charge Scheme
     J. Comput. Chem., 2020 41 922-939
     doi.org/10.1002/jcc.26139
  4. Helmich-Paris,B.; de Souza,B.; Neese,F.; Izsák,R.
     An improved chain of spheres for exchange algorithm
     J. Chem. Phys., 2021 155 104109
     doi.org/doi: 10.1063/5.0058766.
  5. Neese,F.
     The SHARK Integral Generation and Digestion System
     J. Comp. Chem., 2022  1-16
     doi.org/10.1002/jcc.26942
  6. Grimme,S.; Antony,J.; Ehrlich,S.; Krieg,H.
     A consistent and accurate ab initio parametrization of density functional dispersion correction (DFT-D) for the 94 elements H-Pu
     J. Chem. Phys., 2010 132 154104-XXXX
     doi.org/10.1063/1.3382344
  7. Grimme,S.; Ehrlich,S.; Goerigk,L.
     Effect of the damping function in dispersion corrected density functional theory
     J. Comput. Chem., 2011 32(7)1456-1465
     doi.org/10.1002/jcc.21759

List of suggested additional citations. These are papers that are important in the 'surrounding' of 
of this run, or papers that preceded the highly important papers. If you like your results we are grateful for a citation.

  1. Izsak,R.; Neese,F.
     An overlap fitted chain of spheres exchange method
     J. Chem. Phys., 2011 135 144105
     doi.org/10.1063/1.3646921
  2. Izsak,R.; Hansen,A.; Neese,F.
     The resolution of identity and chain of spheres approximations for the LPNO-CCSD singles Fock term
     Molec. Phys., 2012 110 2413-2417
     doi.org/10.1080/00268976.2012.687466
  3. Neese,F.
     The ORCA program system
     WIRES Comput. Molec. Sci., 2012 2(1)73-78
     doi.org/10.1002/wcms.81
  4. Izsak,R.; Neese,F.; Klopper,W.
     Robust fitting techniques in the chain of spheres approximation to the Fock exchange: The role of the complementary space
     J. Chem. Phys., 2013 139 
     doi.org/10.1063/1.4819264
  5. Neese,F.
     Software update: the ORCA program system, version 4.0
     WIRES Comput. Molec. Sci., 2018 8(1)1-6
     doi.org/10.1002/wcms.1327
  6. Neese,F.; Wennmohs,F.; Becker,U.; Riplinger,C.
     The ORCA quantum chemistry program package
     J. Chem. Phys., 2020 152 Art. No. L224108
     doi.org/10.1063/5.0004608

List of optional additional citations

  1. Neese,F.
     Approximate second-order SCF convergence for spin unrestricted wavefunctions
     Chem. Phys. Lett., 2000 325(1-3)93-98
     doi.org/10.1016/s0009-2614(00)00662-x

Timings for individual modules:

Sum of individual times          ...      354.833 sec (=   5.914 min)
Startup calculation              ...       12.957 sec (=   0.216 min)   3.7 %
SCF iterations                   ...      340.046 sec (=   5.667 min)  95.8 %
Property calculations            ...        1.829 sec (=   0.030 min)   0.5 %
                             ****ORCA TERMINATED NORMALLY****
TOTAL RUN TIME: 0 days 0 hours 5 minutes 57 seconds 230 msec
