 vasp.6.4.2 20Jul23 (build Sep 06 2024 14:39:43) complex                        
  
 executed on             LinuxIFC date 2024.10.25  06:43:22
 running   60 mpi-ranks, on    3 nodes
 distrk:  each k-point on   60 cores,    1 groups
 distr:  one band on NCORE=  10 cores,    6 groups


--------------------------------------------------------------------------------------------------------


 INCAR:
   SYSTEM = 008_red
   ISTART = 1
   ICHARG = 2
   INIWAV = 1
   METAGGA = R2SCAN
   LASPH = .TRUE.
   NELM = 100
   ALGO = fast   	
   ISPIN = 2
   EDIFF = 1E-05
   ISMEAR = 0
   SIGMA = 0.05
   PREC = accurate
   ENCUT = 500
   LREAL = auto  	
   LWAVE = .TRUE.
   LCHARG = .FALSE.
   LAECHG = .FALSE.
   LVHAR = .FALSE.
   LVTOT = .FALSE.
   EDIFFG = -0.02
   IBRION = 2
   NSW = 500
   ISIF = 2
   POTIM = 0.5
   IVDW = 12
   VDW_A1 = 0.49484001
   VDW_S8 = 0.78981345
   VDW_A2 = 5.73083694
   LPLANE = .TRUE.
   NCORE = 10
   LSCALU = .FALSE.
   NSIM = 4
   LSOL = .TRUE.
   EB_K = 35.6880
   LAMBDA_D_K = 3.04
   TAU = 0

 POTCAR:    PAW_PBE C 08Apr2002                   
 POTCAR:    PAW_PBE H 15Jun2001                   
 -----------------------------------------------------------------------------
|                                                                             |
|           W    W    AA    RRRRR   N    N  II  N    N   GGGG   !!!           |
|           W    W   A  A   R    R  NN   N  II  NN   N  G    G  !!!           |
|           W    W  A    A  R    R  N N  N  II  N N  N  G       !!!           |
|           W WW W  AAAAAA  RRRRR   N  N N  II  N  N N  G  GGG   !            |
|           WW  WW  A    A  R   R   N   NN  II  N   NN  G    G                |
|           W    W  A    A  R    R  N    N  II  N    N   GGGG   !!!           |
|                                                                             |
|     You use a magnetic or noncollinear calculation, but did not specify     |
|     the initial magnetic moment with the MAGMOM tag. Note that a            |
|     default of 1 will be used for all atoms. This ferromagnetic setup       |
|     may break the symmetry of the crystal, in particular it may rule        |
|     out finding an antiferromagnetic solution. Thence, we recommend         |
|     setting the initial magnetic moment manually or verifying carefully     |
|     that this magnetic setup is desired.                                    |
|                                                                             |
 -----------------------------------------------------------------------------

 POTCAR:    PAW_PBE C 08Apr2002                   
   VRHFIN =C: s2p2                                                                                  
   LEXCH  = PE                                                                                      
   EATOM  =   147.1560 eV,   10.8157 Ry                                                             
                                                                                                    
   TITEL  = PAW_PBE C 08Apr2002                                                                     
   LULTRA =        F    use ultrasoft PP ?                                                          
   IUNSCR =        1    unscreen: 0-lin 1-nonlin 2-no                                               
   RPACOR =    1.200    partial core radius                                                         
   POMASS =   12.011; ZVAL   =    4.000    mass and valenz                                          
   RCORE  =    1.500    outmost cutoff radius                                                       
   RWIGS  =    1.630; RWIGS  =    0.863    wigner-seitz radius (au A)                               
   ENMAX  =  400.000; ENMIN  =  300.000 eV                                                          
   ICORE  =        2    local potential                                                             
   LCOR   =        T    correct aug charges                                                         
   LPAW   =        T    paw PP                                                                      
   EAUG   =  644.873                                                                                
   DEXC   =    0.000                                                                                
   RMAX   =    1.529    core radius for proj-oper                                                   
   RAUG   =    1.300    factor for augmentation sphere                                              
   RDEP   =    1.501    radius for radial grids                                                     
   RDEPT  =    1.300    core radius for aug-charge                                                  
                                                                                                    
   Atomic configuration                                                                             
    4 entries                                                                                       
     n  l   j            E        occ.                                                              
     1  0  0.50      -273.3789   2.0000                                                             
     2  0  0.50       -13.7508   2.0000                                                             
     2  1  0.50        -5.2854   2.0000                                                             
     3  2  1.50        -5.4423   0.0000                                                             
   Description                                                                                      
     l       E           TYP  RCUT    TYP  RCUT                                                     
     0    -13.7508458     23  1.200                                                                 
     0     -8.2022199     23  1.200                                                                 
     1     -5.2854383     23  1.500                                                                 
     1     34.0145650     23  1.500                                                                 
     2     -5.4423304      7  1.500                                                                 
  local pseudopotential read in
  partial core-charges read in
  partial kinetic energy density read in
  atomic valenz-charges read in
  non local Contribution for L=           0  read in
    real space projection operators read in
  non local Contribution for L=           0  read in
    real space projection operators read in
  non local Contribution for L=           1  read in
    real space projection operators read in
  non local Contribution for L=           1  read in
    real space projection operators read in
    PAW grid and wavefunctions read in
 
   number of l-projection  operators is LMAX  =           4
   number of lm-projection operators is LMMAX =           8
 
 POTCAR:    PAW_PBE H 15Jun2001                   
   VRHFIN =H: ultrasoft test                                                                        
   LEXCH  = PE                                                                                      
   EATOM  =    12.4884 eV,    0.9179 Ry                                                             
                                                                                                    
   TITEL  = PAW_PBE H 15Jun2001                                                                     
   LULTRA =        F    use ultrasoft PP ?                                                          
   IUNSCR =        0    unscreen: 0-lin 1-nonlin 2-no                                               
   RPACOR =    0.000    partial core radius                                                         
   POMASS =    1.000; ZVAL   =    1.000    mass and valenz                                          
   RCORE  =    1.100    outmost cutoff radius                                                       
   RWIGS  =    0.700; RWIGS  =    0.370    wigner-seitz radius (au A)                               
   ENMAX  =  250.000; ENMIN  =  200.000 eV                                                          
   RCLOC  =    0.701    cutoff for local pot                                                        
   LCOR   =        T    correct aug charges                                                         
   LPAW   =        T    paw PP                                                                      
   EAUG   =  400.000                                                                                
   RMAX   =    1.123    core radius for proj-oper                                                   
   RAUG   =    1.200    factor for augmentation sphere                                              
   RDEP   =    1.112    radius for radial grids                                                     
   RDEPT  =    0.926    core radius for aug-charge                                                  
                                                                                                    
   Atomic configuration                                                                             
    2 entries                                                                                       
     n  l   j            E        occ.                                                              
     1  0  0.50        -6.4927   1.0000                                                             
     2  1  0.50        -3.4015   0.0000                                                             
   Description                                                                                      
     l       E           TYP  RCUT    TYP  RCUT                                                     
     0     -6.4927494     23  1.100                                                                 
     0      6.8029130     23  1.100                                                                 
     1     -4.0817478     23  1.100                                                                 
  local pseudopotential read in
  atomic valenz-charges read in
  non local Contribution for L=           0  read in
    real space projection operators read in
  non local Contribution for L=           0  read in
    real space projection operators read in
  non local Contribution for L=           1  read in
    real space projection operators read in
    PAW grid and wavefunctions read in
 
   number of l-projection  operators is LMAX  =           3
   number of lm-projection operators is LMMAX =           5
 
 Optimization of the real space projectors (new method)

 maximal supplied QI-value         = 25.13
 optimisation between [QCUT,QGAM] = [ 11.31, 22.87] = [ 35.82,146.48] Ry 
 Optimized for a Real-space Cutoff    1.03 Angstroem

   l    n(q)    QCUT    max X(q) W(low)/X(q) W(high)/X(q)  e(spline) 
   0      7    11.310   115.676    0.20E-03    0.90E-03    0.20E-06
   0      7    11.310    87.132    0.20E-03    0.89E-03    0.19E-06
   1      6    11.310     4.429    0.16E-03    0.28E-03    0.12E-06
   1      6    11.310     2.733    0.12E-03    0.21E-03    0.99E-07
 Optimization of the real space projectors (new method)

 maximal supplied QI-value         = 34.20
 optimisation between [QCUT,QGAM] = [ 11.29, 22.57] = [ 35.68,142.71] Ry 
 Optimized for a Real-space Cutoff    1.20 Angstroem

   l    n(q)    QCUT    max X(q) W(low)/X(q) W(high)/X(q)  e(spline) 
   0      8    11.287    19.460    0.22E-03    0.50E-03    0.19E-06
   0      8    11.287    12.209    0.21E-03    0.48E-03    0.18E-06
   1      8    11.287     4.655    0.21E-03    0.11E-04    0.26E-06
  PAW_PBE C 08Apr2002                   :
 energy of atom  1       EATOM= -147.1560
 kinetic energy error for atom=    0.0076 (will be added to EATOM!!)
  PAW_PBE H 15Jun2001                   :
 energy of atom  2       EATOM=  -12.4884
 kinetic energy error for atom=    0.0020 (will be added to EATOM!!)
 
 
 POSCAR: C H
  positions in direct lattice
  velocities in cartesian coordinates

 METAGGA = R2SCAN                                      LMAXTAU =  6    LMIXTAU =  F

 exchange correlation table for  LEXCH =        8
   RHO(1)=    0.500       N(1)  =     2000
   RHO(2)=  100.500       N(2)  =     4000
 


--------------------------------------------------------------------------------------------------------


 ion  position               nearest neighbor table
   1  0.553  0.500  0.500-  15 1.09   2 1.40   7 1.40
   2  0.535  0.470  0.500-  14 1.09   3 1.40   1 1.40
   3  0.500  0.470  0.500-  13 1.09   2 1.40   4 1.40
   4  0.482  0.500  0.500-   6 1.40   3 1.40   5 1.51
   5  0.444  0.500  0.500-   9 1.10   8 1.10  10 1.10   4 1.51
   6  0.500  0.530  0.500-  12 1.09   7 1.40   4 1.40
   7  0.535  0.530  0.500-  11 1.09   6 1.40   1 1.40
   8  0.434  0.522  0.488-   5 1.10
   9  0.434  0.478  0.488-   5 1.10
  10  0.435  0.500  0.526-   5 1.10
  11  0.548  0.554  0.500-   7 1.09
  12  0.486  0.554  0.499-   6 1.09
  13  0.486  0.446  0.499-   3 1.09
  14  0.548  0.446  0.500-   2 1.09
  15  0.580  0.500  0.500-   1 1.09
 
  LATTYP: Found a simple cubic cell.
 ALAT       =    40.0000000000
  
  Lattice vectors:
  
 A1 = (  40.0000000000,   0.0000000000,   0.0000000000)
 A2 = (   0.0000000000,  40.0000000000,   0.0000000000)
 A3 = (   0.0000000000,   0.0000000000,  40.0000000000)


Analysis of symmetry for initial positions (statically):
=====================================================================
 Subroutine PRICEL returns:
 Original cell was already a primitive cell.
 

 Routine SETGRP: Setting up the symmetry group for a 
 simple cubic supercell.


 Subroutine GETGRP returns: Found  1 space group operations
 (whereof  1 operations were pure point group operations)
 out of a pool of 48 trial point group operations.


The static configuration has the point symmetry C_1 .


Analysis of symmetry for dynamics (positions and initial velocities):
=====================================================================
 Subroutine PRICEL returns:
 Original cell was already a primitive cell.
 

 Routine SETGRP: Setting up the symmetry group for a 
 simple cubic supercell.


 Subroutine GETGRP returns: Found  1 space group operations
 (whereof  1 operations were pure point group operations)
 out of a pool of 48 trial point group operations.


The dynamic configuration has the point symmetry C_1 .


Analysis of constrained symmetry for selective dynamics:
=====================================================================
 Subroutine PRICEL returns:
 Original cell was already a primitive cell.
 

 Routine SETGRP: Setting up the symmetry group for a 
 simple cubic supercell.


 Subroutine GETGRP returns: Found  1 space group operations
 (whereof  1 operations were pure point group operations)
 out of a pool of 48 trial point group operations.


The constrained configuration has the point symmetry C_1 .


Analysis of structural, dynamic, and magnetic symmetry:
=====================================================================
 Subroutine PRICEL returns:
 Original cell was already a primitive cell.
 

 Routine SETGRP: Setting up the symmetry group for a 
 simple cubic supercell.


 Subroutine GETGRP returns: Found  1 space group operations
 (whereof  1 operations were pure point group operations)
 out of a pool of 48 trial point group operations.


The overall configuration has the point symmetry C_1 .


 Subroutine INISYM returns: Found  1 space group operations
 (whereof  1 operations are pure point group operations),
 and found     1 'primitive' translations


----------------------------------------------------------------------------------------

                                     Primitive cell                                     

  volume of cell :   64000.0000

  direct lattice vectors                    reciprocal lattice vectors
    40.000000000  0.000000000  0.000000000     0.025000000  0.000000000  0.000000000
     0.000000000 40.000000000  0.000000000     0.000000000  0.025000000  0.000000000
     0.000000000  0.000000000 40.000000000     0.000000000  0.000000000  0.025000000

  length of vectors
    40.000000000 40.000000000 40.000000000     0.025000000  0.025000000  0.025000000

  position of ions in fractional coordinates (direct lattice)
     0.552530890  0.499997751  0.500158421
     0.534877079  0.469808032  0.499968114
     0.499906353  0.469880650  0.499662441
     0.481851880  0.500002489  0.499606698
     0.444179045  0.500001434  0.500158140
     0.499909385  0.530122033  0.499666884
     0.534879480  0.530190121  0.499972196
     0.433959118  0.522342797  0.487869111
     0.433957129  0.477735774  0.487734974
     0.434789029  0.499922605  0.526054439
     0.548353832  0.553926737  0.499975495
     0.486331106  0.553832750  0.499442011
     0.486325066  0.446171070  0.499436069
     0.548348096  0.446069834  0.499969444
     0.579804511  0.499996923  0.500323563

  ion indices of the primitive-cell ions
   primitive index   ion index
                 1           1
                 2           2
                 3           3
                 4           4
                 5           5
                 6           6
                 7           7
                 8           8
                 9           9
                10          10
                11          11
                12          12
                13          13
                14          14
                15          15

----------------------------------------------------------------------------------------

 
 
 KPOINTS: K-Point Grid                            

Automatic generation of k-mesh.
 Grid dimensions read from file:
 generate k-points for:    1    1    1

 Generating k-lattice:

  Cartesian coordinates                     Fractional coordinates (reciprocal lattice)
     0.025000000  0.000000000  0.000000000     1.000000000  0.000000000  0.000000000
     0.000000000  0.025000000  0.000000000     0.000000000  1.000000000  0.000000000
     0.000000000  0.000000000  0.025000000     0.000000000  0.000000000  1.000000000

  Length of vectors
     0.025000000  0.025000000  0.025000000

  Shift w.r.t. Gamma in fractional coordinates (k-lattice)
     0.000000000  0.000000000  0.000000000

 
 Subroutine IBZKPT returns following result:
 ===========================================
 
 Found      1 irreducible k-points:
 
 Following reciprocal coordinates:
            Coordinates               Weight
  0.000000  0.000000  0.000000      1.000000
 
 Following cartesian coordinates:
            Coordinates               Weight
  0.000000  0.000000  0.000000      1.000000
 


--------------------------------------------------------------------------------------------------------




 Dimension of arrays:
   k-points           NKPTS =      1   k-points in BZ     NKDIM =      1   number of bands    NBANDS=     36
   number of dos      NEDOS =    301   number of ions     NIONS =     15
   non local maximal  LDIM  =      4   non local SUM 2l+1 LMDIM =      8
   total plane-waves  NPLWV = ******
   max r-space proj   IRMAX =   2915   max aug-charges    IRDMAX=   4885
   dimension x,y,z NGX =   294 NGY =  294 NGZ =  294
   dimension x,y,z NGXF=   588 NGYF=  588 NGZF=  588
   support grid    NGXF=   588 NGYF=  588 NGZF=  588
   ions per type =               7   8
   NGX,Y,Z   is equivalent  to a cutoff of  12.22, 12.22, 12.22 a.u.
   NGXF,Y,Z  is equivalent  to a cutoff of  24.44, 24.44, 24.44 a.u.

 SYSTEM =  008_red                                 
 POSCAR =  C H                                     

 Startparameter for this run:
   NWRITE =      2    write-flag & timer
   PREC   = accura    normal or accurate (medium, high low for compatibility)
   ISTART =      1    job   : 0-new  1-cont  2-samecut
   ICHARG =      2    charge: 1-file 2-atom 10-const
   ISPIN  =      2    spin polarized calculation?
   LNONCOLLINEAR =      F non collinear calculations
   LSORBIT =      F    spin-orbit coupling
   INIWAV =      1    electr: 0-lowe 1-rand  2-diag
   LASPH  =      T    aspherical Exc in radial PAW
 Electronic Relaxation 1
   ENCUT  =  500.0 eV  36.75 Ry    6.06 a.u.  72.93 72.93 72.93*2*pi/ulx,y,z
   ENINI  =  500.0     initial cutoff
   ENAUG  =  644.9 eV  augmentation charge cutoff
   NELM   =    100;   NELMIN=  2; NELMDL=  0     # of ELM steps 
   EDIFF  = 0.1E-04   stopping-criterion for ELM
   LREAL  =      T    real-space projection
   NLSPLINE    = F    spline interpolate recip. space projectors
   LCOMPAT=      F    compatible to vasp.4.4
   GGA_COMPAT  = T    GGA compatible to vasp.4.4-vasp.4.6
   LMAXPAW     = -100 max onsite density
   LMAXMIX     =    2 max onsite mixed and CHGCAR
   VOSKOWN=      0    Vosko Wilk Nusair interpolation
   ROPT   =   -0.00025  -0.00025
 Ionic relaxation
   EDIFFG = -.2E-01   stopping-criterion for IOM
   NSW    =    500    number of steps for IOM
   NBLOCK =      1;   KBLOCK =    500    inner block; outer block 
   IBRION =      2    ionic relax: 0-MD 1-quasi-New 2-CG
   NFREE  =      1    steps in history (QN), initial steepest desc. (CG)
   ISIF   =      2    stress and relaxation
   IWAVPR =     11    prediction:  0-non 1-charg 2-wave 3-comb
   ISYM   =      2    0-nonsym 1-usesym 2-fastsym
   LCORR  =      T    Harris-Foulkes like correction to forces

   POTIM  = 0.5000    time-step for ionic-motion
   TEIN   =    0.0    initial temperature
   TEBEG  =    0.0;   TEEND  =   0.0 temperature during run
   SMASS  =  -3.00    Nose mass-parameter (am)
   estimated Nose-frequenzy (Omega)   =  0.10E-29 period in steps = 0.13E+47 mass=  -0.366E-25a.u.
   SCALEE = 1.0000    scale energy and forces
   NPACO  =    256;   APACO  = 10.0  distance and # of slots for P.C.
   PSTRESS=    0.0 pullay stress

  Mass of Ions in am
   POMASS =  12.01  1.00
  Ionic Valenz
   ZVAL   =   4.00  1.00
  Atomic Wigner-Seitz radii
   RWIGS  =  -1.00 -1.00
  virtual crystal weights 
   VCA    =   1.00  1.00
   NELECT =      36.0000    total number of electrons
   NUPDOWN=      -1.0000    fix difference up-down

 DOS related values:
   EMIN   =  10.00;   EMAX   =-10.00  energy-range for DOS
   EFERMI =   0.00;   METHOD = LEGACY      
   ISMEAR =     0;   SIGMA  =   0.05  broadening in eV -4-tet -1-fermi 0-gaus

 Electronic relaxation 2 (details)
   IALGO  =     68    algorithm
   LDIAG  =      T    sub-space diagonalisation (order eigenvalues)
   LSUBROT=      F    optimize rotation matrix (better conditioning)
   TURBO    =      0    0=normal 1=particle mesh
   IRESTART =      0    0=no restart 2=restart with 2 vectors
   NREBOOT  =      0    no. of reboots
   NMIN     =      0    reboot dimension
   EREF     =   0.00    reference energy to select bands
   IMIX   =      4    mixing-type and parameters
     AMIX     =   0.40;   BMIX     =  1.00
     AMIX_MAG =   1.60;   BMIX_MAG =  1.00
     AMIN     =   0.10
     WC   =   100.;   INIMIX=   1;  MIXPRE=   1;  MAXMIX= -45

 Intra band minimization:
   WEIMIN = 0.0010     energy-eigenvalue tresh-hold
   EBREAK =  0.69E-07  absolut break condition
   DEPER  =   0.30     relativ break condition  

   TIME   =   0.40     timestep for ELM

  volume/ion in A,a.u.               =    4266.67     28792.89
  Fermi-wavevector in a.u.,A,eV,Ry     =   0.135140  0.255377  0.248479  0.018263
  Thomas-Fermi vector in A             =   0.783872
 
 Write flags
   LWAVE        =      T    write WAVECAR
   LDOWNSAMPLE  =      F    k-point downsampling of WAVECAR
   LCHARG       =      F    write CHGCAR
   LVTOT        =      F    write LOCPOT, total local potential
   LVHAR        =      F    write LOCPOT, Hartree potential only
   LELF         =      F    write electronic localiz. function (ELF)
   LORBIT       =      0    0 simple, 1 ext, 2 COOP (PROOUT), +10 PAW based schemes


 Dipole corrections
   LMONO  =      F    monopole corrections only (constant potential shift)
   LDIPOL =      F    correct potential (dipole corrections)
   IDIPOL =      0    1-x, 2-y, 3-z, 4-all directions 
   EPSILON=  1.0000000 bulk dielectric constant

 Exchange correlation treatment:
   GGA     =    --    GGA type
   LEXCH   =     8    internal setting for exchange type
   LIBXC   =     F    Libxc                    
   VOSKOWN =     0    Vosko Wilk Nusair interpolation
   LHFCALC =     F    Hartree Fock is set to
   LHFONE  =     F    Hartree Fock one center treatment
   AEXX    =    0.0000 exact exchange contribution

 Linear response parameters
   LEPSILON=     F    determine dielectric tensor
   LRPA    =     F    only Hartree local field effects (RPA)
   LNABLA  =     F    use nabla operator in PAW spheres
   LVEL    =     F    velocity operator in full k-point grid
   CSHIFT  =0.1000    complex shift for real part using Kramers Kronig
   OMEGAMAX=  -1.0    maximum frequency
   DEG_THRESHOLD= 0.2000000E-02 threshold for treating states as degnerate
   RTIME   =   -0.100 relaxation time in fs
  (WPLASMAI=    0.000 imaginary part of plasma frequency in eV, 0.658/RTIME)
   DFIELD  = 0.0000000 0.0000000 0.0000000 field for delta impulse in time
 
  Optional k-point grid parameters
   LKPOINTS_OPT  =     F    use optional k-point grid
   KPOINTS_OPT_MODE=     1    mode for optional k-point grid
 
 Orbital magnetization related:
   ORBITALMAG=     F  switch on orbital magnetization
   LCHIMAG   =     F  perturbation theory with respect to B field
   DQ        =  0.001000  dq finite difference perturbation B field
   LLRAUG    =     F  two centre corrections for induced B field
   LBONE     =     F  B-component reconstruction in AE one-centre
   LVGVCALC  =     T  calculate vGv susceptibility
   LVGVAPPL  =     F  apply vGv susceptibility instead of pGv for G=0

 Random number generation:
   RANDOM_GENERATOR = DEFAULT
   PCG_SEED         = not used
 Solvation model:
   LSOL    =     T         switch on solvation model
   EB_K    = 35.688000     relative permittivity of the bulk solvent
   SIGMA_K =  0.600000     width of the dielectric cavity
   NC_K    =  0.002500     cutoff charge density
   TAU     =  0.000000     cavity surface tension
   LAMBDA_D_K    =  3.040000     Debye length in Angstroms
   LRHOB     =     F     write boundcharge  density
   LRHOION     =     F     write ioniccharge density



--------------------------------------------------------------------------------------------------------


 conjugate gradient relaxation of ions
   using selective dynamics as specified on POSCAR
 charge density and potential will be updated during run
 spin polarized calculation
 RMM-DIIS sequential band-by-band and
  variant of blocked Davidson during initial phase
 perform sub-space diagonalisation
    before iterative eigenvector-optimisation
 modified Broyden-mixing scheme, WC =      100.0
 initial mixing is a Kerker type mixing with AMIX =  0.4000 and BMIX =      1.0000
 Hartree-type preconditioning will be used
 using additional bands           18
 real space projection scheme for non local part
 use partial core corrections
 calculate Harris-corrections to forces 
   (improved forces if not selfconsistent)
 use gradient corrections 
 use of overlap-Matrix (Vanderbilt PP)
 Gauss-broadening in eV      SIGMA  =   0.05


--------------------------------------------------------------------------------------------------------


  energy-cutoff  :      500.00
  volume of cell :    64000.00
      direct lattice vectors                 reciprocal lattice vectors
    40.000000000  0.000000000  0.000000000     0.025000000  0.000000000  0.000000000
     0.000000000 40.000000000  0.000000000     0.000000000  0.025000000  0.000000000
     0.000000000  0.000000000 40.000000000     0.000000000  0.000000000  0.025000000

  length of vectors
    40.000000000 40.000000000 40.000000000     0.025000000  0.025000000  0.025000000


 
 old parameters found on file WAVECAR:
  energy-cutoff  :      500.00
  volume of cell :    64000.00
      direct lattice vectors                 reciprocal lattice vectors
    40.000000000  0.000000000  0.000000000     0.025000000  0.000000000  0.000000000
     0.000000000 40.000000000  0.000000000     0.000000000  0.025000000  0.000000000
     0.000000000  0.000000000 40.000000000     0.000000000  0.000000000  0.025000000

  length of vectors

 
 k-points in units of 2pi/SCALE and weight: K-Point Grid                            
   0.00000000  0.00000000  0.00000000       1.000
 
 k-points in reciprocal lattice and weights: K-Point Grid                            
   0.00000000  0.00000000  0.00000000       1.000
 
 position of ions in fractional coordinates (direct lattice) 
   0.55253089  0.49999775  0.50015842
   0.53487708  0.46980803  0.49996811
   0.49990635  0.46988065  0.49966244
   0.48185188  0.50000249  0.49960670
   0.44417905  0.50000143  0.50015814
   0.49990939  0.53012203  0.49966688
   0.53487948  0.53019012  0.49997220
   0.43395912  0.52234280  0.48786911
   0.43395713  0.47773577  0.48773497
   0.43478903  0.49992261  0.52605444
   0.54835383  0.55392674  0.49997549
   0.48633111  0.55383275  0.49944201
   0.48632507  0.44617107  0.49943607
   0.54834810  0.44606983  0.49996944
   0.57980451  0.49999692  0.50032356
 
 position of ions in cartesian coordinates  (Angst):
  22.10123562 19.99991005 20.00633682
  21.39508316 18.79232128 19.99872458
  19.99625413 18.79522599 19.98649764
  19.27407521 20.00009957 19.98426791
  17.76716182 20.00005738 20.00632562
  19.99637542 21.20488132 19.98667535
  21.39517918 21.20760482 19.99888786
  17.35836471 20.89371190 19.51476443
  17.35828517 19.10943094 19.50939898
  17.39156116 19.99690421 21.04217756
  21.93415328 22.15706947 19.99901979
  19.45324423 22.15330999 19.97768042
  19.45300265 17.84684279 19.97744277
  21.93392384 17.84279335 19.99877777
  23.19218042 19.99987694 20.01294251
 


--------------------------------------------------------------------------------------------------------


 k-point   1 :   0.0000 0.0000 0.0000  plane waves: 1624525

 maximum and minimum number of plane-waves per node :    162473   162437

 maximum number of plane-waves:   1624525
 maximum index in each direction: 
   IXMAX=   72   IYMAX=   72   IZMAX=   72
   IXMIN=  -72   IYMIN=  -72   IZMIN=  -72


 real space projection operators:
  total allocation   :       1655.39 KBytes
  max/ min on nodes  :        170.29        156.12


 parallel 3D FFT for wavefunctions:
    minimum data exchange during FFTs selected (reduces bandwidth)
 parallel 3D FFT for charge:
    minimum data exchange during FFTs selected (reduces bandwidth)


 total amount of memory used by VASP MPI-rank0   960972. kBytes
=======================================================================

   base      :      30000. kBytes
   nonlr-proj:        927. kBytes
   fftplans  :     192295. kBytes
   grid      :     706540. kBytes
   one-center:         12. kBytes
   wavefun   :      31198. kBytes
 
     INWAV:  cpu time      6.7379: real time      6.7540
 Broyden mixing: mesh for mixing (old mesh)
   NGX =145   NGY =145   NGZ =145
  (NGX  =588   NGY  =588   NGZ  =588)
  gives a total of ****** points

 initial charge density was supplied:
 charge density of overlapping atoms calculated
 number of electron      36.0000000 magnetization      15.0000000
 keeping initial charge density in first step


--------------------------------------------------------------------------------------------------------


 Maximum index for non-local projection operator          296
 Maximum index for augmentation-charges          218 (set IRDMAX)


--------------------------------------------------------------------------------------------------------


 First call to EWALD:  gamma=   0.044
 Maximum number of real-space cells 3x 3x 3
 Maximum number of reciprocal cells 3x 3x 3

    FEWALD:  cpu time      0.0015: real time      0.0015


--------------------------------------- Ionic step        1  -------------------------------------------




--------------------------------------- Iteration      1(   1)  ---------------------------------------


    POTLOK:  cpu time    168.3886: real time    168.7851
    SETDIJ:  cpu time      0.3947: real time      0.3954
     EDDAV:  cpu time     52.4465: real time     52.5602
       DOS:  cpu time      0.0044: real time      0.0044
    CHARGE:  cpu time      6.8703: real time      6.9003
    MIXING:  cpu time      0.1832: real time      0.1846
    --------------------------------------------
      LOOP:  cpu time    228.2876: real time    228.8300

 eigenvalue-minimisations  :   168
 total energy-change (2. order) :-0.9371741E+02  (-0.6417136E+01)
 number of electron      36.0000002 magnetization      14.4220833
 augmentation part        0.8769625 magnetization      14.4427391

 Broyden mixing:
  rms(total) = 0.24198E+01    rms(broyden)= 0.24196E+01
  rms(prec ) = 0.24451E+01
  weight for this iteration     100.00

 Free energy of the ion-electron system (eV)
  ---------------------------------------------------
  alpha Z        PSCENC =         0.09182593
  Ewald energy   TEWEN  =      3088.72454813
  -Hartree energ DENC   =     -3806.27565761
  -exchange      EXHF   =         0.00000000
  -V(xc)+E(xc)   XCENC  =       134.26903975
  PAW double counting   =       753.40537837     -767.91869950
  entropy T*S    EENTRO =        -0.00000000
  eigenvalues    EBANDS =      -619.52712601
  atomic energy  EATOM  =      1129.93039073
  Solvation  Ediel_sol  =        -6.41711212
  ---------------------------------------------------
  free energy    TOTEN  =       -93.71741235 eV

  energy without entropy =      -93.71741235  energy(sigma->0) =      -93.71741235


--------------------------------------------------------------------------------------------------------




--------------------------------------- Iteration      1(   2)  ---------------------------------------


    POTLOK:  cpu time    209.0115: real time    209.5202
    SETDIJ:  cpu time      0.3965: real time      0.3972
    EDDIAG:  cpu time     11.6420: real time     11.6682
  RMM-DIIS:  cpu time     66.9372: real time     67.0787
    ORTHCH:  cpu time      0.1249: real time      0.1254
       DOS:  cpu time      0.0003: real time      0.0003
    CHARGE:  cpu time      9.4375: real time      9.4552
    MIXING:  cpu time      0.1447: real time      0.1445
    --------------------------------------------
      LOOP:  cpu time    297.6946: real time    298.3897

 eigenvalue-minimisations  :   144
 total energy-change (2. order) : 0.7922331E+01  (-0.6104793E+01)
 number of electron      36.0000002 magnetization      13.7986473
 augmentation part        0.8751680 magnetization      13.7706958

 Broyden mixing:
  rms(total) = 0.11570E+01    rms(broyden)= 0.11569E+01
  rms(prec ) = 0.11760E+01
  weight for this iteration     100.00

 eigenvalues of (default mixing * dielectric matrix)
  average eigenvalue GAMMA=   0.9537
  0.9537

 Free energy of the ion-electron system (eV)
  ---------------------------------------------------
  alpha Z        PSCENC =         0.09182593
  Ewald energy   TEWEN  =      3088.72454813
  -Hartree energ DENC   =     -3880.91200480
  -exchange      EXHF   =         0.00000000
  -V(xc)+E(xc)   XCENC  =       144.50448391
  PAW double counting   =      1433.58797650    -1448.90866494
  entropy T*S    EENTRO =        -0.00000000
  eigenvalues    EBANDS =      -540.15492023
  atomic energy  EATOM  =      1129.93039073
  Solvation  Ediel_sol  =       -12.65871693
  ---------------------------------------------------
  free energy    TOTEN  =       -85.79508171 eV

  energy without entropy =      -85.79508171  energy(sigma->0) =      -85.79508171


--------------------------------------------------------------------------------------------------------




--------------------------------------- Iteration      1(   3)  ---------------------------------------


    POTLOK:  cpu time    200.9887: real time    201.3894
    SETDIJ:  cpu time      0.3929: real time      0.3936
    EDDIAG:  cpu time     11.8173: real time     11.8439
  RMM-DIIS:  cpu time     72.2992: real time     72.4532
    ORTHCH:  cpu time      0.1213: real time      0.1217
       DOS:  cpu time      0.0010: real time      0.0010
    CHARGE:  cpu time      9.3511: real time      9.3791
    MIXING:  cpu time      0.1565: real time      0.1561
    --------------------------------------------
      LOOP:  cpu time    295.1279: real time    295.7381

 eigenvalue-minimisations  :   164
 total energy-change (2. order) :-0.1393679E+02  (-0.2525507E+01)
 number of electron      36.0000002 magnetization      13.0204668
 augmentation part        0.8563108 magnetization      12.9773419

 Broyden mixing:
  rms(total) = 0.70392E+00    rms(broyden)= 0.70389E+00
  rms(prec ) = 0.71155E+00
  weight for this iteration     100.00

 eigenvalues of (default mixing * dielectric matrix)
  average eigenvalue GAMMA=   1.1252
  0.7925  1.4580

 Free energy of the ion-electron system (eV)
  ---------------------------------------------------
  alpha Z        PSCENC =         0.09182593
  Ewald energy   TEWEN  =      3088.72454813
  -Hartree energ DENC   =     -3935.98604778
  -exchange      EXHF   =         0.00000000
  -V(xc)+E(xc)   XCENC  =       136.11668231
  PAW double counting   =      2055.40527538    -2071.15285397
  entropy T*S    EENTRO =        -0.00000000
  eigenvalues    EBANDS =      -485.57452859
  atomic energy  EATOM  =      1129.93039073
  Solvation  Ediel_sol  =       -17.28716347
  ---------------------------------------------------
  free energy    TOTEN  =       -99.73187133 eV

  energy without entropy =      -99.73187133  energy(sigma->0) =      -99.73187133


--------------------------------------------------------------------------------------------------------




--------------------------------------- Iteration      1(   4)  ---------------------------------------


    POTLOK:  cpu time    217.5790: real time    217.5990
    SETDIJ:  cpu time      0.3932: real time      0.3937
    EDDIAG:  cpu time     11.8437: real time     11.8701
  RMM-DIIS:  cpu time     80.4036: real time     80.5756
    ORTHCH:  cpu time      0.1227: real time      0.1231
       DOS:  cpu time      0.0009: real time      0.0009
    CHARGE:  cpu time      8.7118: real time      8.7304
    MIXING:  cpu time      0.1634: real time      0.1635
    --------------------------------------------
      LOOP:  cpu time    319.2184: real time    319.4563

 eigenvalue-minimisations  :   192
 total energy-change (2. order) :-0.3905376E+01  (-0.1138337E+01)
 number of electron      36.0000001 magnetization      12.3250204
 augmentation part        0.8342668 magnetization      12.2876141

 Broyden mixing:
  rms(total) = 0.46432E+00    rms(broyden)= 0.46428E+00
  rms(prec ) = 0.46796E+00
  weight for this iteration     100.00

 eigenvalues of (default mixing * dielectric matrix)
  average eigenvalue GAMMA=   1.2020
  1.7935  1.1101  0.7024

 Free energy of the ion-electron system (eV)
  ---------------------------------------------------
  alpha Z        PSCENC =         0.09182593
  Ewald energy   TEWEN  =      3088.72454813
  -Hartree energ DENC   =     -3975.02867868
  -exchange      EXHF   =         0.00000000
  -V(xc)+E(xc)   XCENC  =       135.45028146
  PAW double counting   =      2649.48277969    -2665.26915440
  entropy T*S    EENTRO =        -0.00000000
  eigenvalues    EBANDS =      -447.39637438
  atomic energy  EATOM  =      1129.93039073
  Solvation  Ediel_sol  =       -19.62286550
  ---------------------------------------------------
  free energy    TOTEN  =      -103.63724704 eV

  energy without entropy =     -103.63724704  energy(sigma->0) =     -103.63724704


--------------------------------------------------------------------------------------------------------




--------------------------------------- Iteration      1(   5)  ---------------------------------------


    POTLOK:  cpu time    218.2291: real time    218.5686
    SETDIJ:  cpu time      0.4838: real time      0.4848
    EDDIAG:  cpu time     11.7357: real time     11.7612
  RMM-DIIS:  cpu time     89.3439: real time     89.5306
    ORTHCH:  cpu time      0.1191: real time      0.1195
       DOS:  cpu time      0.0005: real time      0.0005
    CHARGE:  cpu time     10.1250: real time     10.1435
    MIXING:  cpu time      0.1657: real time      0.1657
    --------------------------------------------
      LOOP:  cpu time    330.2029: real time    330.7743

 eigenvalue-minimisations  :   216
 total energy-change (2. order) :-0.1499715E+01  (-0.2491643E+00)
 number of electron      36.0000001 magnetization      11.2417474
 augmentation part        0.8294458 magnetization      11.2110729

 Broyden mixing:
  rms(total) = 0.30498E+00    rms(broyden)= 0.30497E+00
  rms(prec ) = 0.30725E+00
  weight for this iteration     100.00

 eigenvalues of (default mixing * dielectric matrix)
  average eigenvalue GAMMA=   1.3710
  2.3115  1.6464  0.8635  0.6628

 Free energy of the ion-electron system (eV)
  ---------------------------------------------------
  alpha Z        PSCENC =         0.09182593
  Ewald energy   TEWEN  =      3088.72454813
  -Hartree energ DENC   =     -3982.25689801
  -exchange      EXHF   =         0.00000000
  -V(xc)+E(xc)   XCENC  =       134.73450277
  PAW double counting   =      2900.38286410    -2916.05696273
  entropy T*S    EENTRO =        -0.00000000
  eigenvalues    EBANDS =      -443.45585160
  atomic energy  EATOM  =      1129.93039073
  Solvation  Ediel_sol  =       -17.23138111
  ---------------------------------------------------
  free energy    TOTEN  =      -105.13696180 eV

  energy without entropy =     -105.13696180  energy(sigma->0) =     -105.13696180


--------------------------------------------------------------------------------------------------------




--------------------------------------- Iteration      1(   6)  ---------------------------------------


    POTLOK:  cpu time    218.2673: real time    218.3375
    SETDIJ:  cpu time      0.3919: real time      0.3925
    EDDIAG:  cpu time     11.8650: real time     11.8897
  RMM-DIIS:  cpu time     91.6645: real time     91.8613
    ORTHCH:  cpu time      0.1197: real time      0.1201
       DOS:  cpu time      0.0005: real time      0.0005
    CHARGE:  cpu time      9.7430: real time      9.7632
    MIXING:  cpu time      0.1803: real time      0.1806
    --------------------------------------------
      LOOP:  cpu time    332.2323: real time    332.5453

 eigenvalue-minimisations  :   208
 total energy-change (2. order) :-0.1588279E+01  (-0.1319589E+00)
 number of electron      36.0000001 magnetization      10.6861750
 augmentation part        0.8255211 magnetization      10.6622811

 Broyden mixing:
  rms(total) = 0.16229E+00    rms(broyden)= 0.16229E+00
  rms(prec ) = 0.16321E+00
  weight for this iteration     100.00

 eigenvalues of (default mixing * dielectric matrix)
  average eigenvalue GAMMA=   1.4167
  2.8293  1.7060  1.1139  0.7885  0.6457

 Free energy of the ion-electron system (eV)
  ---------------------------------------------------
  alpha Z        PSCENC =         0.09182593
  Ewald energy   TEWEN  =      3088.72454813
  -Hartree energ DENC   =     -3988.31398095
  -exchange      EXHF   =         0.00000000
  -V(xc)+E(xc)   XCENC  =       133.76661903
  PAW double counting   =      3151.39770321    -3166.85632981
  entropy T*S    EENTRO =        -0.00000000
  eigenvalues    EBANDS =      -443.82551478
  atomic energy  EATOM  =      1129.93039073
  Solvation  Ediel_sol  =       -11.64050185
  ---------------------------------------------------
  free energy    TOTEN  =      -106.72524037 eV

  energy without entropy =     -106.72524037  energy(sigma->0) =     -106.72524037


--------------------------------------------------------------------------------------------------------




--------------------------------------- Iteration      1(   7)  ---------------------------------------


    POTLOK:  cpu time    202.4415: real time    202.6167
    SETDIJ:  cpu time      0.3992: real time      0.3999
    EDDIAG:  cpu time     11.6838: real time     11.7092
  RMM-DIIS:  cpu time     90.2277: real time     90.4223
    ORTHCH:  cpu time      0.1210: real time      0.1214
       DOS:  cpu time      0.0002: real time      0.0002
    CHARGE:  cpu time      7.9550: real time      7.9701
    MIXING:  cpu time      0.1796: real time      0.1794
    --------------------------------------------
      LOOP:  cpu time    313.0079: real time    313.4191

 eigenvalue-minimisations  :   216
 total energy-change (2. order) : 0.3763861E+00  (-0.4582681E-01)
 number of electron      36.0000001 magnetization       9.9006675
 augmentation part        0.8211827 magnetization       9.8803918

 Broyden mixing:
  rms(total) = 0.13679E+00    rms(broyden)= 0.13679E+00
  rms(prec ) = 0.13753E+00
  weight for this iteration     100.00

 eigenvalues of (default mixing * dielectric matrix)
  average eigenvalue GAMMA=   1.3314
  2.8751  1.8463  0.9372  0.9372  0.6502  0.7425

 Free energy of the ion-electron system (eV)
  ---------------------------------------------------
  alpha Z        PSCENC =         0.09182593
  Ewald energy   TEWEN  =      3088.72454813
  -Hartree energ DENC   =     -3991.98086780
  -exchange      EXHF   =         0.00000000
  -V(xc)+E(xc)   XCENC  =       134.37329917
  PAW double counting   =      3183.06849308    -3198.51645405
  entropy T*S    EENTRO =        -0.00000000
  eigenvalues    EBANDS =      -443.10319211
  atomic energy  EATOM  =      1129.93039073
  Solvation  Ediel_sol  =        -8.93689731
  ---------------------------------------------------
  free energy    TOTEN  =      -106.34885423 eV

  energy without entropy =     -106.34885423  energy(sigma->0) =     -106.34885423


--------------------------------------------------------------------------------------------------------




--------------------------------------- Iteration      1(   8)  ---------------------------------------


    POTLOK:  cpu time    205.0432: real time    205.1352
    SETDIJ:  cpu time      0.3961: real time      0.3966
    EDDIAG:  cpu time     11.7835: real time     11.8082
  RMM-DIIS:  cpu time     89.1683: real time     89.3606
    ORTHCH:  cpu time      0.1533: real time      0.1540
       DOS:  cpu time      0.0016: real time      0.0016
    CHARGE:  cpu time      9.1281: real time      9.1484
    MIXING:  cpu time      0.1928: real time      0.1931
    --------------------------------------------
      LOOP:  cpu time    315.8668: real time    316.1976

 eigenvalue-minimisations  :   215
 total energy-change (2. order) : 0.1285293E+01  (-0.4322861E-01)
 number of electron      36.0000001 magnetization       7.8544896
 augmentation part        0.8183125 magnetization       7.8374288

 Broyden mixing:
  rms(total) = 0.10539E+00    rms(broyden)= 0.10539E+00
  rms(prec ) = 0.10584E+00
  weight for this iteration     100.00

 eigenvalues of (default mixing * dielectric matrix)
  average eigenvalue GAMMA=   1.7318
  4.5163  2.6889  1.6021  1.1653  0.8039  0.7225  0.6238

 Free energy of the ion-electron system (eV)
  ---------------------------------------------------
  alpha Z        PSCENC =         0.09182593
  Ewald energy   TEWEN  =      3088.72454813
  -Hartree energ DENC   =     -3993.56559932
  -exchange      EXHF   =         0.00000000
  -V(xc)+E(xc)   XCENC  =       135.58350600
  PAW double counting   =      3151.63657692    -3167.06943180
  entropy T*S    EENTRO =        -0.00000000
  eigenvalues    EBANDS =      -445.03012061
  atomic energy  EATOM  =      1129.93039073
  Solvation  Ediel_sol  =        -5.36525722
  ---------------------------------------------------
  free energy    TOTEN  =      -105.06356123 eV

  energy without entropy =     -105.06356123  energy(sigma->0) =     -105.06356123


--------------------------------------------------------------------------------------------------------




--------------------------------------- Iteration      1(   9)  ---------------------------------------


    POTLOK:  cpu time    210.3186: real time    210.3783
    SETDIJ:  cpu time      0.3902: real time      0.3909
    EDDIAG:  cpu time     11.8243: real time     11.8490
  RMM-DIIS:  cpu time     89.9420: real time     90.1333
    ORTHCH:  cpu time      0.1477: real time      0.1482
       DOS:  cpu time      0.0002: real time      0.0002
    CHARGE:  cpu time      8.5505: real time      8.5695
    MIXING:  cpu time      0.2118: real time      0.2122
    --------------------------------------------
      LOOP:  cpu time    321.3853: real time    321.6816

 eigenvalue-minimisations  :   216
 total energy-change (2. order) : 0.1833578E+01  (-0.5046654E-01)
 number of electron      36.0000001 magnetization       7.5056714
 augmentation part        0.8174917 magnetization       7.4926939

 Broyden mixing:
  rms(total) = 0.60986E-01    rms(broyden)= 0.60982E-01
  rms(prec ) = 0.61320E-01
  weight for this iteration     100.00

 eigenvalues of (default mixing * dielectric matrix)
  average eigenvalue GAMMA=   1.7256
  5.4631  2.6728  1.7436  1.0232  0.7913  0.7442  0.7442  0.6224

 Free energy of the ion-electron system (eV)
  ---------------------------------------------------
  alpha Z        PSCENC =         0.09182593
  Ewald energy   TEWEN  =      3088.72454813
  -Hartree energ DENC   =     -3998.48809909
  -exchange      EXHF   =         0.00000000
  -V(xc)+E(xc)   XCENC  =       137.36941945
  PAW double counting   =      3119.41456249    -3134.81344997
  entropy T*S    EENTRO =        -0.00000000
  eigenvalues    EBANDS =      -448.01424393
  atomic energy  EATOM  =      1129.93039073
  Solvation  Ediel_sol  =         2.55506292
  ---------------------------------------------------
  free energy    TOTEN  =      -103.22998335 eV

  energy without entropy =     -103.22998335  energy(sigma->0) =     -103.22998335


--------------------------------------------------------------------------------------------------------




--------------------------------------- Iteration      1(  10)  ---------------------------------------


    POTLOK:  cpu time    185.9682: real time    186.2621
    SETDIJ:  cpu time      0.3912: real time      0.3917
    EDDIAG:  cpu time     11.8532: real time     11.8779
  RMM-DIIS:  cpu time     94.2156: real time     94.4149
    ORTHCH:  cpu time      0.1192: real time      0.1197
       DOS:  cpu time      0.0019: real time      0.0020
    CHARGE:  cpu time      9.1119: real time      9.1318
    MIXING:  cpu time      0.2213: real time      0.2216
    --------------------------------------------
      LOOP:  cpu time    301.8825: real time    302.4218

 eigenvalue-minimisations  :   216
 total energy-change (2. order) : 0.2848834E+00  (-0.1365612E-01)
 number of electron      36.0000001 magnetization       6.7652197
 augmentation part        0.8157720 magnetization       6.7542454

 Broyden mixing:
  rms(total) = 0.47342E-01    rms(broyden)= 0.47340E-01
  rms(prec ) = 0.47589E-01
  weight for this iteration     100.00

 eigenvalues of (default mixing * dielectric matrix)
  average eigenvalue GAMMA=   1.7588
  6.3657  2.5104  1.8155  1.3391  0.9338  0.7429  0.7429  0.6235  0.7553

 Free energy of the ion-electron system (eV)
  ---------------------------------------------------
  alpha Z        PSCENC =         0.09182593
  Ewald energy   TEWEN  =      3088.72454813
  -Hartree energ DENC   =     -3999.86372499
  -exchange      EXHF   =         0.00000000
  -V(xc)+E(xc)   XCENC  =       137.73156448
  PAW double counting   =      3129.40779299    -3144.81756026
  entropy T*S    EENTRO =        -0.00000000
  eigenvalues    EBANDS =      -447.07641798
  atomic energy  EATOM  =      1129.93039073
  Solvation  Ediel_sol  =         2.92648100
  ---------------------------------------------------
  free energy    TOTEN  =      -102.94509998 eV

  energy without entropy =     -102.94509998  energy(sigma->0) =     -102.94509998


--------------------------------------------------------------------------------------------------------




--------------------------------------- Iteration      1(  11)  ---------------------------------------


    POTLOK:  cpu time    190.7472: real time    190.9389
    SETDIJ:  cpu time      0.3923: real time      0.3928
    EDDIAG:  cpu time     11.8221: real time     11.8473
  RMM-DIIS:  cpu time     90.4738: real time     90.6669
    ORTHCH:  cpu time      0.1488: real time      0.1494
       DOS:  cpu time      0.0003: real time      0.0003
    CHARGE:  cpu time      9.6702: real time      9.6917
    MIXING:  cpu time      0.2361: real time      0.2364
    --------------------------------------------
      LOOP:  cpu time    303.4908: real time    303.9237

 eigenvalue-minimisations  :   216
 total energy-change (2. order) : 0.8151102E+00  (-0.9124561E-02)
 number of electron      36.0000001 magnetization       5.7227068
 augmentation part        0.8150756 magnetization       5.7133977

 Broyden mixing:
  rms(total) = 0.35998E-01    rms(broyden)= 0.35996E-01
  rms(prec ) = 0.36108E-01
  weight for this iteration     100.00

 eigenvalues of (default mixing * dielectric matrix)
  average eigenvalue GAMMA=   1.9272
  7.6303  2.5678  2.5678  1.7186  0.9482  0.9482  0.7699  0.7699  0.6276  0.7236

 Free energy of the ion-electron system (eV)
  ---------------------------------------------------
  alpha Z        PSCENC =         0.09182593
  Ewald energy   TEWEN  =      3088.72454813
  -Hartree energ DENC   =     -4000.52245231
  -exchange      EXHF   =         0.00000000
  -V(xc)+E(xc)   XCENC  =       138.55896061
  PAW double counting   =      3135.17977918    -3150.59280429
  entropy T*S    EENTRO =        -0.00000000
  eigenvalues    EBANDS =      -447.09440906
  atomic energy  EATOM  =      1129.93039073
  Solvation  Ediel_sol  =         3.59417134
  ---------------------------------------------------
  free energy    TOTEN  =      -102.12998974 eV

  energy without entropy =     -102.12998974  energy(sigma->0) =     -102.12998974


--------------------------------------------------------------------------------------------------------




--------------------------------------- Iteration      1(  12)  ---------------------------------------


    POTLOK:  cpu time    196.4734: real time    196.7851
    SETDIJ:  cpu time      0.3927: real time      0.3934
    EDDIAG:  cpu time     11.5805: real time     11.6091
  RMM-DIIS:  cpu time     88.7071: real time     88.9004
    ORTHCH:  cpu time      0.1191: real time      0.1195
       DOS:  cpu time      0.0021: real time      0.0021
    CHARGE:  cpu time      9.1933: real time      9.2120
    MIXING:  cpu time      0.2514: real time      0.2504
    --------------------------------------------
      LOOP:  cpu time    306.7195: real time    307.2719

 eigenvalue-minimisations  :   216
 total energy-change (2. order) : 0.1026156E+01  (-0.4063292E-02)
 number of electron      36.0000001 magnetization       5.1888664
 augmentation part        0.8141121 magnetization       5.1810744

 Broyden mixing:
  rms(total) = 0.26733E-01    rms(broyden)= 0.26731E-01
  rms(prec ) = 0.26840E-01
  weight for this iteration     100.00

 eigenvalues of (default mixing * dielectric matrix)
  average eigenvalue GAMMA=   1.9391
  8.2620  3.1595  2.3684  1.7918  1.1671  0.8778  0.8000  0.8000  0.7602  0.6291
  0.7139

 Free energy of the ion-electron system (eV)
  ---------------------------------------------------
  alpha Z        PSCENC =         0.09182593
  Ewald energy   TEWEN  =      3088.72454813
  -Hartree energ DENC   =     -4000.91503633
  -exchange      EXHF   =         0.00000000
  -V(xc)+E(xc)   XCENC  =       139.56856992
  PAW double counting   =      3124.84038570    -3140.26671506
  entropy T*S    EENTRO =        -0.00000000
  eigenvalues    EBANDS =      -447.31558935
  atomic energy  EATOM  =      1129.93039073
  Solvation  Ediel_sol  =         4.23778640
  ---------------------------------------------------
  free energy    TOTEN  =      -101.10383394 eV

  energy without entropy =     -101.10383394  energy(sigma->0) =     -101.10383394


--------------------------------------------------------------------------------------------------------




--------------------------------------- Iteration      1(  13)  ---------------------------------------


    POTLOK:  cpu time    185.9736: real time    186.0876
    SETDIJ:  cpu time      0.3916: real time      0.3922
    EDDIAG:  cpu time     11.7994: real time     11.8246
  RMM-DIIS:  cpu time     89.3264: real time     89.5182
    ORTHCH:  cpu time      0.1178: real time      0.1182
       DOS:  cpu time      0.0032: real time      0.0032
    CHARGE:  cpu time      9.2872: real time      9.3074
    MIXING:  cpu time      0.2598: real time      0.2602
    --------------------------------------------
      LOOP:  cpu time    297.1590: real time    297.5117

 eigenvalue-minimisations  :   216
 total energy-change (2. order) : 0.4135425E+00  ( 0.2516327E-02)
 number of electron      36.0000001 magnetization       4.1352031
 augmentation part        0.8137454 magnetization       4.1281753

 Broyden mixing:
  rms(total) = 0.23591E-01    rms(broyden)= 0.23590E-01
  rms(prec ) = 0.23664E-01
  weight for this iteration     100.00

 eigenvalues of (default mixing * dielectric matrix)
  average eigenvalue GAMMA=   2.0284
  8.8251  3.6525  2.3519  2.3519  1.5960  1.0180  1.0180  0.7297  0.7297  0.6288
  0.7367  0.7025

 Free energy of the ion-electron system (eV)
  ---------------------------------------------------
  alpha Z        PSCENC =         0.09182593
  Ewald energy   TEWEN  =      3088.72454813
  -Hartree energ DENC   =     -4000.54046007
  -exchange      EXHF   =         0.00000000
  -V(xc)+E(xc)   XCENC  =       139.96105798
  PAW double counting   =      3124.25012750    -3139.67336727
  entropy T*S    EENTRO =        -0.00000000
  eigenvalues    EBANDS =      -447.69427156
  atomic energy  EATOM  =      1129.93039073
  Solvation  Ediel_sol  =         4.25985719
  ---------------------------------------------------
  free energy    TOTEN  =      -100.69029145 eV

  energy without entropy =     -100.69029145  energy(sigma->0) =     -100.69029145


--------------------------------------------------------------------------------------------------------




--------------------------------------- Iteration      1(  14)  ---------------------------------------


    POTLOK:  cpu time    193.7961: real time    194.1068
    SETDIJ:  cpu time      0.3945: real time      0.3953
    EDDIAG:  cpu time     11.9147: real time     11.9394
  RMM-DIIS:  cpu time     90.1018: real time     90.2953
    ORTHCH:  cpu time      0.1172: real time      0.1175
       DOS:  cpu time      0.0012: real time      0.0012
    CHARGE:  cpu time      9.4702: real time      9.4911
    MIXING:  cpu time      0.2841: real time      0.2844
    --------------------------------------------
      LOOP:  cpu time    306.0799: real time    306.6311

 eigenvalue-minimisations  :   216
 total energy-change (2. order) : 0.7158082E+00  ( 0.3462792E-02)
 number of electron      36.0000001 magnetization       3.6621247
 augmentation part        0.8134282 magnetization       3.6559209

 Broyden mixing:
  rms(total) = 0.17538E-01    rms(broyden)= 0.17537E-01
  rms(prec ) = 0.17568E-01
  weight for this iteration     100.00

 eigenvalues of (default mixing * dielectric matrix)
  average eigenvalue GAMMA=   2.1187
  9.6657  4.8396  2.6892  2.2898  1.6175  1.1626  0.9913  0.7561  0.7561  0.7934
  0.7127  0.6347  0.6347

 Free energy of the ion-electron system (eV)
  ---------------------------------------------------
  alpha Z        PSCENC =         0.09182593
  Ewald energy   TEWEN  =      3088.72454813
  -Hartree energ DENC   =     -3999.52163428
  -exchange      EXHF   =         0.00000000
  -V(xc)+E(xc)   XCENC  =       140.63111138
  PAW double counting   =      3132.03756459    -3147.44800575
  entropy T*S    EENTRO =        -0.00000000
  eigenvalues    EBANDS =      -448.48199111
  atomic energy  EATOM  =      1129.93039073
  Solvation  Ediel_sol  =         4.06170719
  ---------------------------------------------------
  free energy    TOTEN  =       -99.97448321 eV

  energy without entropy =      -99.97448321  energy(sigma->0) =      -99.97448321


--------------------------------------------------------------------------------------------------------




--------------------------------------- Iteration      1(  15)  ---------------------------------------


    POTLOK:  cpu time    182.8594: real time    183.0785
    SETDIJ:  cpu time      0.3948: real time      0.3956
    EDDIAG:  cpu time     11.7921: real time     11.8184
  RMM-DIIS:  cpu time     91.6328: real time     91.8475
    ORTHCH:  cpu time      0.1193: real time      0.1198
       DOS:  cpu time      0.0013: real time      0.0013
    CHARGE:  cpu time      9.0816: real time      9.1259
    MIXING:  cpu time      0.2940: real time      0.2941
    --------------------------------------------
      LOOP:  cpu time    296.1753: real time    296.6810

 eigenvalue-minimisations  :   216
 total energy-change (2. order) : 0.2311620E+00  (-0.1004859E-02)
 number of electron      36.0000001 magnetization       3.1147946
 augmentation part        0.8131632 magnetization       3.1092262

 Broyden mixing:
  rms(total) = 0.15707E-01    rms(broyden)= 0.15706E-01
  rms(prec ) = 0.15735E-01
  weight for this iteration     100.00

 eigenvalues of (default mixing * dielectric matrix)
  average eigenvalue GAMMA=   2.1110
 10.1445  5.3229  2.6734  2.3231  1.5518  1.3737  1.0094  0.8329  0.8329  0.8034
  0.7004  0.7004  0.6326  0.6522

 Free energy of the ion-electron system (eV)
  ---------------------------------------------------
  alpha Z        PSCENC =         0.09182593
  Ewald energy   TEWEN  =      3088.72454813
  -Hartree energ DENC   =     -3999.17892367
  -exchange      EXHF   =         0.00000000
  -V(xc)+E(xc)   XCENC  =       140.84934619
  PAW double counting   =      3132.75124372    -3148.16075586
  entropy T*S    EENTRO =        -0.00000000
  eigenvalues    EBANDS =      -448.71838777
  atomic energy  EATOM  =      1129.93039073
  Solvation  Ediel_sol  =         3.96739143
  ---------------------------------------------------
  free energy    TOTEN  =       -99.74332117 eV

  energy without entropy =      -99.74332117  energy(sigma->0) =      -99.74332117


--------------------------------------------------------------------------------------------------------




--------------------------------------- Iteration      1(  16)  ---------------------------------------


    POTLOK:  cpu time    182.8555: real time    183.1587
    SETDIJ:  cpu time      0.4102: real time      0.4109
    EDDIAG:  cpu time     11.8435: real time     11.8690
  RMM-DIIS:  cpu time     89.3624: real time     89.5514
    ORTHCH:  cpu time      0.1196: real time      0.1200
       DOS:  cpu time      0.0028: real time      0.0028
    CHARGE:  cpu time      9.1003: real time      9.1204
    MIXING:  cpu time      0.3172: real time      0.3176
    --------------------------------------------
      LOOP:  cpu time    294.0115: real time    294.5509

 eigenvalue-minimisations  :   216
 total energy-change (2. order) : 0.3008920E+00  (-0.2679142E-02)
 number of electron      36.0000001 magnetization       1.9103534
 augmentation part        0.8130195 magnetization       1.9055401

 Broyden mixing:
  rms(total) = 0.13509E-01    rms(broyden)= 0.13508E-01
  rms(prec ) = 0.13528E-01
  weight for this iteration     100.00

 eigenvalues of (default mixing * dielectric matrix)
  average eigenvalue GAMMA=   2.2096
 10.7134  5.9935  3.0519  2.2599  2.2599  1.6060  1.0553  1.0553  0.9553  0.7419
  0.7419  0.7231  0.7231  0.6315  0.6315

 Free energy of the ion-electron system (eV)
  ---------------------------------------------------
  alpha Z        PSCENC =         0.09182593
  Ewald energy   TEWEN  =      3088.72454813
  -Hartree energ DENC   =     -3998.84567542
  -exchange      EXHF   =         0.00000000
  -V(xc)+E(xc)   XCENC  =       141.14087211
  PAW double counting   =      3131.71629038    -3147.12545222
  entropy T*S    EENTRO =        -0.00000000
  eigenvalues    EBANDS =      -448.94855117
  atomic energy  EATOM  =      1129.93039073
  Solvation  Ediel_sol  =         3.87332233
  ---------------------------------------------------
  free energy    TOTEN  =       -99.44242920 eV

  energy without entropy =      -99.44242920  energy(sigma->0) =      -99.44242920


--------------------------------------------------------------------------------------------------------




--------------------------------------- Iteration      1(  17)  ---------------------------------------


    POTLOK:  cpu time    185.7975: real time    185.8362
    SETDIJ:  cpu time      0.4282: real time      0.4285
    EDDIAG:  cpu time     11.6465: real time     11.6759
  RMM-DIIS:  cpu time     89.4160: real time     89.6045
    ORTHCH:  cpu time      0.1179: real time      0.1183
       DOS:  cpu time      0.0004: real time      0.0004
    CHARGE:  cpu time      8.9300: real time      8.9494
    MIXING:  cpu time      0.3318: real time      0.3323
    --------------------------------------------
      LOOP:  cpu time    296.6684: real time    296.9454

 eigenvalue-minimisations  :   216
 total energy-change (2. order) : 0.6395701E+00  ( 0.1060524E-02)
 number of electron      36.0000001 magnetization       1.2699212
 augmentation part        0.8126591 magnetization       1.2655860

 Broyden mixing:
  rms(total) = 0.12125E-01    rms(broyden)= 0.12124E-01
  rms(prec ) = 0.12147E-01
  weight for this iteration     100.00

 eigenvalues of (default mixing * dielectric matrix)
  average eigenvalue GAMMA=   2.2938
 11.5324  6.8846  3.7165  2.6956  2.1969  1.5561  1.2519  1.0597  0.8711  0.8711
  0.6820  0.6820  0.7276  0.7276  0.6256  0.6207

 Free energy of the ion-electron system (eV)
  ---------------------------------------------------
  alpha Z        PSCENC =         0.09182593
  Ewald energy   TEWEN  =      3088.72454813
  -Hartree energ DENC   =     -3998.34324571
  -exchange      EXHF   =         0.00000000
  -V(xc)+E(xc)   XCENC  =       141.77059063
  PAW double counting   =      3134.13299525    -3149.54133214
  entropy T*S    EENTRO =        -0.00000000
  eigenvalues    EBANDS =      -449.19471067
  atomic energy  EATOM  =      1129.93039073
  Solvation  Ediel_sol  =         3.62607873
  ---------------------------------------------------
  free energy    TOTEN  =       -98.80285913 eV

  energy without entropy =      -98.80285913  energy(sigma->0) =      -98.80285913


--------------------------------------------------------------------------------------------------------




--------------------------------------- Iteration      1(  18)  ---------------------------------------


    POTLOK:  cpu time    182.7566: real time    183.0465
    SETDIJ:  cpu time      0.4193: real time      0.4201
    EDDIAG:  cpu time     11.8429: real time     11.8706
  RMM-DIIS:  cpu time     89.4060: real time     89.5997
    ORTHCH:  cpu time      0.1227: real time      0.1230
       DOS:  cpu time      0.0003: real time      0.0003
    CHARGE:  cpu time      9.9141: real time      9.9325
    MIXING:  cpu time      0.3801: real time      0.3803
    --------------------------------------------
      LOOP:  cpu time    294.8419: real time    295.3731

 eigenvalue-minimisations  :   216
 total energy-change (2. order) : 0.2818033E+00  (-0.6340809E-03)
 number of electron      36.0000001 magnetization       0.7044229
 augmentation part        0.8123449 magnetization       0.7003864

 Broyden mixing:
  rms(total) = 0.76579E-02    rms(broyden)= 0.76573E-02
  rms(prec ) = 0.76984E-02
  weight for this iteration     100.00

 eigenvalues of (default mixing * dielectric matrix)
  average eigenvalue GAMMA=   2.4199
 13.1025  7.9111  4.3288  2.6488  2.2571  1.5416  1.5416  1.0308  1.0308  0.8550
  0.8155  0.7301  0.7301  0.7139  0.6794  0.6290  0.5924

 Free energy of the ion-electron system (eV)
  ---------------------------------------------------
  alpha Z        PSCENC =         0.09182593
  Ewald energy   TEWEN  =      3088.72454813
  -Hartree energ DENC   =     -3998.18046410
  -exchange      EXHF   =         0.00000000
  -V(xc)+E(xc)   XCENC  =       142.05000576
  PAW double counting   =      3131.02394947    -3146.43447372
  entropy T*S    EENTRO =        -0.00000000
  eigenvalues    EBANDS =      -449.25593832
  atomic energy  EATOM  =      1129.93039073
  Solvation  Ediel_sol  =         3.52910027
  ---------------------------------------------------
  free energy    TOTEN  =       -98.52105585 eV

  energy without entropy =      -98.52105585  energy(sigma->0) =      -98.52105585


--------------------------------------------------------------------------------------------------------




--------------------------------------- Iteration      1(  19)  ---------------------------------------


    POTLOK:  cpu time    177.5331: real time    177.5655
    SETDIJ:  cpu time      0.4726: real time      0.4736
    EDDIAG:  cpu time     11.8800: real time     11.9061
  RMM-DIIS:  cpu time     94.0637: real time     94.2633
    ORTHCH:  cpu time      0.1243: real time      0.1247
       DOS:  cpu time      0.0026: real time      0.0026
    CHARGE:  cpu time      8.3198: real time      8.3430
    MIXING:  cpu time      0.3498: real time      0.3504
    --------------------------------------------
      LOOP:  cpu time    292.7460: real time    293.0292

 eigenvalue-minimisations  :   216
 total energy-change (2. order) : 0.2129979E+00  ( 0.1068047E-02)
 number of electron      36.0000001 magnetization       0.2896605
 augmentation part        0.8123793 magnetization       0.2856419

 Broyden mixing:
  rms(total) = 0.50178E-02    rms(broyden)= 0.50175E-02
  rms(prec ) = 0.50522E-02
  weight for this iteration     100.00

 eigenvalues of (default mixing * dielectric matrix)
  average eigenvalue GAMMA=   2.7035
 17.2677  8.9011  4.9262  2.4826  2.4826  2.2293  1.5319  1.1945  0.9660  0.9660
  0.8804  0.7042  0.7042  0.7546  0.7546  0.6833  0.6084  0.6248

 Free energy of the ion-electron system (eV)
  ---------------------------------------------------
  alpha Z        PSCENC =         0.09182593
  Ewald energy   TEWEN  =      3088.72454813
  -Hartree energ DENC   =     -3998.00839659
  -exchange      EXHF   =         0.00000000
  -V(xc)+E(xc)   XCENC  =       142.26170822
  PAW double counting   =      3131.59561983    -3147.00439289
  entropy T*S    EENTRO =        -0.00000000
  eigenvalues    EBANDS =      -449.33169839
  atomic energy  EATOM  =      1129.93039073
  Solvation  Ediel_sol  =         3.43233711
  ---------------------------------------------------
  free energy    TOTEN  =       -98.30805794 eV

  energy without entropy =      -98.30805794  energy(sigma->0) =      -98.30805794


--------------------------------------------------------------------------------------------------------




--------------------------------------- Iteration      1(  20)  ---------------------------------------


    POTLOK:  cpu time    180.1336: real time    180.4180
    SETDIJ:  cpu time      0.4340: real time      0.4347
    EDDIAG:  cpu time     11.8504: real time     11.8744
  RMM-DIIS:  cpu time     94.9423: real time     95.1418
    ORTHCH:  cpu time      0.1124: real time      0.1128
       DOS:  cpu time      0.0003: real time      0.0003
    CHARGE:  cpu time      9.3107: real time      9.3302
    MIXING:  cpu time      0.3667: real time      0.3676
    --------------------------------------------
      LOOP:  cpu time    297.1504: real time    297.6798

 eigenvalue-minimisations  :   216
 total energy-change (2. order) : 0.1532406E+00  ( 0.8646032E-03)
 number of electron      36.0000001 magnetization       0.1317034
 augmentation part        0.8124043 magnetization       0.1276612

 Broyden mixing:
  rms(total) = 0.30324E-02    rms(broyden)= 0.30323E-02
  rms(prec ) = 0.30791E-02
  weight for this iteration     100.00

 eigenvalues of (default mixing * dielectric matrix)
  average eigenvalue GAMMA=   2.8486
 20.6176  9.2561  5.1897  2.7578  2.7578  2.0536  1.5428  1.4371  0.9795  0.9795
  0.9108  0.8565  0.7392  0.7392  0.6987  0.6987  0.6707  0.6241  0.6138

 Free energy of the ion-electron system (eV)
  ---------------------------------------------------
  alpha Z        PSCENC =         0.09182593
  Ewald energy   TEWEN  =      3088.72454813
  -Hartree energ DENC   =     -3997.95776592
  -exchange      EXHF   =         0.00000000
  -V(xc)+E(xc)   XCENC  =       142.41644397
  PAW double counting   =      3132.96652622    -3148.37395222
  entropy T*S    EENTRO =        -0.00000000
  eigenvalues    EBANDS =      -449.32579250
  atomic energy  EATOM  =      1129.93039073
  Solvation  Ediel_sol  =         3.37295835
  ---------------------------------------------------
  free energy    TOTEN  =       -98.15481732 eV

  energy without entropy =      -98.15481732  energy(sigma->0) =      -98.15481732


--------------------------------------------------------------------------------------------------------




--------------------------------------- Iteration      1(  21)  ---------------------------------------


    POTLOK:  cpu time    174.6293: real time    174.9089
    SETDIJ:  cpu time      0.4334: real time      0.4342
    EDDIAG:  cpu time     11.8596: real time     11.8839
  RMM-DIIS:  cpu time     89.3816: real time     89.5725
    ORTHCH:  cpu time      0.1565: real time      0.1569
       DOS:  cpu time      0.0003: real time      0.0003
    CHARGE:  cpu time      8.6505: real time      8.6679
    MIXING:  cpu time      0.3702: real time      0.3702
    --------------------------------------------
      LOOP:  cpu time    285.4813: real time    285.9948

 eigenvalue-minimisations  :   216
 total energy-change (2. order) : 0.7501593E-01  (-0.1400413E-02)
 number of electron      36.0000001 magnetization       0.0717610
 augmentation part        0.8122960 magnetization       0.0680410

 Broyden mixing:
  rms(total) = 0.28900E-02    rms(broyden)= 0.28891E-02
  rms(prec ) = 0.29137E-02
  weight for this iteration     100.00

 eigenvalues of (default mixing * dielectric matrix)
  average eigenvalue GAMMA=   2.8949
 22.6608  9.4141  5.3384  2.8601  2.8601  1.9688  1.8677  1.4557  1.0703  1.0703
  1.0197  0.8186  0.7770  0.7770  0.6640  0.6640  0.6987  0.6673  0.6222  0.6222

 Free energy of the ion-electron system (eV)
  ---------------------------------------------------
  alpha Z        PSCENC =         0.09182593
  Ewald energy   TEWEN  =      3088.72454813
  -Hartree energ DENC   =     -3998.06472155
  -exchange      EXHF   =         0.00000000
  -V(xc)+E(xc)   XCENC  =       142.49715560
  PAW double counting   =      3133.40235755    -3148.81122546
  entropy T*S    EENTRO =        -0.00000000
  eigenvalues    EBANDS =      -449.21499777
  atomic energy  EATOM  =      1129.93039073
  Solvation  Ediel_sol  =         3.36486545
  ---------------------------------------------------
  free energy    TOTEN  =       -98.07980139 eV

  energy without entropy =      -98.07980139  energy(sigma->0) =      -98.07980139


--------------------------------------------------------------------------------------------------------




--------------------------------------- Iteration      1(  22)  ---------------------------------------


    POTLOK:  cpu time    166.6175: real time    166.6375
    SETDIJ:  cpu time      0.3924: real time      0.3928
    EDDIAG:  cpu time     11.5551: real time     11.5800
  RMM-DIIS:  cpu time     92.0718: real time     92.2693
    ORTHCH:  cpu time      0.2160: real time      0.2166
       DOS:  cpu time      0.0030: real time      0.0030
    CHARGE:  cpu time      7.8956: real time      7.9131
    MIXING:  cpu time      0.3978: real time      0.3984
    --------------------------------------------
      LOOP:  cpu time    279.1491: real time    279.4108

 eigenvalue-minimisations  :   216
 total energy-change (2. order) : 0.3336144E-01  (-0.1227645E-04)
 number of electron      36.0000001 magnetization       0.0332524
 augmentation part        0.8123216 magnetization       0.0295561

 Broyden mixing:
  rms(total) = 0.18587E-02    rms(broyden)= 0.18585E-02
  rms(prec ) = 0.18788E-02
  weight for this iteration     100.00

 eigenvalues of (default mixing * dielectric matrix)
  average eigenvalue GAMMA=   2.9270
 24.0569  9.5362  5.4854  2.9692  2.9692  2.3029  1.9613  1.4064  1.4064  1.1208
  1.1208  0.8116  0.8116  0.8215  0.6776  0.6776  0.7394  0.7272  0.6441  0.6280
  0.5928

 Free energy of the ion-electron system (eV)
  ---------------------------------------------------
  alpha Z        PSCENC =         0.09182593
  Ewald energy   TEWEN  =      3088.72454813
  -Hartree energ DENC   =     -3998.11287454
  -exchange      EXHF   =         0.00000000
  -V(xc)+E(xc)   XCENC  =       142.53063821
  PAW double counting   =      3133.86663472    -3149.27577919
  entropy T*S    EENTRO =        -0.00000000
  eigenvalues    EBANDS =      -449.18595319
  atomic energy  EATOM  =      1129.93039073
  Solvation  Ediel_sol  =         3.38412926
  ---------------------------------------------------
  free energy    TOTEN  =       -98.04643995 eV

  energy without entropy =      -98.04643995  energy(sigma->0) =      -98.04643995


--------------------------------------------------------------------------------------------------------




--------------------------------------- Iteration      1(  23)  ---------------------------------------


    POTLOK:  cpu time    166.4520: real time    166.5368
    SETDIJ:  cpu time      0.3916: real time      0.3923
    EDDIAG:  cpu time     11.7507: real time     11.7753
  RMM-DIIS:  cpu time     92.1910: real time     92.3868
    ORTHCH:  cpu time      0.1184: real time      0.1189
       DOS:  cpu time      0.0020: real time      0.0020
    CHARGE:  cpu time      9.5115: real time      9.5322
    MIXING:  cpu time      0.4194: real time      0.4202
    --------------------------------------------
      LOOP:  cpu time    280.8367: real time    281.1644

 eigenvalue-minimisations  :   216
 total energy-change (2. order) : 0.2104213E-01  (-0.1423998E-02)
 number of electron      36.0000001 magnetization       0.0141521
 augmentation part        0.8122636 magnetization       0.0108216

 Broyden mixing:
  rms(total) = 0.22799E-02    rms(broyden)= 0.22785E-02
  rms(prec ) = 0.22857E-02
  weight for this iteration     100.00

 eigenvalues of (default mixing * dielectric matrix)
  average eigenvalue GAMMA=   2.9431
 24.8336  9.6082  5.6131  3.7099  3.2972  2.5314  1.9541  1.6128  1.6128  1.0393
  1.0393  0.9262  0.9262  0.7098  0.7098  0.7614  0.7614  0.6947  0.6305  0.6305
  0.5731  0.5731

 Free energy of the ion-electron system (eV)
  ---------------------------------------------------
  alpha Z        PSCENC =         0.09182593
  Ewald energy   TEWEN  =      3088.72454813
  -Hartree energ DENC   =     -3998.17946312
  -exchange      EXHF   =         0.00000000
  -V(xc)+E(xc)   XCENC  =       142.55322270
  PAW double counting   =      3134.92555943    -3150.33479723
  entropy T*S    EENTRO =        -0.00000000
  eigenvalues    EBANDS =      -449.15520989
  atomic energy  EATOM  =      1129.93039073
  Solvation  Ediel_sol  =         3.41852551
  ---------------------------------------------------
  free energy    TOTEN  =       -98.02539782 eV

  energy without entropy =      -98.02539782  energy(sigma->0) =      -98.02539782


--------------------------------------------------------------------------------------------------------




--------------------------------------- Iteration      1(  24)  ---------------------------------------


    POTLOK:  cpu time    163.5647: real time    163.8217
[...]
  free  energy   TOTEN  =       -98.13372386 eV

  energy  without entropy=      -98.13372386  energy(sigma->0) =      -98.13372386
 
 d Force = 0.4044877E-06[ 0.310E-07, 0.778E-06]  d Energy = 0.3963406E-05-0.356E-05
 d Force =-0.6592174E-02[-0.659E-02,-0.659E-02]  d Ewald  =-0.6592174E-02 0.518E-10


--------------------------------------------------------------------------------------------------------


    POTLOK:  cpu time    154.4827: real time    154.7213


--------------------------------------------------------------------------------------------------------




--------------------------------------------------------------------------------------------------------


    WAVPRE:  cpu time      1.0718: real time      1.0933
    FEWALD:  cpu time      0.0014: real time      0.0014

 real space projection operators:
  total allocation   :       1652.91 KBytes
  max/ min on nodes  :        170.25        156.12

    ORTHCH:  cpu time      1.8390: real time      1.8431
     LOOP+:  cpu time    733.8814: real time    735.0513


--------------------------------------- Ionic step       14  -------------------------------------------




--------------------------------------- Iteration     14(   1)  ---------------------------------------


    POTLOK:  cpu time    178.8204: real time    179.0979
    SETDIJ:  cpu time      0.3944: real time      0.3952
     EDDAV:  cpu time     48.3095: real time     48.4142
       DOS:  cpu time      0.0041: real time      0.0041
    CHARGE:  cpu time      7.1914: real time      7.2070
    MIXING:  cpu time      0.1832: real time      0.1829
    --------------------------------------------
      LOOP:  cpu time    234.9031: real time    235.3014

 eigenvalue-minimisations  :   144
 total energy-change (2. order) :-0.3892187E-04  (-0.2497414E-03)
 number of electron      36.0000001 magnetization       0.0000024
 augmentation part        0.8204224 magnetization       0.0000028

 Broyden mixing:
  rms(total) = 0.15300E-02    rms(broyden)= 0.15285E-02
  rms(prec ) = 0.15517E-02
  weight for this iteration     100.00

 Free energy of the ion-electron system (eV)
  ---------------------------------------------------
  alpha Z        PSCENC =         0.09182593
  Ewald energy   TEWEN  =      3105.70025799
  -Hartree energ DENC   =     -4014.24797489
  -exchange      EXHF   =         0.00000000
  -V(xc)+E(xc)   XCENC  =       142.97268813
  PAW double counting   =      3201.41904758    -3216.85648794
  entropy T*S    EENTRO =        -0.00000000
  eigenvalues    EBANDS =      -450.38492795
  atomic energy  EATOM  =      1129.93039073
  Solvation  Ediel_sol  =         3.35203065
  ---------------------------------------------------
  free energy    TOTEN  =       -98.02314977 eV

  energy without entropy =      -98.02314977  energy(sigma->0) =      -98.02314977


--------------------------------------------------------------------------------------------------------




--------------------------------------- Iteration     14(   2)  ---------------------------------------


    POTLOK:  cpu time    159.8268: real time    159.8165
    SETDIJ:  cpu time      0.3939: real time      0.3944
    EDDIAG:  cpu time     12.2255: real time     12.2521
  RMM-DIIS:  cpu time     64.2270: real time     64.3642
    ORTHCH:  cpu time      0.1207: real time      0.1212
       DOS:  cpu time      0.0007: real time      0.0007
    --------------------------------------------
      LOOP:  cpu time    236.7945: real time    236.9490

 eigenvalue-minimisations  :   142
 total energy-change (2. order) :-0.3711496E-05  (-0.4835095E-05)
 number of electron      36.0000001 magnetization       0.0000024
 augmentation part        0.8204224 magnetization       0.0000028

 Free energy of the ion-electron system (eV)
  ---------------------------------------------------
  alpha Z        PSCENC =         0.09182593
  Ewald energy   TEWEN  =      3105.70025799
  -Hartree energ DENC   =     -4014.25722570
  -exchange      EXHF   =         0.00000000
  -V(xc)+E(xc)   XCENC  =       142.97285719
  PAW double counting   =      3201.47187992    -3216.90942154
  entropy T*S    EENTRO =        -0.00000000
  eigenvalues    EBANDS =      -450.37369669
  atomic energy  EATOM  =      1129.93039073
  Solvation  Ediel_sol  =         3.34997870
  ---------------------------------------------------
  free energy    TOTEN  =       -98.02315348 eV

  energy without entropy =      -98.02315348  energy(sigma->0) =      -98.02315348


--------------------------------------------------------------------------------------------------------




 average (electrostatic) potential at core
  the test charge radii are     0.6991  0.5201
  (the norm of the test charge is              1.0000)
       1 -60.7593       2 -60.8102       3 -60.7419       4 -61.0339       5 -60.4237
       6 -60.7420       7 -60.8101       8 -43.9628       9 -43.9631      10 -43.9862
      11 -44.2344      12 -44.2102      13 -44.2105      14 -44.2343      15 -44.2264
 
 
 
 E-fermi :  -5.8898     XC(G=0):  -0.0273     alpha+bet : -0.0144

 Fermi energy:        -5.8898184675

 spin component 1

 k-point     1 :       0.0000    0.0000    0.0000
  band No.  band energies     occupation 
      1     -22.4117      1.00000
      2     -20.0943      1.00000
      3     -19.3612      1.00000
      4     -17.7056      1.00000
      5     -15.5554      1.00000
      6     -14.9757      1.00000
      7     -12.9880      1.00000
      8     -11.6076      1.00000
      9     -11.4132      1.00000
     10     -10.5734      1.00000
     11     -10.4519      1.00000
     12     -10.1914      1.00000
     13      -9.5155      1.00000
     14      -9.0568      1.00000
     15      -8.3689      1.00000
     16      -8.2465      1.00000
     17      -6.4755      1.00000
     18      -6.1944      1.00000
     19      -1.0025      0.00000
     20      -0.9062      0.00000
     21      -0.0330      0.00000
     22       0.0272      0.00000
     23       0.0843      0.00000
     24       0.0851      0.00000
     25       0.0855      0.00000
     26       0.0881      0.00000
     27       0.0888      0.00000
     28       0.1358      0.00000
     29       0.1712      0.00000
     30       0.1739      0.00000
     31       0.1749      0.00000
     32       0.1802      0.00000
     33       0.1806      0.00000
     34       0.1818      0.00000
     35       0.1822      0.00000
     36       0.1828      0.00000
 Fermi energy:        -5.8898184675

 spin component 2

 k-point     1 :       0.0000    0.0000    0.0000
  band No.  band energies     occupation 
      1     -22.4116      1.00000
      2     -20.0943      1.00000
      3     -19.3612      1.00000
      4     -17.7056      1.00000
      5     -15.5554      1.00000
      6     -14.9757      1.00000
      7     -12.9880      1.00000
      8     -11.6076      1.00000
      9     -11.4132      1.00000
     10     -10.5734      1.00000
     11     -10.4519      1.00000
     12     -10.1914      1.00000
     13      -9.5155      1.00000
     14      -9.0568      1.00000
     15      -8.3689      1.00000
     16      -8.2465      1.00000
     17      -6.4755      1.00000
     18      -6.1944      1.00000
     19      -1.0025      0.00000
     20      -0.9062      0.00000
     21      -0.0331      0.00000
     22       0.0272      0.00000
     23       0.0844      0.00000
     24       0.0851      0.00000
     25       0.0856      0.00000
     26       0.0881      0.00000
     27       0.0890      0.00000
     28       0.1359      0.00000
     29       0.1713      0.00000
     30       0.1740      0.00000
     31       0.1750      0.00000
     32       0.1804      0.00000
     33       0.1808      0.00000
     34       0.1823      0.00000
     35       0.1824      0.00000
     36       0.1830      0.00000


--------------------------------------------------------------------------------------------------------


 soft charge-density along one line, spin component           1
         0         1         2         3         4         5         6         7         8         9
 total charge-density along one line
 
 soft charge-density along one line, spin component           2
         0         1         2         3         4         5         6         7         8         9
 total charge-density along one line
 
 pseudopotential strength for first ion, spin component:           1
 10.440  13.882  -0.000  -0.000   0.002   0.000   0.000   0.000
 13.882  18.457  -0.000  -0.000   0.002   0.000   0.000   0.001
 -0.000  -0.000  -4.365  -0.000   0.000   8.464   0.000  -0.000
 -0.000  -0.000  -0.000  -4.300  -0.000   0.000   8.366   0.001
  0.002   0.002   0.000  -0.000  -4.357  -0.000   0.001   8.452
  0.000   0.000   8.464   0.000  -0.000 -18.679  -0.000   0.000
  0.000   0.000   0.000   8.366   0.001  -0.000 -18.548  -0.001
  0.000   0.001  -0.000   0.001   8.452   0.000  -0.001 -18.663
 pseudopotential strength for first ion, spin component:           2
 10.440  13.882  -0.000  -0.000   0.002   0.000   0.000   0.000
 13.882  18.457  -0.000  -0.000   0.002   0.000   0.000   0.001
 -0.000  -0.000  -4.365  -0.000   0.000   8.464   0.000  -0.000
 -0.000  -0.000  -0.000  -4.300  -0.000   0.000   8.366   0.001
  0.002   0.002   0.000  -0.000  -4.357  -0.000   0.001   8.452
  0.000   0.000   8.464   0.000  -0.000 -18.679  -0.000   0.000
  0.000   0.000   0.000   8.366   0.001  -0.000 -18.548  -0.001
  0.000   0.001  -0.000   0.001   8.452   0.000  -0.001 -18.663
 total augmentation occupancy for first ion, spin component:           1
  8.839  -3.990   0.000  -0.005  -0.280   0.000  -0.001  -0.055
 -3.990   1.841  -0.000   0.004   0.182  -0.000   0.001   0.033
  0.000  -0.000   1.890   0.000   0.000   0.185   0.000   0.000
 -0.005   0.004   0.000   1.175   0.004   0.000   0.079   0.001
 -0.280   0.182   0.000   0.004   1.792   0.000   0.001   0.167
  0.000  -0.000   0.185   0.000   0.000   0.019   0.000   0.000
 -0.001   0.001   0.000   0.079   0.001   0.000   0.006   0.000
 -0.055   0.033   0.000   0.001   0.167   0.000   0.000   0.016
 total augmentation occupancy for first ion, spin component:           2
  0.000  -0.000   0.000  -0.000   0.000   0.000  -0.000   0.000
 -0.000   0.000  -0.000   0.000  -0.000  -0.000   0.000  -0.000
  0.000  -0.000  -0.000  -0.000  -0.000  -0.000   0.000  -0.000
 -0.000   0.000  -0.000  -0.000  -0.000  -0.000   0.000  -0.000
  0.000  -0.000  -0.000  -0.000  -0.000  -0.000   0.000  -0.000
  0.000  -0.000  -0.000  -0.000  -0.000  -0.000  -0.000  -0.000
 -0.000   0.000   0.000   0.000   0.000  -0.000   0.000  -0.000
  0.000  -0.000  -0.000  -0.000  -0.000  -0.000  -0.000  -0.000


------------------------ aborting loop because EDIFF is reached ----------------------------------------


    CHARGE:  cpu time      1.9415: real time      1.9458
    FORLOC:  cpu time      0.3223: real time      0.3228
    FORNL :  cpu time      4.5089: real time      4.5185
    STRESS:  cpu time    117.9312: real time    118.1817
    FORCOR:  cpu time     10.0541: real time     10.0754
    FORHAR:  cpu time      1.0778: real time      1.0798
    MIXING:  cpu time      0.1466: real time      0.1469
    OFIELD:  cpu time      0.0000: real time      0.0000

 ---------------------------------------------------------------------------------------------

         DFTD3 V3.0 Rev 1        
 Edisp (eV)   -0.11062

 E6    (eV) :    -0.0868
 E8    (eV) :    -0.0238
 % E8        : 21.55
    FORVDW:  cpu time      0.0055: real time      0.0055

  FORCE on cell =-STRESS in cart. coord.  units (eV):
  Direction    XX          YY          ZZ          XY          YZ          ZX
  --------------------------------------------------------------------------------------
  Alpha Z     0.09183     0.09183     0.09183
  Ewald    1862.21766  1364.45721  -120.97514    -0.00655     0.09416     5.81633
  Hartree  1912.13415  1489.20074   612.94224    -0.01049     0.05585     2.57842
  E(xc)    -129.71523  -129.93024  -131.46070     0.00009     0.00009    -0.00416
  Local   -4097.15221 -3170.22853  -867.89616     0.01822    -0.14630    -7.90389
  n-local   -43.98389   -45.41563   -40.85120    -0.00102    -0.00093    -0.03827
  augment    -2.26429    -2.34474    -1.93242    -0.00001    -0.00002    -0.00386
  Kinetic   498.99274   495.21177   548.10584    -0.00132    -0.00342    -0.41855
  Fock        0.00000     0.00000     0.00000     0.00000     0.00000     0.00000
  vdW        -0.03840    -0.01421    -0.00079    -0.00000    -0.00000     0.00019
  -------------------------------------------------------------------------------------
  Total       0.28236     1.02821    -1.97651    -0.00107    -0.00057     0.02621
  in kB       0.00707     0.02574    -0.04948    -0.00003    -0.00001     0.00066
  external pressure =       -0.01 kB  Pullay stress =        0.00 kB


 VOLUME and BASIS-vectors are now :
 -----------------------------------------------------------------------------
  energy-cutoff  :      500.00
  volume of cell :    64000.00
      direct lattice vectors                 reciprocal lattice vectors
    40.000000000  0.000000000  0.000000000     0.025000000  0.000000000  0.000000000
     0.000000000 40.000000000  0.000000000     0.000000000  0.025000000  0.000000000
     0.000000000  0.000000000 40.000000000     0.000000000  0.000000000  0.025000000

  length of vectors
    40.000000000 40.000000000 40.000000000     0.025000000  0.025000000  0.025000000


 FORCES acting on ions
    electron-ion (+dipol)            ewald-force                    non-local-force                 convergence-correction
 -----------------------------------------------------------------------------------------------
   -.197E+03 0.152E-01 -.183E+01   0.198E+03 -.152E-01 0.187E+01   -.109E+01 0.318E-03 -.591E-01   -.110E-02 0.335E-03 0.117E-02
   -.109E+03 0.162E+03 -.688E+00   0.109E+03 -.162E+03 0.700E+00   -.497E+00 0.770E+00 -.278E-01   -.183E-02 -.808E-02 0.680E-03
   0.514E+02 0.172E+03 0.122E+01   -.515E+02 -.172E+03 -.128E+01   0.538E+00 0.723E+00 0.380E-01   0.545E-02 -.614E-02 0.374E-03
   0.970E+02 -.153E-01 0.322E+01   -.969E+02 0.162E-01 -.338E+01   0.554E+00 -.163E-02 0.973E-01   0.763E-02 0.102E-03 0.103E-03
   0.172E+03 -.673E-02 -.100E+01   -.172E+03 0.970E-02 0.646E+00   0.553E+00 -.198E-02 0.290E+00   -.837E-02 0.367E-03 0.736E-03
   0.514E+02 -.172E+03 0.120E+01   -.515E+02 0.172E+03 -.126E+01   0.537E+00 -.723E+00 0.376E-01   0.545E-02 0.622E-02 0.213E-03
   -.109E+03 -.162E+03 -.714E+00   0.109E+03 0.162E+03 0.726E+00   -.497E+00 -.770E+00 -.277E-01   -.172E-02 0.787E-02 0.586E-03
   0.508E+02 -.503E+02 0.295E+02   -.528E+02 0.548E+02 -.320E+02   0.220E+01 -.470E+01 0.259E+01   -.223E-02 0.131E-02 -.637E-03
   0.508E+02 0.501E+02 0.298E+02   -.528E+02 -.546E+02 -.324E+02   0.220E+01 0.468E+01 0.262E+01   -.227E-02 -.131E-02 -.693E-03
   0.472E+02 0.176E+00 -.616E+02   -.490E+02 -.192E+00 0.669E+02   0.197E+01 0.164E-01 -.536E+01   -.216E-02 0.323E-04 0.157E-02
   -.435E+02 -.720E+02 -.101E+00   0.463E+02 0.770E+02 0.102E+00   -.299E+01 -.525E+01 -.403E-02   -.465E-03 -.979E-03 0.636E-04
   0.332E+02 -.776E+02 0.607E+00   -.360E+02 0.825E+02 -.652E+00   0.295E+01 -.522E+01 0.495E-01   0.142E-02 -.206E-03 0.153E-04
   0.332E+02 0.775E+02 0.615E+00   -.360E+02 -.825E+02 -.660E+00   0.295E+01 0.522E+01 0.500E-01   0.141E-02 0.153E-03 0.401E-04
   -.434E+02 0.720E+02 -.934E-01   0.463E+02 -.770E+02 0.933E-01   -.299E+01 0.525E+01 -.351E-02   -.458E-03 0.944E-03 0.780E-04
   -.838E+02 0.399E-02 -.607E+00   0.895E+02 -.439E-02 0.643E+00   -.604E+01 0.152E-03 -.421E-01   0.220E-02 0.366E-04 0.205E-03
 -----------------------------------------------------------------------------------------------
   -.351E+00 0.183E-02 -.284E+00   0.142E-13 0.591E-13 -.272E-13   0.345E+00 -.243E-02 0.261E+00   0.296E-02 0.655E-03 0.451E-02
 
 
 POSITION                                       TOTAL-FORCE (eV/Angst)
 -----------------------------------------------------------------------------------
     22.09306     19.99991     20.00575        -0.012789      0.000494     -0.000797
     21.38906     18.79845     19.99845        -0.007463     -0.007450     -0.000826
     19.99621     18.80080     19.98654         0.002165     -0.007249      0.000080
     19.27689     20.00011     19.98392         0.010063     -0.001127      0.000326
     17.77330     20.00008     20.00635         0.015355      0.000694     -0.001825
     19.99637     21.19930     19.98670         0.000448      0.008808     -0.000397
     21.38924     21.20147     19.99862        -0.007235      0.006561     -0.000694
     17.36919     20.88862     19.51766         0.002818     -0.004226      0.002591
     17.36912     19.11449     19.51235         0.002984      0.004024      0.002616
     17.40204     19.99692     21.03662         0.003963      0.000064     -0.001799
     21.92575     22.14443     19.99926        -0.002188      0.008049      0.000053
     19.45859     22.14307     19.97794        -0.004767     -0.005073      0.000811
     19.45837     17.85708     19.97769        -0.005375      0.004664      0.000736
     21.92551     17.85545     19.99899        -0.002616     -0.007992     -0.000011
     23.17737     19.99987     20.01309         0.004638     -0.000243     -0.000863
 -----------------------------------------------------------------------------------
    total drift:                               -0.003201      0.000049     -0.018969


--------------------------------------------------------------------------------------------------------



  FREE ENERGIE OF THE ION-ELECTRON SYSTEM (eV)
  ---------------------------------------------------
  free  energy   TOTEN  =       -98.13377201 eV

  energy  without entropy=      -98.13377201  energy(sigma->0) =      -98.13377201
 
 d Force = 0.5054095E-04[ 0.203E-04, 0.808E-04]  d Energy = 0.4814655E-04 0.239E-05
 d Force =-0.2096047E+00[-0.210E+00,-0.210E+00]  d Ewald  =-0.2096047E+00 0.774E-09


--------------------------------------------------------------------------------------------------------


    POTLOK:  cpu time    165.2583: real time    165.5160


--------------------------------------------------------------------------------------------------------


 Conjugate gradient step on ions:
 trial-energy change:   -0.000048  1 .order   -0.000051   -0.000081   -0.000020
  (g-gl).g = 0.218E-03      g.g   = 0.187E-03  gl.gl    = 0.420E-03
 g(Force)  = 0.187E-03   g(Stress)= 0.000E+00 ortho     = 0.110E-05
 gamma     =   0.51999
 trial     =   0.43139
 opt step  =   0.57645  (harmonic =   0.57645) maximal distance =0.00120757
 next E    =   -98.133778   (d E  =  -0.00005)


--------------------------------------------------------------------------------------------------------


  
 reached required accuracy - stopping structural energy minimisation
 writing wavefunctions
     LOOP+:  cpu time    781.3319: real time    783.3341
    4ORBIT:  cpu time      0.0000: real time      0.0000

 total amount of memory used by VASP MPI-rank0   960972. kBytes
=======================================================================

   base      :      30000. kBytes
   nonlr-proj:        927. kBytes
   fftplans  :     192295. kBytes
   grid      :     706540. kBytes
   one-center:         12. kBytes
   wavefun   :      31198. kBytes
 
  
  
 General timing and accounting informations for this job:
 ========================================================
  
                  Total CPU time used (sec):    32795.320
                            User time (sec):    31014.926
                          System time (sec):     1780.395
                         Elapsed time (sec):    32841.344
  
                   Maximum memory used (kb):     2565844.
                   Average memory used (kb):          N/A
  
                          Minor page faults:    156478104
                          Major page faults:           25
                 Voluntary context switches:      1419768
