 vasp.6.4.2 20Jul23 (build Oct 03 2024 14:39:03) complex                        
  
 executed on             LinuxIFC date 2025.08.28  16:54:22
 running   90 mpi-ranks, on    3 nodes
 distrk:  each k-point on   90 cores,    1 groups
 distr:  one band on NCORE=  30 cores,    3 groups


--------------------------------------------------------------------------------------------------------


 INCAR:
   SYSTEM = 103_red
   ISTART = 1
   ICHARG = 2
   INIWAV = 1
   LHFCALC = .TRUE.
   HFSCREEN = 0.2
   NELM = 500
   ALGO = Damped
   ISPIN = 2
   EDIFF = 1E-05
   ISMEAR = 0
   SIGMA = 0.05
   PREC = accurate
   ENCUT = 500
   LREAL = auto  	
   LDIAG = .FALSE.
   LWAVE = .TRUE.
   LCHARG = .FALSE.
   LAECHG = .FALSE.
   LVHAR = .FALSE.
   LVTOT = .FALSE.
   EDIFFG = -0.02
   IBRION = 2
   NSW = 0
   ISIF = 2
   POTIM = 0.5
   IVDW = 12
   VDW_A1 = 0.383
   VDW_S8 = 2.310
   VDW_A2 = 5.685
   LPLANE = .TRUE.
   NCORE = 30
   LSCALU = .FALSE.
   NSIM = 4
   LSOL = .TRUE.
   EB_K = 35.6880
   LAMBDA_D_K = 3.04
   NELECT = 61
   TAU = 0

 POTCAR:    PAW_PBE C 08Apr2002                   
 POTCAR:    PAW_PBE O 08Apr2002                   
 POTCAR:    PAW_PBE H 15Jun2001                   
 -----------------------------------------------------------------------------
|                                                                             |
|           W    W    AA    RRRRR   N    N  II  N    N   GGGG   !!!           |
|           W    W   A  A   R    R  NN   N  II  NN   N  G    G  !!!           |
|           W    W  A    A  R    R  N N  N  II  N N  N  G       !!!           |
|           W WW W  AAAAAA  RRRRR   N  N N  II  N  N N  G  GGG   !            |
|           WW  WW  A    A  R   R   N   NN  II  N   NN  G    G                |
|           W    W  A    A  R    R  N    N  II  N    N   GGGG   !!!           |
|                                                                             |
|     You use a magnetic or noncollinear calculation, but did not specify     |
|     the initial magnetic moment with the MAGMOM tag. Note that a            |
|     default of 1 will be used for all atoms. This ferromagnetic setup       |
|     may break the symmetry of the crystal, in particular it may rule        |
|     out finding an antiferromagnetic solution. Thence, we recommend         |
|     setting the initial magnetic moment manually or verifying carefully     |
|     that this magnetic setup is desired.                                    |
|                                                                             |
 -----------------------------------------------------------------------------

 -----------------------------------------------------------------------------
|                                                                             |
|           W    W    AA    RRRRR   N    N  II  N    N   GGGG   !!!           |
|           W    W   A  A   R    R  NN   N  II  NN   N  G    G  !!!           |
|           W    W  A    A  R    R  N N  N  II  N N  N  G       !!!           |
|           W WW W  AAAAAA  RRRRR   N  N N  II  N  N N  G  GGG   !            |
|           WW  WW  A    A  R   R   N   NN  II  N   NN  G    G                |
|           W    W  A    A  R    R  N    N  II  N    N   GGGG   !!!           |
|                                                                             |
|     For optimal performance we recommend to set                             |
|       NCORE = 2 up to number-of-cores-per-socket                            |
|     NCORE specifies how many cores store one orbital (NPAR=cpu/NCORE).      |
|     This setting can greatly improve the performance of VASP for DFT.       |
|     The default, NCORE=1 might be grossly inefficient on modern             |
|     multi-core architectures or massively parallel machines. Do your        |
|     own testing! More info at https://www.vasp.at/wiki/index.php/NCORE      |
|     Unfortunately you need to use the default for GW and RPA                |
|     calculations (for HF NCORE is supported but not extensively tested      |
|     yet).                                                                   |
|                                                                             |
 -----------------------------------------------------------------------------

 POTCAR:    PAW_PBE C 08Apr2002                   
   SHA256 =  253f7b50bb8d59471dbedb8285d89021f4a42ed1a2c5d38a03a736e69125dd95 C/POTCAR              
   COPYR  = (c) Copyright 08Apr2002 Georg Kresse                                                    
   COPYR  = This file is part of the software VASP. Any use, copying, and all other rights are regul
   COPYR  = If you do not have a valid VASP license, you may not use, copy or distribute this file. 
   VRHFIN =C: s2p2                                                                                  
   LEXCH  = PE                                                                                      
   EATOM  =   147.1560 eV,   10.8157 Ry                                                             
                                                                                                    
   TITEL  = PAW_PBE C 08Apr2002                                                                     
   LULTRA =        F    use ultrasoft PP ?                                                          
   IUNSCR =        1    unscreen: 0-lin 1-nonlin 2-no                                               
   RPACOR =    1.200    partial core radius                                                         
   POMASS =   12.011; ZVAL   =    4.000    mass and valenz                                          
   RCORE  =    1.500    outmost cutoff radius                                                       
   RWIGS  =    1.630; RWIGS  =    0.863    wigner-seitz radius (au A)                               
   ENMAX  =  400.000; ENMIN  =  300.000 eV                                                          
   ICORE  =        2    local potential                                                             
   LCOR   =        T    correct aug charges                                                         
   LPAW   =        T    paw PP                                                                      
   EAUG   =  644.873                                                                                
   DEXC   =    0.000                                                                                
   RMAX   =    1.529    core radius for proj-oper                                                   
   RAUG   =    1.300    factor for augmentation sphere                                              
   RDEP   =    1.501    radius for radial grids                                                     
   RDEPT  =    1.300    core radius for aug-charge                                                  
                                                                                                    
   Atomic configuration                                                                             
    4 entries                                                                                       
     n  l   j            E        occ.                                                              
     1  0  0.50      -273.3789   2.0000                                                             
     2  0  0.50       -13.7508   2.0000                                                             
     2  1  0.50        -5.2854   2.0000                                                             
     3  2  1.50        -5.4423   0.0000                                                             
   Description                                                                                      
     l       E           TYP  RCUT    TYP  RCUT                                                     
     0    -13.7508458     23  1.200                                                                 
     0     -8.2022199     23  1.200                                                                 
     1     -5.2854383     23  1.500                                                                 
     1     34.0145650     23  1.500                                                                 
     2     -5.4423304      7  1.500                                                                 
  local pseudopotential read in
  partial core-charges read in
  partial kinetic energy density read in
  atomic valenz-charges read in
  non local Contribution for L=           0  read in
    real space projection operators read in
  non local Contribution for L=           0  read in
    real space projection operators read in
  non local Contribution for L=           1  read in
    real space projection operators read in
  non local Contribution for L=           1  read in
    real space projection operators read in
    PAW grid and wavefunctions read in
 
   number of l-projection  operators is LMAX  =           4
   number of lm-projection operators is LMMAX =           8
 
 POTCAR:    PAW_PBE O 08Apr2002                   
   SHA256 =  818f92134a0a090dccd8ba1447fa70422a3b330e708bb4f08108d8ae51209ddf O/POTCAR              
   COPYR  = (c) Copyright 08Apr2002 Georg Kresse                                                    
   COPYR  = This file is part of the software VASP. Any use, copying, and all other rights are regul
   COPYR  = If you do not have a valid VASP license, you may not use, copy or distribute this file. 
   VRHFIN =O: s2p4                                                                                  
   LEXCH  = PE                                                                                      
   EATOM  =   432.3788 eV,   31.7789 Ry                                                             
                                                                                                    
   TITEL  = PAW_PBE O 08Apr2002                                                                     
   LULTRA =        F    use ultrasoft PP ?                                                          
   IUNSCR =        1    unscreen: 0-lin 1-nonlin 2-no                                               
   RPACOR =    1.200    partial core radius                                                         
   POMASS =   16.000; ZVAL   =    6.000    mass and valenz                                          
   RCORE  =    1.520    outmost cutoff radius                                                       
   RWIGS  =    1.550; RWIGS  =    0.820    wigner-seitz radius (au A)                               
   ENMAX  =  400.000; ENMIN  =  300.000 eV                                                          
   ICORE  =        2    local potential                                                             
   LCOR   =        T    correct aug charges                                                         
   LPAW   =        T    paw PP                                                                      
   EAUG   =  605.392                                                                                
   DEXC   =    0.000                                                                                
   RMAX   =    1.553    core radius for proj-oper                                                   
   RAUG   =    1.300    factor for augmentation sphere                                              
   RDEP   =    1.550    radius for radial grids                                                     
   RDEPT  =    1.329    core radius for aug-charge                                                  
                                                                                                    
   Atomic configuration                                                                             
    4 entries                                                                                       
     n  l   j            E        occ.                                                              
     1  0  0.50      -514.6923   2.0000                                                             
     2  0  0.50       -23.9615   2.0000                                                             
     2  1  0.50        -9.0305   4.0000                                                             
     3  2  1.50        -9.5241   0.0000                                                             
   Description                                                                                      
     l       E           TYP  RCUT    TYP  RCUT                                                     
     0    -23.9615318     23  1.200                                                                 
     0     -9.5240782     23  1.200                                                                 
     1     -9.0304911     23  1.520                                                                 
     1      8.1634956     23  1.520                                                                 
     2     -9.5240782      7  1.500                                                                 
  local pseudopotential read in
  partial core-charges read in
  partial kinetic energy density read in
  kinetic energy density of atom read in
  atomic valenz-charges read in
  non local Contribution for L=           0  read in
    real space projection operators read in
  non local Contribution for L=           0  read in
    real space projection operators read in
  non local Contribution for L=           1  read in
    real space projection operators read in
  non local Contribution for L=           1  read in
    real space projection operators read in
    PAW grid and wavefunctions read in
 
   number of l-projection  operators is LMAX  =           4
   number of lm-projection operators is LMMAX =           8
 
 POTCAR:    PAW_PBE H 15Jun2001                   
   SHA256 =  030f79b5d3ab3cf0e668861823c8fb652ff669f3e15e46930bd03bfd63a607b6 H/POTCAR              
   COPYR  = (c) Copyright 15Jun2001 Georg Kresse                                                    
   COPYR  = This file is part of the software VASP. Any use, copying, and all other rights are regul
   COPYR  = If you do not have a valid VASP license, you may not use, copy or distribute this file. 
   VRHFIN =H: ultrasoft test                                                                        
   LEXCH  = PE                                                                                      
   EATOM  =    12.4884 eV,    0.9179 Ry                                                             
                                                                                                    
   TITEL  = PAW_PBE H 15Jun2001                                                                     
   LULTRA =        F    use ultrasoft PP ?                                                          
   IUNSCR =        0    unscreen: 0-lin 1-nonlin 2-no                                               
   RPACOR =    0.000    partial core radius                                                         
   POMASS =    1.000; ZVAL   =    1.000    mass and valenz                                          
   RCORE  =    1.100    outmost cutoff radius                                                       
   RWIGS  =    0.700; RWIGS  =    0.370    wigner-seitz radius (au A)                               
   ENMAX  =  250.000; ENMIN  =  200.000 eV                                                          
   RCLOC  =    0.701    cutoff for local pot                                                        
   LCOR   =        T    correct aug charges                                                         
   LPAW   =        T    paw PP                                                                      
   EAUG   =  400.000                                                                                
   RMAX   =    1.123    core radius for proj-oper                                                   
   RAUG   =    1.200    factor for augmentation sphere                                              
   RDEP   =    1.112    radius for radial grids                                                     
   RDEPT  =    0.926    core radius for aug-charge                                                  
                                                                                                    
   Atomic configuration                                                                             
    2 entries                                                                                       
     n  l   j            E        occ.                                                              
     1  0  0.50        -6.4927   1.0000                                                             
     2  1  0.50        -3.4015   0.0000                                                             
   Description                                                                                      
     l       E           TYP  RCUT    TYP  RCUT                                                     
     0     -6.4927494     23  1.100                                                                 
     0      6.8029130     23  1.100                                                                 
     1     -4.0817478     23  1.100                                                                 
  local pseudopotential read in
  atomic valenz-charges read in
  non local Contribution for L=           0  read in
    real space projection operators read in
  non local Contribution for L=           0  read in
    real space projection operators read in
  non local Contribution for L=           1  read in
    real space projection operators read in
    PAW grid and wavefunctions read in
 
   number of l-projection  operators is LMAX  =           3
   number of lm-projection operators is LMMAX =           5
 
 Optimization of the real space projectors (new method)

 maximal supplied QI-value         = 25.13
 optimisation between [QCUT,QGAM] = [ 11.31, 22.87] = [ 35.82,146.48] Ry 
 Optimized for a Real-space Cutoff    1.03 Angstroem

   l    n(q)    QCUT    max X(q) W(low)/X(q) W(high)/X(q)  e(spline) 
   0      7    11.310   115.676    0.20E-03    0.90E-03    0.20E-06
   0      7    11.310    87.132    0.20E-03    0.89E-03    0.19E-06
   1      6    11.310     4.429    0.16E-03    0.28E-03    0.12E-06
   1      6    11.310     2.733    0.12E-03    0.21E-03    0.99E-07
 Optimization of the real space projectors (new method)

 maximal supplied QI-value         = 24.76
 optimisation between [QCUT,QGAM] = [ 11.39, 22.77] = [ 36.31,145.25] Ry 
 Optimized for a Real-space Cutoff    1.10 Angstroem

   l    n(q)    QCUT    max X(q) W(low)/X(q) W(high)/X(q)  e(spline) 
   0      7    11.387    20.381    0.22E-03    0.48E-03    0.18E-06
   0      7    11.387    15.268    0.22E-03    0.52E-03    0.19E-06
   1      7    11.387     5.964    0.22E-03    0.73E-03    0.24E-06
   1      7    11.387     5.382    0.19E-03    0.60E-03    0.21E-06
 Optimization of the real space projectors (new method)

 maximal supplied QI-value         = 34.20
 optimisation between [QCUT,QGAM] = [ 11.29, 22.57] = [ 35.68,142.71] Ry 
 Optimized for a Real-space Cutoff    1.20 Angstroem

   l    n(q)    QCUT    max X(q) W(low)/X(q) W(high)/X(q)  e(spline) 
   0      8    11.287    19.460    0.22E-03    0.50E-03    0.19E-06
   0      8    11.287    12.209    0.21E-03    0.48E-03    0.18E-06
   1      8    11.287     4.655    0.21E-03    0.11E-04    0.26E-06
  PAW_PBE C 08Apr2002                   :
 energy of atom  1       EATOM= -147.1560
 kinetic energy error for atom=    0.0076 (will be added to EATOM!!)
  PAW_PBE O 08Apr2002                   :
 energy of atom  2       EATOM= -432.3788
 kinetic energy error for atom=    0.0224 (will be added to EATOM!!)
  PAW_PBE H 15Jun2001                   :
 energy of atom  3       EATOM=  -12.4884
 kinetic energy error for atom=    0.0020 (will be added to EATOM!!)
 
 
 POSCAR: C O H
  positions in direct lattice
  velocities in cartesian coordinates
 exchange correlation table for  LEXCH =        8
   RHO(1)=    0.500       N(1)  =     2000
   RHO(2)=  100.500       N(2)  =     4000
 


--------------------------------------------------------------------------------------------------------


 ion  position               nearest neighbor table
   1  0.493  0.457  0.502-  22 1.09   2 1.38   6 1.44
   2  0.459  0.454  0.500-  21 1.09   1 1.38   3 1.40
   3  0.441  0.484  0.499-  12 1.34   2 1.40   4 1.42
   4  0.457  0.515  0.498-  11 1.35   5 1.37   3 1.42
   5  0.491  0.519  0.500-  18 1.09   4 1.37   6 1.42
   6  0.510  0.489  0.502-   5 1.42   7 1.44   1 1.44
   7  0.546  0.489  0.503-  17 1.09   8 1.37   6 1.44
   8  0.567  0.516  0.502-  16 1.09   7 1.37   9 1.48
   9  0.604  0.514  0.502-  13 1.10  14 1.10  15 1.10   8 1.48
  10  0.401  0.523  0.495-  20 1.10  19 1.10  11 1.44  12 1.45
  11  0.433  0.540  0.496-   4 1.35  10 1.44
  12  0.408  0.487  0.497-   3 1.34  10 1.45
  13  0.613  0.488  0.503-   9 1.10
  14  0.614  0.527  0.480-   9 1.10
  15  0.614  0.528  0.524-   9 1.10
  16  0.556  0.541  0.501-   8 1.09
  17  0.558  0.464  0.504-   7 1.09
  18  0.503  0.544  0.500-   5 1.09
  19  0.389  0.529  0.471-  10 1.10
  20  0.386  0.530  0.516-  10 1.10
  21  0.447  0.429  0.501-   2 1.09
  22  0.509  0.435  0.504-   1 1.09
 
  LATTYP: Found a simple cubic cell.
 ALAT       =    40.0000000000
  
  Lattice vectors:
  
 A1 = (  40.0000000000,   0.0000000000,   0.0000000000)
 A2 = (   0.0000000000,  40.0000000000,   0.0000000000)
 A3 = (   0.0000000000,   0.0000000000,  40.0000000000)


Analysis of symmetry for initial positions (statically):
=====================================================================
 Subroutine PRICEL returns:
 Original cell was already a primitive cell.
 

 Routine SETGRP: Setting up the symmetry group for a 
 simple cubic supercell.


 Subroutine GETGRP returns: Found  1 space group operations
 (whereof  1 operations were pure point group operations)
 out of a pool of 48 trial point group operations.


The static configuration has the point symmetry C_1 .


Analysis of symmetry for dynamics (positions and initial velocities):
=====================================================================
 Subroutine PRICEL returns:
 Original cell was already a primitive cell.
 

 Routine SETGRP: Setting up the symmetry group for a 
 simple cubic supercell.


 Subroutine GETGRP returns: Found  1 space group operations
 (whereof  1 operations were pure point group operations)
 out of a pool of 48 trial point group operations.


The dynamic configuration has the point symmetry C_1 .


Analysis of constrained symmetry for selective dynamics:
=====================================================================
 Subroutine PRICEL returns:
 Original cell was already a primitive cell.
 

 Routine SETGRP: Setting up the symmetry group for a 
 simple cubic supercell.


 Subroutine GETGRP returns: Found  1 space group operations
 (whereof  1 operations were pure point group operations)
 out of a pool of 48 trial point group operations.


The constrained configuration has the point symmetry C_1 .


Analysis of structural, dynamic, and magnetic symmetry:
=====================================================================
 Subroutine PRICEL returns:
 Original cell was already a primitive cell.
 

 Routine SETGRP: Setting up the symmetry group for a 
 simple cubic supercell.


 Subroutine GETGRP returns: Found  1 space group operations
 (whereof  1 operations were pure point group operations)
 out of a pool of 48 trial point group operations.


The overall configuration has the point symmetry C_1 .


 Subroutine INISYM returns: Found  1 space group operations
 (whereof  1 operations are pure point group operations),
 and found     1 'primitive' translations


----------------------------------------------------------------------------------------

                                     Primitive cell                                     

  volume of cell :   64000.0000

  direct lattice vectors                    reciprocal lattice vectors
    40.000000000  0.000000000  0.000000000     0.025000000  0.000000000  0.000000000
     0.000000000 40.000000000  0.000000000     0.000000000  0.025000000  0.000000000
     0.000000000  0.000000000 40.000000000     0.000000000  0.000000000  0.025000000

  length of vectors
    40.000000000 40.000000000 40.000000000     0.025000000  0.025000000  0.025000000

  position of ions in fractional coordinates (direct lattice)
     0.493468403  0.457116479  0.502064713
     0.459072068  0.453700300  0.500459715
     0.441115817  0.483545993  0.498501018
     0.457098392  0.515379270  0.498405190
     0.491175669  0.518977096  0.499988392
     0.510174731  0.489047233  0.501716391
     0.546128125  0.488520194  0.502820801
     0.566769051  0.515754015  0.502089538
     0.603703717  0.513832421  0.502449088
     0.401457278  0.523133153  0.494804997
     0.433484612  0.539564407  0.496493523
     0.407989623  0.487414666  0.496547770
     0.613024261  0.488059896  0.503222826
     0.613968938  0.526599328  0.480244488
     0.613732864  0.527829077  0.524012027
     0.556042382  0.540884958  0.501016147
     0.557649517  0.463756687  0.504011382
     0.502646925  0.543624557  0.499745864
     0.389489230  0.528678059  0.470757103
     0.386184597  0.530345222  0.516387886
     0.446683425  0.429491721  0.500619501
     0.508941375  0.434744267  0.503640641

  ion indices of the primitive-cell ions
   primitive index   ion index
                 1           1
                 2           2
                 3           3
                 4           4
                 5           5
                 6           6
                 7           7
                 8           8
                 9           9
                10          10
                11          11
                12          12
                13          13
                14          14
                15          15
                16          16
                17          17
                18          18
                19          19
                20          20
                21          21
                22          22

----------------------------------------------------------------------------------------

 
 
 KPOINTS: K-Point Grid                            

Automatic generation of k-mesh.
 Grid dimensions read from file:
 generate k-points for:    1    1    1

 Generating k-lattice:

  Cartesian coordinates                     Fractional coordinates (reciprocal lattice)
     0.025000000  0.000000000  0.000000000     1.000000000  0.000000000  0.000000000
     0.000000000  0.025000000  0.000000000     0.000000000  1.000000000  0.000000000
     0.000000000  0.000000000  0.025000000     0.000000000  0.000000000  1.000000000

  Length of vectors
     0.025000000  0.025000000  0.025000000

  Shift w.r.t. Gamma in fractional coordinates (k-lattice)
     0.000000000  0.000000000  0.000000000

 
 Subroutine IBZKPT returns following result:
 ===========================================
 
 Found      1 irreducible k-points:
 
 Following reciprocal coordinates:
            Coordinates               Weight
  0.000000  0.000000  0.000000      1.000000
 
 Following cartesian coordinates:
            Coordinates               Weight
  0.000000  0.000000  0.000000      1.000000
 
 
 Subroutine IBZKPT_HF returns following result:
 ==============================================
 
 Found      1 k-points in 1st BZ
 the following      1 k-points will be used (e.g. in the exchange kernel)
 Following reciprocal coordinates:   # in IRBZ
  0.000000  0.000000  0.000000    1.00000000   1 t-inv F


--------------------------------------------------------------------------------------------------------




 Dimension of arrays:
   k-points           NKPTS =      1   k-points in BZ     NKDIM =      1   number of bands    NBANDS=     54
   number of dos      NEDOS =    301   number of ions     NIONS =     22
   non local maximal  LDIM  =      4   non local SUM 2l+1 LMDIM =      8
   total plane-waves  NPLWV = ******
   max r-space proj   IRMAX =   2915   max aug-charges    IRDMAX=   5350
   dimension x,y,z NGX =   294 NGY =  294 NGZ =  294
   dimension x,y,z NGXF=   588 NGYF=  588 NGZF=  588
   support grid    NGXF=   588 NGYF=  588 NGZF=  588
   ions per type =              10   2  10
   NGX,Y,Z   is equivalent  to a cutoff of  12.22, 12.22, 12.22 a.u.
   NGXF,Y,Z  is equivalent  to a cutoff of  24.44, 24.44, 24.44 a.u.

 SYSTEM =  103_red                                 
 POSCAR =  C O H                                   

 Startparameter for this run:
   NWRITE =      2    write-flag & timer
   PREC   = accura    normal or accurate (medium, high low for compatibility)
   ISTART =      1    job   : 0-new  1-cont  2-samecut
   ICHARG =      2    charge: 1-file 2-atom 10-const
   ISPIN  =      2    spin polarized calculation?
   LNONCOLLINEAR =      F non collinear calculations
   LSORBIT =      F    spin-orbit coupling
   INIWAV =      1    electr: 0-lowe 1-rand  2-diag
   LASPH  =      F    aspherical Exc in radial PAW
 Electronic Relaxation 1
   ENCUT  =  500.0 eV  36.75 Ry    6.06 a.u.  72.93 72.93 72.93*2*pi/ulx,y,z
   ENINI  =  500.0     initial cutoff
   ENAUG  =  644.9 eV  augmentation charge cutoff
   NELM   =    500;   NELMIN=  2; NELMDL=  0     # of ELM steps 
   EDIFF  = 0.1E-04   stopping-criterion for ELM
   LREAL  =      T    real-space projection
   NLSPLINE    = F    spline interpolate recip. space projectors
   LCOMPAT=      F    compatible to vasp.4.4
   GGA_COMPAT  = T    GGA compatible to vasp.4.4-vasp.4.6
   LMAXPAW     = -100 max onsite density
   LMAXMIX     =    2 max onsite mixed and CHGCAR
   VOSKOWN=      0    Vosko Wilk Nusair interpolation
   ROPT   =   -0.00025  -0.00025  -0.00025
 Ionic relaxation
   EDIFFG = -.2E-01   stopping-criterion for IOM
   NSW    =      0    number of steps for IOM
   NBLOCK =      1;   KBLOCK =      1    inner block; outer block 
   IBRION =     -1    ionic relax: 0-MD 1-quasi-New 2-CG
   NFREE  =      1    steps in history (QN), initial steepest desc. (CG)
   ISIF   =      2    stress and relaxation
   IWAVPR =     10    prediction:  0-non 1-charg 2-wave 3-comb
   ISYM   =      3    0-nonsym 1-usesym 2-fastsym
   LCORR  =      T    Harris-Foulkes like correction to forces

   POTIM  = 0.5000    time-step for ionic-motion
   TEIN   =    0.0    initial temperature
   TEBEG  =    0.0;   TEEND  =   0.0 temperature during run
   SMASS  =  -3.00    Nose mass-parameter (am)
   estimated Nose-frequenzy (Omega)   =  0.10E-29 period in steps = 0.13E+47 mass=  -0.366E-25a.u.
   SCALEE = 1.0000    scale energy and forces
   NPACO  =    256;   APACO  = 10.0  distance and # of slots for P.C.
   PSTRESS=    0.0 pullay stress

  Mass of Ions in am
   POMASS =  12.01 16.00  1.00
  Ionic Valenz
   ZVAL   =   4.00  6.00  1.00
  Atomic Wigner-Seitz radii
   RWIGS  =  -1.00 -1.00 -1.00
  virtual crystal weights 
   VCA    =   1.00  1.00  1.00
   NELECT =      61.0000    total number of electrons
   NUPDOWN=      -1.0000    fix difference up-down

 DOS related values:
   EMIN   =  10.00;   EMAX   =-10.00  energy-range for DOS
   EFERMI =   0.00;   METHOD = LEGACY      
   ISMEAR =     0;   SIGMA  =   0.05  broadening in eV -4-tet -1-fermi 0-gaus

 Electronic relaxation 2 (details)
   IALGO  =     53    algorithm
   LDIAG  =      F    sub-space diagonalisation (order eigenvalues)
   LSUBROT=      F    optimize rotation matrix (better conditioning)
   TURBO    =      0    0=normal 1=particle mesh
   IRESTART =      0    0=no restart 2=restart with 2 vectors
   NREBOOT  =      0    no. of reboots
   NMIN     =      0    reboot dimension
   EREF     =   0.00    reference energy to select bands
   IMIX   =      4    mixing-type and parameters
     AMIX     =   0.40;   BMIX     =  1.00
     AMIX_MAG =   1.60;   BMIX_MAG =  1.00
     AMIN     =   0.10
     WC   =   100.;   INIMIX=   1;  MIXPRE=   1;  MAXMIX= -45

 Intra band minimization:
   WEIMIN = 0.0000     energy-eigenvalue tresh-hold
   EBREAK =  0.46E-07  absolut break condition
   DEPER  =   0.30     relativ break condition  

   TIME   =   0.40     timestep for ELM

  volume/ion in A,a.u.               =    2909.09     19631.51
  Fermi-wavevector in a.u.,A,eV,Ry     =   0.161111  0.304455  0.353162  0.025957
  Thomas-Fermi vector in A             =   0.855887
 
 Write flags
   LWAVE        =      T    write WAVECAR
   LDOWNSAMPLE  =      F    k-point downsampling of WAVECAR
   LCHARG       =      F    write CHGCAR
   LVTOT        =      F    write LOCPOT, total local potential
   LVHAR        =      F    write LOCPOT, Hartree potential only
   LELF         =      F    write electronic localiz. function (ELF)
   LORBIT       =      0    0 simple, 1 ext, 2 COOP (PROOUT), +10 PAW based schemes


 Dipole corrections
   LMONO  =      F    monopole corrections only (constant potential shift)
   LDIPOL =      F    correct potential (dipole corrections)
   IDIPOL =      0    1-x, 2-y, 3-z, 4-all directions 
   EPSILON=  1.0000000 bulk dielectric constant

 Exchange correlation treatment:
   GGA     =    --    GGA type
   LEXCH   =     8    internal setting for exchange type
   LIBXC   =     F    Libxc                    
   VOSKOWN =     0    Vosko Wilk Nusair interpolation
   EXXOEP  =     0    0=HF, 1=EXX-LHF (local Hartree Fock) 2=EXX OEP
   LHFCALC =     T    Hartree Fock is set to
   LSYMGRAD=     F    symmetrize gradient (conserves proper symmetry)
   PRECFOCK=normal    Normal, Fast or Accurate (Low or Medium for compatibility)
   LRHFCALC=     F    long range Hartree Fock
   LRSCOR  =     F    long range correlation only (use DFT for short range part)
   LTHOMAS =     F    Thomas Fermi screening in HF
   LMODELHF=     F    short range full HF, long range fraction AEXX
   FOCKCORR=     1    mode to apply convergence corrections
   LFOCKACE=     T    use Adeptively-Compressed-Exchange operator
   ENCUT4O =  -1.0   cutoff for four orbital integrals eV
   LMAXFOCK=     4    L truncation for augmentation on plane wave grid
   LMAXFOCKAE=  -1    L truncation for all-electron charge restoration on plane wave grid
   NMAXFOCKAE=   1    number of basis functions for all-electron charge restoration
   LFOCKAEDFT=     F  apply the AE augmentation even for DFT
   NKREDX  =     1    reduce k-point grid by
   NKREDY  =     1    reduce k-point grid by
   NKREDZ  =     1    reduce k-point grid by
   SHIFTRED=     F    shift reduced grid of Gamma
   HFKIDENT=     F    idential grid for each k-point
   ODDONLY =     F    use only odd q-grid points
   EVENONLY=     F    use only even q-grid points
   HFALPHA =   -1.0000 decay constant for conv. correction
   MCALPHA =    0.0000 extent of test-charge in conv. correction in multipole expansion
   AEXX    =    0.2500 exact exchange contribution
   HFSCREEN=    0.2000 screening length (either q_TF or 0.3 A-1)
   HFSCREENC=   0.2000 screening length for correlation (either q_TF or 0.3 A-1)
   HFRCUT  =    0.0000 spherical cutoff for potential kernel
   ALDAX   =    0.7500 LDA exchange part
   AGGAX   =    0.7500 GGA exchange part
   ALDAC   =    1.0000 LDA correlation
   AGGAC   =    1.0000 GGA correlation
   ENCUTFOCK=  -1.0 apply spherical cutoff to Coloumb kernel
   NBANDSGWLOW=     1    first orbital included in HF term
   NBLOCK_FOCK=    64    blocking factor in FOCK_ACC

 Linear response parameters
   LEPSILON=     F    determine dielectric tensor
   LRPA    =     F    only Hartree local field effects (RPA)
   LNABLA  =     F    use nabla operator in PAW spheres
   LVEL    =     F    velocity operator in full k-point grid
   CSHIFT  =0.1000    complex shift for real part using Kramers Kronig
   OMEGAMAX=  -1.0    maximum frequency
   DEG_THRESHOLD= 0.2000000E-02 threshold for treating states as degnerate
   RTIME   =   -0.100 relaxation time in fs
  (WPLASMAI=    0.000 imaginary part of plasma frequency in eV, 0.658/RTIME)
   DFIELD  = 0.0000000 0.0000000 0.0000000 field for delta impulse in time
 
  Optional k-point grid parameters
   LKPOINTS_OPT  =     F    use optional k-point grid
   KPOINTS_OPT_MODE=     1    mode for optional k-point grid
 
 Orbital magnetization related:
   ORBITALMAG=     F  switch on orbital magnetization
   LCHIMAG   =     F  perturbation theory with respect to B field
   DQ        =  0.001000  dq finite difference perturbation B field
   LLRAUG    =     F  two centre corrections for induced B field
   LBONE     =     F  B-component reconstruction in AE one-centre
   LVGVCALC  =     T  calculate vGv susceptibility
   LVGVAPPL  =     F  apply vGv susceptibility instead of pGv for G=0

 Random number generation:
   RANDOM_GENERATOR = DEFAULT
   PCG_SEED         = not used
 Solvation model:
   LSOL    =     T         switch on solvation model
   EB_K    = 35.688000     relative permittivity of the bulk solvent
   SIGMA_K =  0.600000     width of the dielectric cavity
   NC_K    =  0.002500     cutoff charge density
   TAU     =  0.000000     cavity surface tension
   LAMBDA_D_K    =  3.040000     Debye length in Angstroms
   LRHOB     =     F     write boundcharge  density
   LRHOION     =     F     write ioniccharge density



--------------------------------------------------------------------------------------------------------


 Static calculation
 charge density and potential will be updated during run
 spin polarized calculation
 Conjugate gradient for all bands (Kresse, et al. variant)
 perform Loewdin sub-space diagonalisation
    ordering is kept fixed
    before iterative eigenvector-optimisation
 modified Broyden-mixing scheme, WC =      100.0
 initial mixing is a Kerker type mixing with AMIX =  0.4000 and BMIX =      1.0000
 Hartree-type preconditioning will be used
 using additional bands           23
 real space projection scheme for non local part
 use partial core corrections
 no Harris-corrections to forces 
 use gradient corrections 
 use of overlap-Matrix (Vanderbilt PP)
 Gauss-broadening in eV      SIGMA  =   0.05


--------------------------------------------------------------------------------------------------------


  energy-cutoff  :      500.00
  volume of cell :    64000.00
      direct lattice vectors                 reciprocal lattice vectors
    40.000000000  0.000000000  0.000000000     0.025000000  0.000000000  0.000000000
     0.000000000 40.000000000  0.000000000     0.000000000  0.025000000  0.000000000
     0.000000000  0.000000000 40.000000000     0.000000000  0.000000000  0.025000000

  length of vectors
    40.000000000 40.000000000 40.000000000     0.025000000  0.025000000  0.025000000


 
 old parameters found on file WAVECAR:
  energy-cutoff  :      500.00
  volume of cell :    64000.00
      direct lattice vectors                 reciprocal lattice vectors
    40.000000000  0.000000000  0.000000000     0.025000000  0.000000000  0.000000000
     0.000000000 40.000000000  0.000000000     0.000000000  0.025000000  0.000000000
     0.000000000  0.000000000 40.000000000     0.000000000  0.000000000  0.025000000

  length of vectors

 
 k-points in units of 2pi/SCALE and weight: K-Point Grid                            
   0.00000000  0.00000000  0.00000000       1.000
 
 k-points in reciprocal lattice and weights: K-Point Grid                            
   0.00000000  0.00000000  0.00000000       1.000
 
 position of ions in fractional coordinates (direct lattice) 
   0.49346840  0.45711648  0.50206471
   0.45907207  0.45370030  0.50045971
   0.44111582  0.48354599  0.49850102
   0.45709839  0.51537927  0.49840519
   0.49117567  0.51897710  0.49998839
   0.51017473  0.48904723  0.50171639
   0.54612812  0.48852019  0.50282080
   0.56676905  0.51575401  0.50208954
   0.60370372  0.51383242  0.50244909
   0.40145728  0.52313315  0.49480500
   0.43348461  0.53956441  0.49649352
   0.40798962  0.48741467  0.49654777
   0.61302426  0.48805990  0.50322283
   0.61396894  0.52659933  0.48024449
   0.61373286  0.52782908  0.52401203
   0.55604238  0.54088496  0.50101615
   0.55764952  0.46375669  0.50401138
   0.50264692  0.54362456  0.49974586
   0.38948923  0.52867806  0.47075710
   0.38618460  0.53034522  0.51638789
   0.44668343  0.42949172  0.50061950
   0.50894138  0.43474427  0.50364064
 
 position of ions in cartesian coordinates  (Angst):
  19.73873611 18.28465916 20.08258851
  18.36288271 18.14801199 20.01838860
  17.64463270 19.34183974 19.94004072
  18.28393569 20.61517082 19.93620760
  19.64702675 20.75908383 19.99953569
  20.40698924 19.56188934 20.06865563
  21.84512499 19.54080774 20.11283205
  22.67076206 20.63016060 20.08358150
  24.14814868 20.55329685 20.09796353
  16.05829111 20.92532613 19.79219990
  17.33938448 21.58257630 19.85974093
  16.31958492 19.49658664 19.86191080
  24.52097043 19.52239583 20.12891303
  24.55875751 21.06397311 19.20977950
  24.54931455 21.11316308 20.96048108
  22.24169528 21.63539831 20.04064588
  22.30598067 18.55026747 20.16045526
  20.10587700 21.74498226 19.98983457
  15.57956921 21.14712237 18.83028412
  15.44738389 21.21380890 20.65551542
  17.86733702 17.17966883 20.02478004
  20.35765502 17.38977070 20.14562563
 


--------------------------------------------------------------------------------------------------------


 k-point   1 :   0.0000 0.0000 0.0000  plane waves: 1624525

 maximum and minimum number of plane-waves per node :     54169    54136

 maximum number of plane-waves:   1624525
 maximum index in each direction: 
   IXMAX=   72   IYMAX=   72   IZMAX=   72
   IXMIN=  -72   IYMIN=  -72   IZMIN=  -72


 real space projection operators:
  total allocation   :       2466.08 KBytes
  max/ min on nodes  :        121.48         59.07


 parallel 3D FFT for wavefunctions:
    minimum data exchange during FFTs selected (reduces bandwidth)
 parallel 3D FFT for charge:
    minimum data exchange during FFTs selected (reduces bandwidth)


 FFT grid for exact exchange (Hartree Fock) 
  NGX =224; NGY =224; NGZ =224

 
 Radii for the augmentation spheres in the non-local exchange
 for species   1 augmentation radius   0.874 (default was   0.699)
       energy cutoff for augmentation   2000.0
 for species   2 augmentation radius   0.902 (default was   0.722)
       energy cutoff for augmentation   2000.0
 for species   3 augmentation radius   0.650 (default was   0.520)
       energy cutoff for augmentation   2000.0

 real space projection operators:
  total allocation   :        562.71 KBytes
  max/ min on nodes  :         23.34         13.92

 Maximum index for augmentation-charges in exchange           74
  SETUP_FOCK is finished

 total amount of memory used by VASP MPI-rank0   537055. kBytes
=======================================================================

   base      :      30000. kBytes
   nonlr-proj:       1447. kBytes
   fftplans  :     129164. kBytes
   grid      :     282813. kBytes
   one-center:          6. kBytes
   HF        :          4. kBytes
   wavefun   :      93621. kBytes
 
     INWAV:  cpu time     12.9606: real time     15.1220
 Broyden mixing: mesh for mixing (old mesh)
   NGX =145   NGY =145   NGZ =145
  (NGX  =588   NGY  =588   NGZ  =588)
  gives a total of ****** points

 initial charge density was supplied:
 charge density of overlapping atoms calculated
 number of electron      62.0000000 magnetization      22.0000000
 charge density for first step will be calculated from the start-wavefunctions


--------------------------------------------------------------------------------------------------------


 Maximum index for non-local projection operator          238
 Maximum index for augmentation-charges          331 (set IRDMAX)


--------------------------------------------------------------------------------------------------------


 initial charge from wavefunction
 First call to EWALD:  gamma=   0.044
 Maximum number of real-space cells 3x 3x 3
 Maximum number of reciprocal cells 3x 3x 3

    FEWALD:  cpu time      0.0013: real time      0.0013


--------------------------------------- Ionic step        1  -------------------------------------------




--------------------------------------- Iteration      1(   1)  ---------------------------------------


    POTLOK:  cpu time    135.2083: real time    137.2254
    SETDIJ:  cpu time      0.0967: real time      0.0973
    TRIAL :  cpu time    134.4687: real time    135.8812
    CORREC:  cpu time      0.0006: real time      0.0006
    CHARGE:  cpu time      1.6305: real time      1.6502
    --------------------------------------------
      LOOP:  cpu time    271.4783: real time    274.9295

 eigenvalue-minimisations  :     0
 total energy-change (2. order) :-0.1573267E+03  (-0.1769108E+00)
 number of electron      60.9999998 magnetization       1.0000000
 augmentation part        2.3984136 magnetization       0.0999205

 Free energy of the ion-electron system (eV)
  ---------------------------------------------------
  alpha Z        PSCENC =         0.26742016
  Ewald energy   TEWEN  =      7134.55132120
  -Hartree energ DENC   =     -8916.01440202
  -exchange      EXHF   =       145.11752143
  -V(xc)+E(xc)   XCENC  =       168.32767183
  PAW double counting   =      5210.15558160    -5217.24617470
  entropy T*S    EENTRO =        -0.00000000
  eigenvalues    EBANDS =      -945.64917799
  atomic energy  EATOM  =      2432.72555871
  ---------------------------------------------------
  free energy    TOTEN  =      -157.32671967 eV

  energy without entropy =     -157.32671967  energy(sigma->0) =     -157.32671967
  exchange ACFDT corr.  =        -0.00000000  see jH, gK, PRB 81, 115126


--------------------------------------------------------------------------------------------------------




--------------------------------------- Iteration      1(   2)  ---------------------------------------


    POTLOK:  cpu time    119.9483: real time    121.6831
    SETDIJ:  cpu time      0.0985: real time      0.0992
    TRIAL :  cpu time    140.2426: real time    141.6799
    CORREC:  cpu time      0.0020: real time      0.0020
    CHARGE:  cpu time      1.6416: real time      1.6621
    --------------------------------------------
      LOOP:  cpu time    261.9364: real time    265.1437

 eigenvalue-minimisations  :     0
 total energy-change (2. order) :-0.1303757E+00  (-0.9516708E-01)
 number of electron      60.9999998 magnetization       1.0000000
 augmentation part        2.3890056 magnetization       0.1002778

 Free energy of the ion-electron system (eV)
  ---------------------------------------------------
  alpha Z        PSCENC =         0.26742016
  Ewald energy   TEWEN  =      7134.55132120
  -Hartree energ DENC   =     -8916.27795232
  -exchange      EXHF   =       145.27976257
  -V(xc)+E(xc)   XCENC  =       168.35519192
  PAW double counting   =      5321.71781789    -5328.72898393
  entropy T*S    EENTRO =        -0.00000000
  eigenvalues    EBANDS =      -946.03528890
  atomic energy  EATOM  =      2432.72555871
  ---------------------------------------------------
  free energy    TOTEN  =      -157.45709533 eV

  energy without entropy =     -157.45709533  energy(sigma->0) =     -157.45709533
  exchange ACFDT corr.  =        -0.00000000  see jH, gK, PRB 81, 115126


--------------------------------------------------------------------------------------------------------




--------------------------------------- Iteration      1(   3)  ---------------------------------------


    POTLOK:  cpu time    117.3369: real time    118.8825
    SETDIJ:  cpu time      0.1039: real time      0.1044
    TRIAL :  cpu time    141.6884: real time    143.1229
    CORREC:  cpu time      0.0008: real time      0.0008
    CHARGE:  cpu time      1.6452: real time      1.6604
    --------------------------------------------
      LOOP:  cpu time    260.7793: real time    263.7832

 eigenvalue-minimisations  :     0
 total energy-change (2. order) :-0.6508626E-01  (-0.3109443E-01)
 number of electron      60.9999998 magnetization       1.0000000
 augmentation part        2.3831720 magnetization       0.1000168

 Free energy of the ion-electron system (eV)
  ---------------------------------------------------
  alpha Z        PSCENC =         0.26742016
  Ewald energy   TEWEN  =      7134.55132120
  -Hartree energ DENC   =     -8914.66711174
  -exchange      EXHF   =       145.34274191
  -V(xc)+E(xc)   XCENC  =       168.30349447
  PAW double counting   =      5436.42646809    -5443.36500772
  entropy T*S    EENTRO =        -0.00000000
  eigenvalues    EBANDS =      -947.91090615
  atomic energy  EATOM  =      2432.72555871
  ---------------------------------------------------
  free energy    TOTEN  =      -157.52218160 eV

  energy without entropy =     -157.52218160  energy(sigma->0) =     -157.52218160
  exchange ACFDT corr.  =        -0.00000000  see jH, gK, PRB 81, 115126


--------------------------------------------------------------------------------------------------------




--------------------------------------- Iteration      1(   4)  ---------------------------------------


    POTLOK:  cpu time    113.7768: real time    115.3206
    SETDIJ:  cpu time      0.0984: real time      0.0991
    TRIAL :  cpu time    141.5829: real time    143.0328
    CORREC:  cpu time      0.0011: real time      0.0011
    CHARGE:  cpu time      1.6400: real time      1.6557
    --------------------------------------------
      LOOP:  cpu time    257.1068: real time    260.1222

 eigenvalue-minimisations  :     0
 total energy-change (2. order) :-0.2030998E-01  (-0.9196945E-02)
 number of electron      60.9999998 magnetization       1.0000000
 augmentation part        2.3820929 magnetization       0.0994781

 Free energy of the ion-electron system (eV)
  ---------------------------------------------------
  alpha Z        PSCENC =         0.26742016
  Ewald energy   TEWEN  =      7134.55132120
  -Hartree energ DENC   =     -8914.75081845
  -exchange      EXHF   =       145.40957594
  -V(xc)+E(xc)   XCENC  =       168.29905290
  PAW double counting   =      5514.75174930    -5521.64312999
  entropy T*S    EENTRO =        -0.00000000
  eigenvalues    EBANDS =      -947.92071842
  atomic energy  EATOM  =      2432.72555871
  ---------------------------------------------------
  free energy    TOTEN  =      -157.54249157 eV

  energy without entropy =     -157.54249157  energy(sigma->0) =     -157.54249157
  exchange ACFDT corr.  =         0.00000000  see jH, gK, PRB 81, 115126


--------------------------------------------------------------------------------------------------------




--------------------------------------- Iteration      1(   5)  ---------------------------------------


    POTLOK:  cpu time    110.2569: real time    111.7573
    SETDIJ:  cpu time      0.1010: real time      0.1015
    TRIAL :  cpu time    141.3186: real time    142.7546
    CORREC:  cpu time      0.0073: real time      0.0073
    CHARGE:  cpu time      1.6455: real time      1.6599
    --------------------------------------------
      LOOP:  cpu time    253.3347: real time    256.2918

 eigenvalue-minimisations  :     0
 total energy-change (2. order) :-0.6008009E-02  (-0.3435515E-02)
 number of electron      60.9999998 magnetization       1.0000000
 augmentation part        2.3827240 magnetization       0.0990511

 Free energy of the ion-electron system (eV)
  ---------------------------------------------------
  alpha Z        PSCENC =         0.26742016
  Ewald energy   TEWEN  =      7134.55132120
  -Hartree energ DENC   =     -8915.83127487
  -exchange      EXHF   =       145.47907629
  -V(xc)+E(xc)   XCENC  =       168.33147448
  PAW double counting   =      5555.72040143    -5562.59479532
  entropy T*S    EENTRO =        -0.00000000
  eigenvalues    EBANDS =      -946.91231103
  atomic energy  EATOM  =      2432.72555871
  ---------------------------------------------------
  free energy    TOTEN  =      -157.54849958 eV

  energy without entropy =     -157.54849958  energy(sigma->0) =     -157.54849958
  exchange ACFDT corr.  =        -0.00000000  see jH, gK, PRB 81, 115126


--------------------------------------------------------------------------------------------------------




--------------------------------------- Iteration      1(   6)  ---------------------------------------


    POTLOK:  cpu time    108.7141: real time    110.2605
    SETDIJ:  cpu time      0.0976: real time      0.0979
    TRIAL :  cpu time    141.6134: real time    143.0112
    CORREC:  cpu time      0.0007: real time      0.0007
    CHARGE:  cpu time      1.6350: real time      1.6551
    --------------------------------------------
      LOOP:  cpu time    252.0667: real time    255.0378

 eigenvalue-minimisations  :     0
 total energy-change (2. order) :-0.2416368E-02  (-0.1838646E-02)
 number of electron      60.9999998 magnetization       1.0000000
 augmentation part        2.3833165 magnetization       0.0987796

 Free energy of the ion-electron system (eV)
  ---------------------------------------------------
  alpha Z        PSCENC =         0.26742016
  Ewald energy   TEWEN  =      7134.55132120
  -Hartree energ DENC   =     -8916.30434035
  -exchange      EXHF   =       145.51291607
  -V(xc)+E(xc)   XCENC  =       168.35029342
  PAW double counting   =      5571.24705156    -5578.12089976
  entropy T*S    EENTRO =        -0.00000000
  eigenvalues    EBANDS =      -946.46579183
  atomic energy  EATOM  =      2432.72555871
  ---------------------------------------------------
  free energy    TOTEN  =      -157.55091595 eV

  energy without entropy =     -157.55091595  energy(sigma->0) =     -157.55091595
  exchange ACFDT corr.  =         0.00000000  see jH, gK, PRB 81, 115126


--------------------------------------------------------------------------------------------------------




--------------------------------------- Iteration      1(   7)  ---------------------------------------


    POTLOK:  cpu time    105.6142: real time    107.0612
    SETDIJ:  cpu time      0.0978: real time      0.0984
    TRIAL :  cpu time    141.0922: real time    142.5705
    CORREC:  cpu time      0.0007: real time      0.0007
    CHARGE:  cpu time      1.6480: real time      1.6631
    --------------------------------------------
      LOOP:  cpu time    248.4603: real time    251.4066

 eigenvalue-minimisations  :     0
 total energy-change (2. order) :-0.1394831E-02  (-0.1015032E-02)
 number of electron      60.9999998 magnetization       1.0000000
 augmentation part        2.3838238 magnetization       0.0985971

 Free energy of the ion-electron system (eV)
  ---------------------------------------------------
  alpha Z        PSCENC =         0.26742016
  Ewald energy   TEWEN  =      7134.55132120
  -Hartree energ DENC   =     -8916.23894144
  -exchange      EXHF   =       145.52012893
  -V(xc)+E(xc)   XCENC  =       168.35336740
  PAW double counting   =      5573.03097136    -5579.90858687
  entropy T*S    EENTRO =        -0.00000000
  eigenvalues    EBANDS =      -946.53189084
  atomic energy  EATOM  =      2432.72555871
  ---------------------------------------------------
  free energy    TOTEN  =      -157.55231078 eV

  energy without entropy =     -157.55231078  energy(sigma->0) =     -157.55231078
  exchange ACFDT corr.  =        -0.00000000  see jH, gK, PRB 81, 115126


--------------------------------------------------------------------------------------------------------




--------------------------------------- Iteration      1(   8)  ---------------------------------------


    POTLOK:  cpu time    103.6710: real time    105.1825
    SETDIJ:  cpu time      0.0979: real time      0.0986
    TRIAL :  cpu time    141.6043: real time    143.0102
    CORREC:  cpu time      0.0006: real time      0.0006
    CHARGE:  cpu time      1.6394: real time      1.6544
    --------------------------------------------
      LOOP:  cpu time    247.0181: real time    249.9565

 eigenvalue-minimisations  :     0
 total energy-change (2. order) :-0.7945953E-03  (-0.5282058E-03)
 number of electron      60.9999998 magnetization       1.0000000
 augmentation part        2.3842415 magnetization       0.0984626

 Free energy of the ion-electron system (eV)
  ---------------------------------------------------
  alpha Z        PSCENC =         0.26742016
  Ewald energy   TEWEN  =      7134.55132120
  -Hartree energ DENC   =     -8916.12718885
  -exchange      EXHF   =       145.51944502
  -V(xc)+E(xc)   XCENC  =       168.35278834
  PAW double counting   =      5569.10311236    -5575.98498182
  entropy T*S    EENTRO =        -0.00000000
  eigenvalues    EBANDS =      -946.64328876
  atomic energy  EATOM  =      2432.72555871
  ---------------------------------------------------
  free energy    TOTEN  =      -157.55310538 eV

  energy without entropy =     -157.55310538  energy(sigma->0) =     -157.55310538
  exchange ACFDT corr.  =        -0.00000000  see jH, gK, PRB 81, 115126


--------------------------------------------------------------------------------------------------------




--------------------------------------- Iteration      1(   9)  ---------------------------------------


    POTLOK:  cpu time     97.7375: real time     99.1145
    SETDIJ:  cpu time      0.0986: real time      0.0991
    TRIAL :  cpu time    140.7022: real time    142.1270
    CORREC:  cpu time      0.0011: real time      0.0011
    CHARGE:  cpu time      1.6408: real time      1.6552
    --------------------------------------------
      LOOP:  cpu time    240.1877: real time    243.0096

 eigenvalue-minimisations  :     0
 total energy-change (2. order) :-0.4269482E-03  (-0.2826403E-03)
 number of electron      60.9999998 magnetization       1.0000000
 augmentation part        2.3844950 magnetization       0.0983639

 Free energy of the ion-electron system (eV)
  ---------------------------------------------------
  alpha Z        PSCENC =         0.26742016
  Ewald energy   TEWEN  =      7134.55132120
  -Hartree energ DENC   =     -8916.12119707
  -exchange      EXHF   =       145.51945360
  -V(xc)+E(xc)   XCENC  =       168.35363484
  PAW double counting   =      5564.17362993    -5571.05889727
  entropy T*S    EENTRO =        -0.00000000
  eigenvalues    EBANDS =      -946.65191968
  atomic energy  EATOM  =      2432.72555871
  ---------------------------------------------------
  free energy    TOTEN  =      -157.55353233 eV

  energy without entropy =     -157.55353233  energy(sigma->0) =     -157.55353233
  exchange ACFDT corr.  =         0.00000000  see jH, gK, PRB 81, 115126


--------------------------------------------------------------------------------------------------------




--------------------------------------- Iteration      1(  10)  ---------------------------------------


    POTLOK:  cpu time     96.0112: real time     97.3435
    SETDIJ:  cpu time      0.0971: real time      0.0977
    TRIAL :  cpu time    141.3647: real time    142.8062
    CORREC:  cpu time      0.0004: real time      0.0004
    CHARGE:  cpu time      1.6494: real time      1.6665
    --------------------------------------------
      LOOP:  cpu time    239.1294: real time    241.9261

 eigenvalue-minimisations  :     0
 total energy-change (2. order) :-0.2365315E-03  (-0.1638397E-03)
 number of electron      60.9999998 magnetization       1.0000000
 augmentation part        2.3846056 magnetization       0.0982830

 Free energy of the ion-electron system (eV)
  ---------------------------------------------------
  alpha Z        PSCENC =         0.26742016
  Ewald energy   TEWEN  =      7134.55132120
  -Hartree energ DENC   =     -8916.12416820
  -exchange      EXHF   =       145.51946522
  -V(xc)+E(xc)   XCENC  =       168.35417414
  PAW double counting   =      5560.24391230    -5567.13131864
  entropy T*S    EENTRO =        -0.00000000
  eigenvalues    EBANDS =      -946.64781097
  atomic energy  EATOM  =      2432.72555871
  ---------------------------------------------------
  free energy    TOTEN  =      -157.55376886 eV

  energy without entropy =     -157.55376886  energy(sigma->0) =     -157.55376886
  exchange ACFDT corr.  =         0.00000000  see jH, gK, PRB 81, 115126


--------------------------------------------------------------------------------------------------------




--------------------------------------- Iteration      1(  11)  ---------------------------------------


    POTLOK:  cpu time     94.6854: real time     95.9598
    SETDIJ:  cpu time      0.0973: real time      0.0978
    TRIAL :  cpu time    140.9940: real time    142.4030
    CORREC:  cpu time      0.0011: real time      0.0011
    CHARGE:  cpu time      1.6360: real time      1.6557
    --------------------------------------------
      LOOP:  cpu time    237.4186: real time    240.1275

 eigenvalue-minimisations  :     0
 total energy-change (2. order) :-0.1417214E-03  (-0.1009175E-03)
 number of electron      60.9999998 magnetization       1.0000000
 augmentation part        2.3846688 magnetization       0.0982226

 Free energy of the ion-electron system (eV)
  ---------------------------------------------------
  alpha Z        PSCENC =         0.26742016
  Ewald energy   TEWEN  =      7134.55132120
  -Hartree energ DENC   =     -8916.10773442
  -exchange      EXHF   =       145.51931078
  -V(xc)+E(xc)   XCENC  =       168.35401746
  PAW double counting   =      5557.85548233    -5564.74389569
  entropy T*S    EENTRO =        -0.00000000
  eigenvalues    EBANDS =      -946.66057226
  atomic energy  EATOM  =      2432.72555871
  ---------------------------------------------------
  free energy    TOTEN  =      -157.55391058 eV

  energy without entropy =     -157.55391058  energy(sigma->0) =     -157.55391058
  exchange ACFDT corr.  =         0.00000000  see jH, gK, PRB 81, 115126


--------------------------------------------------------------------------------------------------------




--------------------------------------- Iteration      1(  12)  ---------------------------------------


    POTLOK:  cpu time     90.9848: real time     92.1186
    SETDIJ:  cpu time      0.0983: real time      0.0988
    TRIAL :  cpu time    140.5894: real time    141.9876
    CORREC:  cpu time      0.0031: real time      0.0032
    CHARGE:  cpu time      1.6382: real time      1.6587
    --------------------------------------------
      LOOP:  cpu time    233.3246: real time    235.8844

 eigenvalue-minimisations  :     0
 total energy-change (2. order) :-0.8981831E-04  (-0.6549074E-04)
 number of electron      60.9999998 magnetization       1.0000000
 augmentation part        2.3847237 magnetization       0.0981796

 Free energy of the ion-electron system (eV)
  ---------------------------------------------------
  alpha Z        PSCENC =         0.26742016
  Ewald energy   TEWEN  =      7134.55132120
  -Hartree energ DENC   =     -8916.10397349
  -exchange      EXHF   =       145.51987361
  -V(xc)+E(xc)   XCENC  =       168.35416153
  PAW double counting   =      5556.81737483    -5563.70615570
  entropy T*S    EENTRO =        -0.00000000
  eigenvalues    EBANDS =      -946.66244379
  atomic energy  EATOM  =      2432.72555871
  ---------------------------------------------------
  free energy    TOTEN  =      -157.55400040 eV

  energy without entropy =     -157.55400040  energy(sigma->0) =     -157.55400040
  exchange ACFDT corr.  =         0.00000000  see jH, gK, PRB 81, 115126


--------------------------------------------------------------------------------------------------------




--------------------------------------- Iteration      1(  13)  ---------------------------------------


    POTLOK:  cpu time     91.1072: real time     92.4546
    SETDIJ:  cpu time      0.0988: real time      0.0994
    TRIAL :  cpu time    141.0959: real time    142.5689
    CORREC:  cpu time      0.0001: real time      0.0001
    CHARGE:  cpu time      1.6402: real time      1.6601
    --------------------------------------------
      LOOP:  cpu time    233.9491: real time    236.7945

 eigenvalue-minimisations  :     0
 total energy-change (2. order) :-0.5944747E-04  (-0.4444691E-04)
 number of electron      60.9999998 magnetization       1.0000000
 augmentation part        2.3847689 magnetization       0.0981486

 Free energy of the ion-electron system (eV)
  ---------------------------------------------------
  alpha Z        PSCENC =         0.26742016
  Ewald energy   TEWEN  =      7134.55132120
  -Hartree energ DENC   =     -8916.10891949
  -exchange      EXHF   =       145.52078551
  -V(xc)+E(xc)   XCENC  =       168.35452884
  PAW double counting   =      5556.60753847    -5563.49649219
  entropy T*S    EENTRO =        -0.00000000
  eigenvalues    EBANDS =      -946.65708302
  atomic energy  EATOM  =      2432.72555871
  ---------------------------------------------------
  free energy    TOTEN  =      -157.55405985 eV

  energy without entropy =     -157.55405985  energy(sigma->0) =     -157.55405985
  exchange ACFDT corr.  =         0.00000000  see jH, gK, PRB 81, 115126


--------------------------------------------------------------------------------------------------------




--------------------------------------- Iteration      1(  14)  ---------------------------------------


    POTLOK:  cpu time     89.7681: real time     90.9032
    SETDIJ:  cpu time      0.0983: real time      0.0989
    TRIAL :  cpu time    140.8613: real time    142.2726
    CORREC:  cpu time      0.0055: real time      0.0055
    CHARGE:  cpu time      1.6367: real time      1.6562
    --------------------------------------------
      LOOP:  cpu time    232.3793: real time    234.9512

 eigenvalue-minimisations  :     0
 total energy-change (2. order) :-0.4090979E-04  (-0.3139070E-04)
 number of electron      60.9999998 magnetization       1.0000000
 augmentation part        2.3848087 magnetization       0.0981260

 Free energy of the ion-electron system (eV)
  ---------------------------------------------------
  alpha Z        PSCENC =         0.26742016
  Ewald energy   TEWEN  =      7134.55132120
  -Hartree energ DENC   =     -8916.11240583
  -exchange      EXHF   =       145.52158397
  -V(xc)+E(xc)   XCENC  =       168.35483113
  PAW double counting   =      5556.74706881    -5563.63613137
  entropy T*S    EENTRO =        -0.00000000
  eigenvalues    EBANDS =      -946.65360742
  atomic energy  EATOM  =      2432.72555871
  ---------------------------------------------------
  free energy    TOTEN  =      -157.55410075 eV

  energy without entropy =     -157.55410075  energy(sigma->0) =     -157.55410075
  exchange ACFDT corr.  =         0.00000000  see jH, gK, PRB 81, 115126


--------------------------------------------------------------------------------------------------------




--------------------------------------- Iteration      1(  15)  ---------------------------------------


    POTLOK:  cpu time     88.1479: real time     89.2891
    SETDIJ:  cpu time      0.0982: real time      0.0988
    TRIAL :  cpu time    140.9343: real time    142.3340
    CORREC:  cpu time      0.0020: real time      0.0020
    CHARGE:  cpu time      1.6374: real time      1.6524
    --------------------------------------------
      LOOP:  cpu time    230.8246: real time    233.3899

 eigenvalue-minimisations  :     0
 total energy-change (2. order) :-0.2921795E-04  (-0.2303915E-04)
 number of electron      60.9999998 magnetization       1.0000000
 augmentation part        2.3848457 magnetization       0.0981087

 Free energy of the ion-electron system (eV)
  ---------------------------------------------------
  alpha Z        PSCENC =         0.26742016
  Ewald energy   TEWEN  =      7134.55132120
  -Hartree energ DENC   =     -8916.11520266
  -exchange      EXHF   =       145.52223721
  -V(xc)+E(xc)   XCENC  =       168.35507939
  PAW double counting   =      5556.95940431    -5563.84857471
  entropy T*S    EENTRO =        -0.00000000
  eigenvalues    EBANDS =      -946.65115144
  atomic energy  EATOM  =      2432.72555871
  ---------------------------------------------------
  free energy    TOTEN  =      -157.55412997 eV

  energy without entropy =     -157.55412997  energy(sigma->0) =     -157.55412997
  exchange ACFDT corr.  =         0.00000000  see jH, gK, PRB 81, 115126


--------------------------------------------------------------------------------------------------------




--------------------------------------- Iteration      1(  16)  ---------------------------------------


    POTLOK:  cpu time     86.1541: real time     87.4442
    SETDIJ:  cpu time      0.0992: real time      0.0999
    TRIAL :  cpu time    141.1507: real time    142.5725
    CORREC:  cpu time      0.0002: real time      0.0002
    CHARGE:  cpu time      1.6381: real time      1.6581
    --------------------------------------------
      LOOP:  cpu time    229.0566: real time    231.7946

 eigenvalue-minimisations  :     0
 total energy-change (2. order) :-0.2161799E-04  (-0.1767035E-04)
 number of electron      60.9999998 magnetization       1.0000000
 augmentation part        2.3848779 magnetization       0.0980937

 Free energy of the ion-electron system (eV)
  ---------------------------------------------------
  alpha Z        PSCENC =         0.26742016
  Ewald energy   TEWEN  =      7134.55132120
  -Hartree energ DENC   =     -8916.11787368
  -exchange      EXHF   =       145.52276323
  -V(xc)+E(xc)   XCENC  =       168.35528880
  PAW double counting   =      5557.13250004    -5564.02179565
  entropy T*S    EENTRO =        -0.00000000
  eigenvalues    EBANDS =      -946.64893268
  atomic energy  EATOM  =      2432.72555871
  ---------------------------------------------------
  free energy    TOTEN  =      -157.55415159 eV

  energy without entropy =     -157.55415159  energy(sigma->0) =     -157.55415159
  exchange ACFDT corr.  =         0.00000000  see jH, gK, PRB 81, 115126


--------------------------------------------------------------------------------------------------------




--------------------------------------- Iteration      1(  17)  ---------------------------------------


    POTLOK:  cpu time     84.7407: real time     85.9413
    SETDIJ:  cpu time      0.0990: real time      0.0997
    TRIAL :  cpu time    140.5330: real time    141.9330
    CORREC:  cpu time      0.0006: real time      0.0006
    CHARGE:  cpu time      1.6461: real time      1.6654
    --------------------------------------------
      LOOP:  cpu time    227.0256: real time    229.6513

 eigenvalue-minimisations  :     0
 total energy-change (2. order) :-0.1666356E-04  (-0.1408078E-04)
 number of electron      60.9999998 magnetization       1.0000000
 augmentation part        2.3849050 magnetization       0.0980799

 Free energy of the ion-electron system (eV)
  ---------------------------------------------------
  alpha Z        PSCENC =         0.26742016
  Ewald energy   TEWEN  =      7134.55132120
  -Hartree energ DENC   =     -8916.11957432
  -exchange      EXHF   =       145.52316575
  -V(xc)+E(xc)   XCENC  =       168.35544324
  PAW double counting   =      5557.23917248    -5564.12859732
  entropy T*S    EENTRO =        -0.00000000
  eigenvalues    EBANDS =      -946.64759061
  atomic energy  EATOM  =      2432.72555871
  ---------------------------------------------------
  free energy    TOTEN  =      -157.55416825 eV

  energy without entropy =     -157.55416825  energy(sigma->0) =     -157.55416825
  exchange ACFDT corr.  =         0.00000000  see jH, gK, PRB 81, 115126


--------------------------------------------------------------------------------------------------------




--------------------------------------- Iteration      1(  18)  ---------------------------------------


    POTLOK:  cpu time     83.2368: real time     84.4289
    SETDIJ:  cpu time      0.0986: real time      0.0992
    TRIAL :  cpu time    141.2470: real time    142.7044
    CORREC:  cpu time      0.0006: real time      0.0006
    CHARGE:  cpu time      1.6468: real time      1.6608
    --------------------------------------------
      LOOP:  cpu time    226.2442: real time    228.9129

 eigenvalue-minimisations  :     0
 total energy-change (2. order) :-0.1331749E-04  (-0.1153091E-04)
 number of electron      60.9999998 magnetization       1.0000000
 augmentation part        2.3849282 magnetization       0.0980673

 Free energy of the ion-electron system (eV)
  ---------------------------------------------------
  alpha Z        PSCENC =         0.26742016
  Ewald energy   TEWEN  =      7134.55132120
  -Hartree energ DENC   =     -8916.12093322
  -exchange      EXHF   =       145.52349216
  -V(xc)+E(xc)   XCENC  =       168.35556641
  PAW double counting   =      5557.29190358    -5564.18144387
  entropy T*S    EENTRO =        -0.00000000
  eigenvalues    EBANDS =      -946.64654031
  atomic energy  EATOM  =      2432.72555871
  ---------------------------------------------------
  free energy    TOTEN  =      -157.55418157 eV

  energy without entropy =     -157.55418157  energy(sigma->0) =     -157.55418157
  exchange ACFDT corr.  =         0.00000000  see jH, gK, PRB 81, 115126


--------------------------------------------------------------------------------------------------------




--------------------------------------- Iteration      1(  19)  ---------------------------------------


    POTLOK:  cpu time     83.3129: real time     84.4143
    SETDIJ:  cpu time      0.0978: real time      0.0983
    TRIAL :  cpu time    140.3892: real time    141.8250
    CORREC:  cpu time      0.0004: real time      0.0004
    CHARGE:  cpu time      1.6391: real time      1.6599
    --------------------------------------------
      LOOP:  cpu time    225.4457: real time    228.0094

 eigenvalue-minimisations  :     0
 total energy-change (2. order) :-0.1091828E-04  (-0.9658847E-05)
 number of electron      60.9999998 magnetization       1.0000000
 augmentation part        2.3849488 magnetization       0.0980562

 Free energy of the ion-electron system (eV)
  ---------------------------------------------------
  alpha Z        PSCENC =         0.26742016
  Ewald energy   TEWEN  =      7134.55132120
  -Hartree energ DENC   =     -8916.12234779
  -exchange      EXHF   =       145.52377731
  -V(xc)+E(xc)   XCENC  =       168.35567674
  PAW double counting   =      5557.31392139    -5564.20355760
  entropy T*S    EENTRO =        -0.00000000
  eigenvalues    EBANDS =      -946.64541722
  atomic energy  EATOM  =      2432.72555871
  ---------------------------------------------------
  free energy    TOTEN  =      -157.55419249 eV

  energy without entropy =     -157.55419249  energy(sigma->0) =     -157.55419249
  exchange ACFDT corr.  =         0.00000000  see jH, gK, PRB 81, 115126


--------------------------------------------------------------------------------------------------------




--------------------------------------- Iteration      1(  20)  ---------------------------------------


    POTLOK:  cpu time     83.2337: real time     84.4725
    SETDIJ:  cpu time      0.0995: real time      0.1002
    TRIAL :  cpu time    141.3443: real time    142.7972
    CORREC:  cpu time      0.0010: real time      0.0011
    CHARGE:  cpu time      1.6440: real time      1.6638
    --------------------------------------------
      LOOP:  cpu time    226.3315: real time    229.0492

 eigenvalue-minimisations  :     0
 total energy-change (2. order) :-0.9124919E-05  (-0.8242481E-05)
 number of electron      60.9999998 magnetization       1.0000000
 augmentation part        2.3849672 magnetization       0.0980464

 Free energy of the ion-electron system (eV)
  ---------------------------------------------------
  alpha Z        PSCENC =         0.26742016
  Ewald energy   TEWEN  =      7134.55132120
  -Hartree energ DENC   =     -8916.12363811
  -exchange      EXHF   =       145.52402831
  -V(xc)+E(xc)   XCENC  =       168.35577336
  PAW double counting   =      5557.32342559    -5564.21314330
  entropy T*S    EENTRO =        -0.00000000
  eigenvalues    EBANDS =      -946.64439471
  atomic energy  EATOM  =      2432.72555871
  ---------------------------------------------------
  free energy    TOTEN  =      -157.55420161 eV

  energy without entropy =     -157.55420161  energy(sigma->0) =     -157.55420161
  exchange ACFDT corr.  =         0.00000000  see jH, gK, PRB 81, 115126


--------------------------------------------------------------------------------------------------------


  average scaling for gradient   1.9826


 average (electrostatic) potential at core
  the test charge radii are     0.6991  0.7215  0.5201
  (the norm of the test charge is              1.0000)
       1 -56.2699       2 -56.1059       3 -58.2321       4 -57.9163       5 -55.9595
       6 -56.6635       7 -55.7967       8 -56.1088       9 -54.9435      10 -58.3299
      11 -76.5842      12 -76.9808      13 -37.7991      14 -37.9738      15 -37.9750
      16 -38.4843      17 -38.3741      18 -38.7853      19 -38.8896      20 -38.8998
      21 -38.7683      22 -38.6593
 
 
 
 E-fermi :  -6.2689     XC(G=0):  -0.0294     alpha+bet : -0.0222

 Fermi energy:        -6.2688757284

 spin component 1

 k-point     1 :       0.0000    0.0000    0.0000
  band No.  band energies     occupation 
      1     -32.5625      1.00000
      2     -30.1611      1.00000
      3     -25.0099      1.00000
      4     -23.1696      1.00000
      5     -21.9910      1.00000
      6     -21.7893      1.00000
      7     -20.0765      1.00000
      8     -19.1057      1.00000
      9     -18.2839      1.00000
     10     -17.9411      1.00000
     11     -16.1121      1.00000
     12     -15.3580      1.00000
     13     -15.1678      1.00000
     14     -15.1113      1.00000
     15     -14.3353      1.00000
     16     -13.0758      1.00000
     17     -12.9622      1.00000
     18     -12.6844      1.00000
     19     -12.0443      1.00000
     20     -11.8211      1.00000
     21     -11.8555      1.00000
     22     -11.5852      1.00000
     23     -11.5964      1.00000
     24     -11.4739      1.00000
     25     -10.6580      1.00000
     26     -10.3469      1.00000
     27     -10.2453      1.00000
     28     -10.0246      1.00000
     29      -8.5045      1.00000
     30      -7.4565      1.00000
     31      -6.5743      1.00000
     32      -2.5030      0.00000
     33      -1.4557      0.00000
     34      -0.0403      0.00000
     35      -0.3047      0.00000
     36      -0.0643      0.00000
     37       0.0233      0.00000
     38       0.0130      0.00000
     39       0.2967      0.00000
     40       0.0963      0.00000
     41       0.0935      0.00000
     42       0.0964      0.00000
     43       0.1149      0.00000
     44       0.1211      0.00000
     45       0.1288      0.00000
     46       0.1785      0.00000
     47       0.1896      0.00000
     48       0.1861      0.00000
     49       0.1906      0.00000
     50       0.1914      0.00000
     51       0.1916      0.00000
     52       0.1912      0.00000
     53       0.1913      0.00000
     54       0.1808      0.00000
 Fermi energy:        -6.2688757284

 spin component 2

 k-point     1 :       0.0000    0.0000    0.0000
  band No.  band energies     occupation 
      1     -32.3924      1.00000
      2     -29.9759      1.00000
      3     -24.8438      1.00000
      4     -22.9729      1.00000
      5     -21.9010      1.00000
      6     -21.6111      1.00000
      7     -20.0511      1.00000
      8     -18.9283      1.00000
      9     -18.1894      1.00000
     10     -17.8212      1.00000
     11     -16.0023      1.00000
     12     -15.3018      1.00000
     13     -15.0502      1.00000
     14     -14.8394      1.00000
     15     -14.2613      1.00000
     16     -13.0092      1.00000
     17     -12.9456      1.00000
     18     -12.6077      1.00000
     19     -11.6161      1.00000
     20     -11.7683      1.00000
     21     -11.5411      1.00000
     22     -11.3486      1.00000
     23     -11.2935      1.00000
     24     -11.3918      1.00000
     25     -10.6140      1.00000
     26     -10.3042      1.00000
     27      -9.7472      1.00000
     28      -9.9829      1.00000
     29      -8.1096      1.00000
     30      -7.1385      1.00000
     31      -5.0719      0.00000
     32      -1.8277      0.00000
     33      -1.0355      0.00000
     34      -0.2912      0.00000
     35       0.4066      0.00000
     36      -0.0524      0.00000
     37       0.0249      0.00000
     38       0.0131      0.00000
     39       0.2970      0.00000
     40       0.0728      0.00000
     41       0.0967      0.00000
     42       0.0938      0.00000
     43       0.1215      0.00000
     44       0.1151      0.00000
     45       0.1283      0.00000
     46       0.1409      0.00000
     47       0.1871      0.00000
     48       0.1863      0.00000
     49       0.1903      0.00000
     50       0.1879      0.00000
     51       0.1913      0.00000
     52       0.1915      0.00000
     53       0.1914      0.00000
     54       0.1814      0.00000


--------------------------------------------------------------------------------------------------------


 soft charge-density along one line, spin component           1
         0         1         2         3         4         5         6         7         8         9
 total charge-density along one line
 
 soft charge-density along one line, spin component           2
         0         1         2         3         4         5         6         7         8         9
 total charge-density along one line
 
 pseudopotential strength for first ion, spin component:           1
 10.070  13.392   0.002  -0.000  -0.001  -0.007   0.001   0.004
 13.392  17.809   0.003  -0.000  -0.001  -0.009   0.001   0.005
  0.002   0.003  -4.270  -0.001  -0.002   8.325   0.001   0.003
 -0.000  -0.000  -0.001  -4.288   0.001   0.001   8.361  -0.002
 -0.001  -0.001  -0.002   0.001  -4.272   0.003  -0.002   8.328
 -0.007  -0.009   8.325   0.001   0.003 -18.349  -0.003  -0.006
  0.001   0.001   0.001   8.361  -0.002  -0.003 -18.422   0.004
  0.004   0.005   0.003  -0.002   8.328  -0.006   0.004 -18.353
 pseudopotential strength for first ion, spin component:           2
 10.049  13.364   0.002  -0.000  -0.001  -0.007   0.000   0.004
 13.364  17.771   0.003  -0.000  -0.001  -0.009   0.001   0.005
  0.002   0.003  -4.270   0.000  -0.002   8.328  -0.000   0.004
 -0.000  -0.000   0.000  -4.265  -0.000  -0.000   8.323   0.000
 -0.001  -0.001  -0.002  -0.000  -4.271   0.004   0.000   8.330
 -0.007  -0.009   8.328  -0.000   0.004 -18.364  -0.000  -0.007
  0.000   0.001  -0.000   8.323   0.000  -0.000 -18.362  -0.000
  0.004   0.005   0.004   0.000   8.330  -0.007  -0.000 -18.366
 total augmentation occupancy for first ion, spin component:           1
  8.507  -3.787   0.107  -0.015  -0.193   0.028  -0.003  -0.037
 -3.787   1.723  -0.092   0.011   0.130  -0.019   0.002   0.021
  0.107  -0.092   1.768  -0.025   0.011   0.160  -0.003   0.009
 -0.015   0.011  -0.025   1.055   0.040  -0.003   0.067   0.005
 -0.193   0.130   0.011   0.040   1.871   0.009   0.005   0.176
  0.028  -0.019   0.160  -0.003   0.009   0.015  -0.000   0.002
 -0.003   0.002  -0.003   0.067   0.005  -0.000   0.004   0.001
 -0.037   0.021   0.009   0.005   0.176   0.002   0.001   0.018
 total augmentation occupancy for first ion, spin component:           2
 -0.008   0.011   0.005  -0.000   0.007   0.001   0.000   0.002
  0.011  -0.008  -0.007  -0.000  -0.006  -0.001  -0.000  -0.001
  0.005  -0.007   0.000   0.006  -0.003   0.000   0.000   0.000
 -0.000  -0.000   0.006   0.182  -0.009   0.000   0.005  -0.000
  0.007  -0.006  -0.003  -0.009   0.004   0.000  -0.000   0.000
  0.001  -0.001   0.000   0.000   0.000   0.000  -0.000   0.000
  0.000  -0.000   0.000   0.005  -0.000  -0.000  -0.000   0.000
  0.002  -0.001   0.000  -0.000   0.000   0.000   0.000  -0.000


------------------------ aborting loop because EDIFF is reached ----------------------------------------


    FORLOC:  cpu time      0.3310: real time      0.3329
    FORHF :  cpu time     85.0261: real time     85.8855
    FORNL :  cpu time      4.8888: real time      4.9418
    STRESS:  cpu time     14.8143: real time     14.9720
    FORCOR:  cpu time      6.6451: real time      6.7141
    OFIELD:  cpu time      0.0298: real time      0.0301
 WARNING: Using user supplied parameters
     VDW_A1 = 0.383
     VDW_A2 = 5.685
     VDW_S8 = 2.31
     because the xc functional is not supported. Required parameters not
     defined in the INCAR file will be replaced with PBE defaults ones.


 ---------------------------------------------------------------------------------------------

         DFTD3 V3.0 Rev 1        
 IVDW         = 12
 DF unknown   
 parameters
 VDW_S6       =    1.0000
 VDW_S8       =    2.3100
 VDW_A1       =    0.3830
 VDW_A2       =    5.6850
 k1-k3        =   16.0000    1.3333   -4.0000
 VDW_RADIUS   =   50.2022 A
 VDW_CNRADIUS =   21.1671 A
 Edisp (eV)   -0.41572

 E6    (eV) :    -0.2139
 E8    (eV) :    -0.2018
 % E8        : 48.54
    FORVDW:  cpu time      0.0078: real time      0.0079

  FORCE on cell =-STRESS in cart. coord.  units (eV):
  Direction    XX          YY          ZZ          XY          YZ          ZX
  --------------------------------------------------------------------------------------
  Alpha Z     0.26742     0.26742     0.26742
  Ewald    4964.97883  2594.72850  -425.15724  -117.47910  -113.38031   227.88028
  Hartree  4940.63707  2954.16100  1021.32683   -67.07090   -72.81801   161.58340
  E(xc)    -179.00445  -179.46505  -181.88214    -0.12123    -0.08843     0.13169
  Local  -10508.42728 -6166.62471 -1314.63203   172.05842   182.18094  -383.30132
  n-local   -92.38008   -95.95042   -92.52821    -0.68753     0.06778     0.08459
  augment     8.44203     9.70261    11.84255     0.84555     0.11122    -0.23230
  Kinetic   930.72471   949.64829  1046.38604    11.86350     3.84880    -6.20583
  Fock      -71.40902   -71.22263   -66.91843    -0.13549     0.14303    -0.17971
  vdW        -0.19243    -0.05295    -0.00337    -0.02186     0.00142    -0.00512
  -------------------------------------------------------------------------------------
  Total      -6.36320    -4.80794    -1.29858    -0.74864     0.06643    -0.24431
  in kB      -0.15930    -0.12036    -0.03251    -0.01874     0.00166    -0.00612
  external pressure =       -0.10 kB  Pullay stress =        0.00 kB


 VOLUME and BASIS-vectors are now :
 -----------------------------------------------------------------------------
  energy-cutoff  :      500.00
  volume of cell :    64000.00
      direct lattice vectors                 reciprocal lattice vectors
    40.000000000  0.000000000  0.000000000     0.025000000  0.000000000  0.000000000
     0.000000000 40.000000000  0.000000000     0.000000000  0.025000000  0.000000000
     0.000000000  0.000000000 40.000000000     0.000000000  0.000000000  0.025000000

  length of vectors
    40.000000000 40.000000000 40.000000000     0.025000000  0.025000000  0.025000000


 FORCES acting on ions:
    Electron-Ion                     Ewald-Force                    Non-Local-Force
 -----------------------------------------------------------------------------------------------
   -.833E+02 0.199E+03 -.125E+02   0.846E+02 -.201E+03 0.126E+02   -.144E+01 0.192E+01 -.152E+00
   0.579E+02 0.238E+03 -.610E+01   -.575E+02 -.243E+03 0.630E+01   -.488E-01 0.435E+01 -.170E+00
   0.173E+02 0.126E+03 -.396E+01   -.101E+02 -.128E+03 0.445E+01   -.718E+01 0.216E+01 -.445E+00
   -.595E+02 -.703E+02 -.271E+01   0.661E+02 0.669E+02 0.318E+01   -.597E+01 0.376E+01 -.425E+00
   -.968E+02 -.164E+03 -.238E+01   0.996E+02 0.166E+03 0.246E+01   -.288E+01 -.252E+01 -.604E-01
   -.862E+02 0.273E+02 -.803E+01   0.872E+02 -.269E+02 0.811E+01   -.713E+00 -.263E+00 -.483E-01
   -.115E+03 0.886E+02 -.103E+02   0.116E+03 -.898E+02 0.105E+02   -.136E+01 0.135E+01 -.122E+00
   -.921E+02 -.104E+03 -.478E+00   0.932E+02 0.104E+03 0.481E+00   -.685E+00 -.109E+01 0.358E-01
   -.174E+03 -.203E+02 -.206E+01   0.177E+03 0.194E+02 0.213E+01   -.177E+01 0.757E+00 -.424E-01
   0.272E+03 -.126E+03 0.214E+02   -.281E+03 0.131E+03 -.222E+02   0.891E+01 -.461E+01 0.793E+00
   0.689E+02 -.413E+03 0.121E+02   -.656E+02 0.464E+03 -.128E+02   -.210E+01 -.431E+02 0.684E+00
   0.372E+03 0.222E+03 0.120E+02   -.412E+03 -.254E+03 -.129E+02   0.343E+02 0.268E+02 0.864E+00
   -.528E+02 0.546E+02 -.212E+01   0.550E+02 -.596E+02 0.228E+01   -.194E+01 0.515E+01 -.154E+00
   -.491E+02 -.320E+02 0.507E+02   0.514E+02 0.343E+02 -.550E+02   -.205E+01 -.246E+01 0.428E+01
   -.483E+02 -.348E+02 -.499E+02   0.505E+02 0.374E+02 0.540E+02   -.200E+01 -.270E+01 -.415E+01
   -.211E+01 -.767E+02 0.211E+01   0.139E+00 0.817E+02 -.232E+01   0.219E+01 -.531E+01 0.223E+00
   -.481E+02 0.722E+02 -.446E+01   0.506E+02 -.770E+02 0.471E+01   -.246E+01 0.515E+01 -.251E+00
   -.327E+02 -.847E+02 0.536E+00   0.350E+02 0.897E+02 -.580E+00   -.241E+01 -.531E+01 0.534E-01
   0.663E+02 -.306E+02 0.696E+02   -.689E+02 0.319E+02 -.747E+02   0.267E+01 -.125E+01 0.521E+01
   0.752E+02 -.351E+02 -.577E+02   -.784E+02 0.367E+02 0.622E+02   0.340E+01 -.161E+01 -.468E+01
   0.344E+02 0.896E+02 -.134E+01   -.370E+02 -.947E+02 0.138E+01   0.265E+01 0.525E+01 -.362E-01
   -.403E+02 0.837E+02 -.532E+01   0.435E+02 -.884E+02 0.565E+01   -.328E+01 0.485E+01 -.341E+00
 -----------------------------------------------------------------------------------------------
   -.197E+02 0.106E+02 -.126E+01   -.171E-12 0.171E-12 0.169E-13   0.158E+02 -.871E+01 0.106E+01
 
 
 POSITION                                       TOTAL-FORCE (eV/Angst)
 -----------------------------------------------------------------------------------
     19.73874     18.28466     20.08259        -0.249687     -0.004575     -0.009541
     18.36288     18.14801     20.01839         0.237907      0.142954      0.003412
     17.64463     19.34184     19.94004        -0.382354      0.071529     -0.016930
     18.28394     20.61517     19.93621        -0.020154      0.240828     -0.011916
     19.64703     20.75908     19.99954        -0.283970     -0.093505     -0.018946
     20.40699     19.56189     20.06866         0.054748      0.085421     -0.005404
     21.84512     19.54081     20.11283        -0.004603      0.048660     -0.009852
     22.67076     20.63016     20.08358        -0.235719     -0.079389     -0.004505
     24.14815     20.55330     20.09796         0.104597      0.021384      0.002658
     16.05829     20.92533     19.79220         0.159797     -0.072586      0.004518
     17.33938     21.58258     19.85974         0.001205     -0.815323      0.012580
     16.31958     19.49659     19.86191         0.776694      0.475373      0.028170
     24.52097     19.52240     20.12891        -0.105681      0.229012     -0.002914
     24.55876     21.06397     19.20978        -0.119520     -0.134166      0.188564
     24.54931     21.11316     20.96048        -0.123921     -0.140754     -0.179811
     22.24170     21.63540     20.04065         0.092792     -0.253910      0.005343
     22.30598     18.55027     20.16046        -0.116154      0.233884     -0.013804
     20.10588     21.74498     19.98983        -0.107180     -0.235612      0.002848
     15.57957     21.14712     18.83028         0.149707     -0.072062      0.267244
     15.44738     21.21381     20.65552         0.184968     -0.086278     -0.219080
     17.86734     17.17967     20.02478         0.122674      0.230636      0.001047
     20.35766     17.38977     20.14563        -0.136143      0.208479     -0.023680
 -----------------------------------------------------------------------------------
    total drift:                               -0.041822     -0.003261     -0.002268


--------------------------------------------------------------------------------------------------------



  FREE ENERGIE OF THE ION-ELECTRON SYSTEM (eV)
  ---------------------------------------------------
  free  energy   TOTEN  =      -157.96992150 eV

  energy  without entropy=     -157.96992150  energy(sigma->0) =     -157.96992150
 


--------------------------------------------------------------------------------------------------------


    POTLOK:  cpu time     83.3458: real time     84.5901


--------------------------------------------------------------------------------------------------------


 writing wavefunctions
     LOOP+:  cpu time   5054.8538: real time   5115.5733
    4ORBIT:  cpu time      0.0000: real time      0.0000

 total amount of memory used by VASP MPI-rank0  1326201. kBytes
=======================================================================

   base      :      30000. kBytes
   nonlr-proj:       3337. kBytes
   fftplans  :     129164. kBytes
   grid      :     282813. kBytes
   one-center:          6. kBytes
   HF        :          4. kBytes
   wavefun   :      93621. kBytes
   fock_wrk  :     787256. kBytes
 
  
  
 General timing and accounting informations for this job:
 ========================================================
  
                  Total CPU time used (sec):     5095.834
                            User time (sec):     4821.303
                          System time (sec):      274.531
                         Elapsed time (sec):     5160.338
  
                   Maximum memory used (kb):     2013820.
                   Average memory used (kb):          N/A
  
                          Minor page faults:      1831723
                          Major page faults:           44
                 Voluntary context switches:       101434
