
                                 *****************
                                 * O   R   C   A *
                                 *****************

                                            #,                                       
                                            ###                                      
                                            ####                                     
                                            #####                                    
                                            ######                                   
                                           ########,                                 
                                     ,,################,,,,,                         
                               ,,#################################,,                 
                          ,,##########################################,,             
                       ,#########################################, ''#####,          
                    ,#############################################,,   '####,        
                  ,##################################################,,,,####,       
                ,###########''''           ''''###############################       
              ,#####''   ,,,,##########,,,,          '''####'''          '####       
            ,##' ,,,,###########################,,,                        '##       
           ' ,,###''''                  '''############,,,                           
         ,,##''                                '''############,,,,        ,,,,,,###''
      ,#''                                            '''#######################'''  
     '                                                          ''''####''''         
             ,#######,   #######,   ,#######,      ##                                
            ,#'     '#,  ##    ##  ,#'     '#,    #''#        ,####,   ,####,        
            ##       ##  ##   ,#'  ##            #'  '#       #'       #'  '#        
            ##       ##  #######   ##           ,######,      #####,   #    #        
            '#,     ,#'  ##    ##  '#,     ,#' ,#      #,     #,   #   #,  ,#        
             '#######'   ##     ##  '#######'  #'      '#     '####' # '####'        



                #########################################################
                #                        -***-                          #
                #          Department of theory and spectroscopy        #
                #                                                       #
                #                      Frank Neese                      #
                #                                                       #
                #     Directorship, Architecture, Infrastructure        #
                #                    SHARK, DRIVERS                     #
                #        Core code/Algorithms in most modules           #
                #                                                       #
                #        Max Planck Institute fuer Kohlenforschung      #
                #                Kaiser Wilhelm Platz 1                 #
                #                 D-45470 Muelheim/Ruhr                 #
                #                      Germany                          #
                #                                                       #
                #                  All rights reserved                  #
                #                        -***-                          #
                #########################################################


                         Program Version 6.0.0  -   RELEASE  -


 With contributions from (in alphabetic order):
   Daniel Aravena         : Magnetic Suceptibility
   Michael Atanasov       : Ab Initio Ligand Field Theory (pilot matlab implementation)
   Alexander A. Auer      : GIAO ZORA, VPT2 properties, NMR spectrum
   Ute Becker             : All parallelization in ORCA, NUMFREQ, NUMCALC
   Giovanni Bistoni       : ED, misc. LED, open-shell LED, HFLD
   Martin Brehm           : Molecular dynamics
   Dmytro Bykov           : pre 5.0 version of the SCF Hessian
   Marcos Casanova-Páez   : Triplet and SCS-CIS(D). UHF-(DLPNO)-IP/EA/STEOM-CCSD. UHF-CVS-IP/STEOM-CCSD
   Vijay G. Chilkuri      : MRCI spin determinant printing, contributions to CSF-ICE
   Pauline Colinet        : FMM embedding
   Dipayan Datta          : RHF DLPNO-CCSD density
   Achintya Kumar Dutta   : EOM-CC, STEOM-CC
   Nicolas Foglia         : Exact transition moments, OPA infrastructure, MCD improvements
   Dmitry Ganyushin       : Spin-Orbit,Spin-Spin,Magnetic field MRCI
   Miquel Garcia          : C-PCM and meta-GGA Hessian, CCSD/C-PCM, Gaussian charge scheme
   Tiago L. C. Gouveia    : GS-ROHF, GS-ROCIS
   Yang Guo               : DLPNO-NEVPT2, F12-NEVPT2, CIM, IAO-localization
   Andreas Hansen         : Spin unrestricted coupled pair/coupled cluster methods
   Ingolf Harden          : AUTO-CI MPn and infrastructure 
   Benjamin Helmich-Paris : MC-RPA, TRAH-(SCF,CASSCF), AVAS, COSX integrals, SCF dyn. polar.
   Lee Huntington         : MR-EOM, pCC
   Robert Izsak           : Overlap fitted RIJCOSX, COSX-SCS-MP3, EOM
   Riya Kayal             : Wick's Theorem for AUTO-CI, AUTO-CI UHF-CCSDT
   Emily Kempfer          : AUTO-CI, RHF CISDT and CCSDT
   Christian Kollmar      : KDIIS, OOCD, Brueckner-CCSD(T), CCSD density, CASPT2, CASPT2-K, improved NEVPT2
   Axel Koslowski         : Symmetry handling
   Simone Kossmann        : Meta GGA functionals, TD-DFT gradient, OOMP2, (MP2 Hessian; deprecated post 5.0)
   Lucas Lang             : DCDCAS
   Marvin Lechner         : AUTO-CI (C++ implementation), FIC-MRCC
   Spencer Leger          : CASSCF response
   Dagmar Lenk            : GEPOL surface, SMD, ORCA-2-JSON
   Dimitrios Liakos       : Extrapolation schemes; Compound Job, initial MDCI parallelization
   Dimitrios Manganas     : Further ROCIS development; embedding schemes. LFT, Crystal Embedding
   Dimitrios Pantazis     : SARC Basis sets
   Anastasios Papadopoulos: AUTO-CI, single reference methods and gradients
   Taras Petrenko         : pre 6.0 DFT Hessian and TD-DFT gradient, (ASA, deprecated), ECA, 1-Electron XAS/XES, NRVS
   Peter Pinski           : DLPNO-MP2, DLPNO-MP2 Gradient
   Christoph Reimann      : Effective Core Potentials
   Marius Retegan         : Local ZFS, SOC
   Christoph Riplinger    : Optimizer, TS searches, QM/MM, DLPNO-CCSD(T), (RO)-DLPNO pert. Triples
   Michael Roemelt        : Original ROCIS implementation
   Masaaki Saitow         : Open-shell DLPNO-CCSD energy and density
   Barbara Sandhoefer     : DKH picture change effects
   Kantharuban Sivalingam : CASSCF convergence/infrastructure, NEVPT2 and variants, FIC-MRCI
   Bernardo de Souza      : ESD, SOC TD-DFT
   Georgi Stoychev        : AutoAux, RI-MP2 NMR, DLPNO-MP2 response, X2C
   Van Anh Tran           : RI-MP2 g-tensors
   Willem Van den Heuvel  : Paramagnetic NMR
   Zikuan Wang            : NOTCH, Electric field optimization 
   Frank Wennmohs         : Technical directorship and infrastructure
   Hang Xu                : AUTO-CI-Response properties 


 We gratefully acknowledge several colleagues who have allowed us to
 interface, adapt or use parts of their codes:
   Stefan Grimme, W. Hujo, H. Kruse, P. Pracht,  : VdW corrections, initial TS optimization,
                  C. Bannwarth, S. Ehlert,         DFT functionals, gCP, sTDA/sTD-DF
                  L. Wittmann, M. Mueller
   Ed Valeev, F. Pavosevic, A. Kumar             : LibInt (2-el integral package), F12 methods
   Garnet Chan, S. Sharma, J. Yang, R. Olivares  : DMRG
   Ulf Ekstrom                                   : XCFun DFT Library
   Mihaly Kallay                                 : mrcc  (arbitrary order and MRCC methods)
   Frank Weinhold                                : gennbo (NPA and NBO analysis)
   Simon Mueller                                 : openCOSMO-RS
   Christopher J. Cramer and Donald G. Truhlar   : smd solvation model
   Lars Goerigk                                  : TD-DFT with DH, B97 family of functionals
   V. Asgeirsson, H. Jonsson                     : NEB implementation
   FAccTs GmbH                                   : IRC, NEB, NEB-TS, DLPNO-Multilevel, CI-OPT
                                                   MM, QMMM, 2- and 3-layer-ONIOM, Crystal-QMMM,
                                                   LR-CPCM, SF, NACMEs, symmetry and pop. for TD-DFT,
                                                   nearIR, NL-DFT gradient (VV10), updates on ESD,
                                                   ML-optimized integration grids, MBIS, APM,
                                                   GOAT, DOCKER, SOLVATOR, interface openCOSMO-RS
   S Lehtola, MJT Oliveira, MAL Marques          : LibXC Library
   Liviu Ungur et al                             : ANISO software


 Your calculation uses the libint2 library for the computation of 2-el integrals
 For citations please refer to: http://libint.valeyev.net

 Your ORCA version has been built with support for libXC version: 6.2.2
 For citations please refer to: https://libxc.gitlab.io

 This ORCA versions uses:
   CBLAS   interface :  Fast vector & matrix operations
   LAPACKE interface :  Fast linear algebra routines
   SCALAPACK package :  Parallel linear algebra routines
   Shared memory     :  Shared parallel matrices
   BLAS/LAPACK       :  OpenBLAS 0.3.27  USE64BITINT DYNAMIC_ARCH NO_AFFINITY Sandybridge SINGLE_THREADED
        Core in use  :  Sandybridge
   Copyright (c) 2011-2014, The OpenBLAS Project


NOTE: MaxCore=3000 MB was set to SCF,MP2,MDCI,CIPSI,MRCI and CIS
      => If you want to overwrite this, your respective input block should be placed after the MaxCore statement
Your calculation utilizes the atom-pairwise dispersion correction
with the Becke-Johnson damping scheme (D3BJ)


Your calculation utilizes the SMD solvation module
Please cite in your paper:
A.V. Marenich, C.J. Cramer, D.G. Truhlar J. Phys. Chem. B, 113, (2009), 6378 

Warning: RI is on but no J-basis has been assigned. Assigning Def2/J (nothing to worry about!)
================================================================================

----- Orbital basis set information -----
Your calculation utilizes the basis: aug-cc-pVTZ 
    H, B-Ne : Obtained from the ccRepo (grant-hill.group.shef.ac.uk/ccrepo) Feb. 2017
              R. A. Kendall, T. H. Dunning, Jr., R. J. Harrison, J. Chem. Phys. 96, 6796 (1992)
         He : Obtained from the ccRepo (grant-hill.group.shef.ac.uk/ccrepo) Feb. 2017
              D. E. Woon, T. H. Dunning, Jr., J. Chem. Phys. 100, 2975 (1994)
  Li-Be, Na : Obtained from the ccRepo (grant-hill.group.shef.ac.uk/ccrepo) Feb. 2017
              B. P. Prascher, D. E. Woon, K. A. Peterson, T. H. Dunning, Jr., A. K. Wilson, Theor. Chem. Acc. 128, 69 (2011)
         Mg : Obtained from the Peterson Research Group Website (tyr0.chem.wsu.edu/~kipeters) Feb. 2017
              B. P. Prascher, D. E. Woon, K. A. Peterson, T. H. Dunning, Jr., A. K. Wilson, Theor. Chem. Acc. 128, 69 (2011)
      Al-Ar : Obtained from the ccRepo (grant-hill.group.shef.ac.uk/ccrepo) Feb. 2017
              D. E. Woon, T. H. Dunning, Jr., J. Chem. Phys. 98, 1358 (1993)
      Sc-Zn : Obtained from the ccRepo (grant-hill.group.shef.ac.uk/ccrepo) Feb. 2017
              N. B. Balabanov, K. A. Peterson, J. Chem. Phys. 123, 064107 (2005)
              N. B. Balabanov, K. A. Peterson, J. Chem. Phys. 125, 074110 (2006)
      Ga-Kr : Obtained from the ccRepo (grant-hill.group.shef.ac.uk/ccrepo) Feb. 2017
              A. K. Wilson, D. E. Woon, K. A. Peterson, T. H. Dunning, Jr., J. Chem. Phys. 110, 7667 (1999)
     Ag, Au : Obtained from the Peterson Research Group Website (tyr0.chem.wsu.edu/~kipeters) Feb. 2017
              K. A. Peterson, C. Puzzarini, Theor. Chem. Acc. 114, 283 (2005)

----- AuxJ basis set information -----
Your calculation utilizes the auxiliary basis: def2/J
   F. Weigend, Phys. Chem. Chem. Phys. 8, 1057 (2006).

================================================================================
                                        WARNINGS
                       Please study these warnings very carefully!
================================================================================

Using LibXC functional ID 497 : Re-regularized SCAN exchange by Furness et al
[ 1]  J. W. Furness, A. D. Kaplan, J. Ning, J. P. Perdew, and J. Sun.,  J. Phys. Chem. Lett. 11, 8208-8215 (2020)
[ 2]  J. W. Furness, A. D. Kaplan, J. Ning, J. P. Perdew, and J. Sun.,  J. Phys. Chem. Lett. 11, 9248-9248 (2020)
Using LibXC functional ID 498 : Re-regularized SCAN correlation by Furness et al
[ 1]  J. W. Furness, A. D. Kaplan, J. Ning, J. P. Perdew, and J. Sun.,  J. Phys. Chem. Lett. 11, 8208-8215 (2020)
[ 2]  J. W. Furness, A. D. Kaplan, J. Ning, J. P. Perdew, and J. Sun.,  J. Phys. Chem. Lett. 11, 9248-9248 (2020)
Using LibXC functional ID 497 : Re-regularized SCAN exchange by Furness et al
[ 1]  J. W. Furness, A. D. Kaplan, J. Ning, J. P. Perdew, and J. Sun.,  J. Phys. Chem. Lett. 11, 8208-8215 (2020)
[ 2]  J. W. Furness, A. D. Kaplan, J. Ning, J. P. Perdew, and J. Sun.,  J. Phys. Chem. Lett. 11, 9248-9248 (2020)
Using LibXC functional ID 498 : Re-regularized SCAN correlation by Furness et al
[ 1]  J. W. Furness, A. D. Kaplan, J. Ning, J. P. Perdew, and J. Sun.,  J. Phys. Chem. Lett. 11, 8208-8215 (2020)
[ 2]  J. W. Furness, A. D. Kaplan, J. Ning, J. P. Perdew, and J. Sun.,  J. Phys. Chem. Lett. 11, 9248-9248 (2020)

================================================================================
                                       INPUT FILE
================================================================================
NAME = cs_rporg_004_red_solv_04.inp
|  1> !r2SCANh aug-cc-pVTZ d3 TightSCF SlowConv RIJCOSX defgrid2
|  2>  
|  3> %pal
|  4> nprocs 4
|  5> end
|  6>  
|  7> %scf
|  8> MaxIter 1500
|  9> end
| 10>  
| 11> %maxcore 3000
| 12>  
| 13> !CPCM
| 14> %cpcm smd true
| 15> SMDsolvent "MeCN"
| 16> surfacetype gepol_ses
| 17> rsolv 2.19
| 18> end 
| 19>  
| 20> * xyz 0 1
| 21> C          -1.05292788857862     -0.90195039312492     -0.00079244620406
| 22> C           0.25383306266426     -1.38568004993578     -0.00080152214741
| 23> C           0.54028267273191     -2.86138571234637      0.00203288995712
| 24> H          -0.38883857252285     -3.45325509542062     -0.03604059678385
| 25> H           1.09291811063176     -3.16010644297053      0.91112317693211
| 26> H           1.16170282070714     -3.15090864321875     -0.86421399390079
| 27> C           1.30789207458922     -0.46067464080260     -0.00180567347016
| 28> C           1.07324062808844      0.91294695875315     -0.00214657152903
| 29> C           2.20817617786651      1.89865124490654      0.00209849597546
| 30> H           3.18449974454796      1.39049576009947     -0.05807100437114
| 31> H           2.13663406413115      2.59705801641470     -0.85077030664783
| 32> H           2.20331535520643      2.51020555090965      0.92262417706601
| 33> C          -0.25483018407266      1.36349671392215     -0.00225647131416
| 34> C          -1.32705255805093      0.47346516287692     -0.00103317270303
| 35> C          -2.74855528335392      0.96238121268857      0.00245367553351
| 36> H          -3.31064008145775      0.56663508720282     -0.86228812948984
| 37> H          -2.79782100162226      2.06283177128710     -0.03746981852679
| 38> H          -3.28188878628492      0.63396678514828      0.91282151769573
| 39> H          -0.45362964993404      2.44124989130836     -0.00465260761200
| 40> H           2.34086357869234     -0.82683387520777     -0.00378196652349
| 41> H          -1.88684908397918     -1.61312760249038     -0.00182455193637
| 42> *
| 43> 
| 44>                          ****END OF INPUT****
================================================================================

                       ****************************
                       * Single Point Calculation *
                       ****************************

---------------------------------
CARTESIAN COORDINATES (ANGSTROEM)
---------------------------------
  C     -1.052928   -0.901950   -0.000792
  C      0.253833   -1.385680   -0.000802
  C      0.540283   -2.861386    0.002033
  H     -0.388839   -3.453255   -0.036041
  H      1.092918   -3.160106    0.911123
  H      1.161703   -3.150909   -0.864214
  C      1.307892   -0.460675   -0.001806
  C      1.073241    0.912947   -0.002147
  C      2.208176    1.898651    0.002098
  H      3.184500    1.390496   -0.058071
  H      2.136634    2.597058   -0.850770
  H      2.203315    2.510206    0.922624
  C     -0.254830    1.363497   -0.002256
  C     -1.327053    0.473465   -0.001033
  C     -2.748555    0.962381    0.002454
  H     -3.310640    0.566635   -0.862288
  H     -2.797821    2.062832   -0.037470
  H     -3.281889    0.633967    0.912822
  H     -0.453630    2.441250   -0.004653
  H      2.340864   -0.826834   -0.003782
  H     -1.886849   -1.613128   -0.001825

----------------------------
CARTESIAN COORDINATES (A.U.)
----------------------------
  NO LB      ZA    FRAG     MASS         X           Y           Z
   0 C     6.0000    0    12.011   -1.989745   -1.704439   -0.001498
   1 C     6.0000    0    12.011    0.479675   -2.618556   -0.001515
   2 C     6.0000    0    12.011    1.020986   -5.407235    0.003842
   3 H     1.0000    0     1.008   -0.734798   -6.525706   -0.068107
   4 H     1.0000    0     1.008    2.065316   -5.971736    1.721773
   5 H     1.0000    0     1.008    2.195300   -5.954354   -1.633128
   6 C     6.0000    0    12.011    2.471558   -0.870549   -0.003412
   7 C     6.0000    0    12.011    2.028131    1.725220   -0.004056
   8 C     6.0000    0    12.011    4.172848    3.587931    0.003966
   9 H     1.0000    0     1.008    6.017832    2.627656   -0.109738
  10 H     1.0000    0     1.008    4.037653    4.907728   -1.607723
  11 H     1.0000    0     1.008    4.163663    4.743601    1.743507
  12 C     6.0000    0    12.011   -0.481559    2.576635   -0.004264
  13 C     6.0000    0    12.011   -2.507766    0.894719   -0.001952
  14 C     6.0000    0    12.011   -5.194017    1.818637    0.004637
  15 H     1.0000    0     1.008   -6.256203    1.070785   -1.629488
  16 H     1.0000    0     1.008   -5.287115    3.898187   -0.070808
  17 H     1.0000    0     1.008   -6.201871    1.198024    1.724983
  18 H     1.0000    0     1.008   -0.857236    4.613294   -0.008792
  19 H     1.0000    0     1.008    4.423591   -1.562490   -0.007147
  20 H     1.0000    0     1.008   -3.565628   -3.048369   -0.003448

--------------------------------
INTERNAL COORDINATES (ANGSTROEM)
--------------------------------
 C      0   0   0     0.000000000000     0.00000000     0.00000000
 C      1   0   0     1.393419737428     0.00000000     0.00000000
 C      2   1   0     1.503252678385   121.29829746     0.00000000
 H      3   2   1     1.102281835738   111.49536041     2.23615236
 H      3   2   1     1.105027217764   111.23683528   241.93764598
 H      3   2   1     1.104703666874   111.28401011   122.68448056
 C      2   1   3     1.402382407144   118.41766311   180.08021379
 C      7   2   1     1.393519901660   121.57497748     0.03053703
 C      8   7   2     1.503233069916   121.28041279   179.76262258
 H      9   8   7     1.102293097306   111.48602960     3.54155458
 H      9   8   7     1.104660801791   111.31499747   124.03043091
 H      9   8   7     1.105165067461   111.21584426   243.29046880
 C      8   7   2     1.402414766064   118.43365580   359.96294314
 C     13   8   7     1.393491470220   121.56498421     0.04828250
 C     14  13   8     1.503236860883   121.32430255   179.83886157
 H     15  14  13     1.104686700133   111.27356585   122.78247145
 H     15  14  13     1.102276021827   111.52357043     2.30578942
 H     15  14  13     1.105020483796   111.20166350   241.99930959
 H     13   8   7     1.095937443681   119.19065811   180.12747767
 H      7   2   1     1.095950098756   119.21298585   180.11720967
 H      1   2   3     1.095992084142   119.22880378   359.81130475

---------------------------
INTERNAL COORDINATES (A.U.)
---------------------------
 C      0   0   0     0.000000000000     0.00000000     0.00000000
 C      1   0   0     2.633181693339     0.00000000     0.00000000
 C      2   1   0     2.840735872231   121.29829746     0.00000000
 H      3   2   1     2.083010791940   111.49536041     2.23615236
 H      3   2   1     2.088198812103   111.23683528   241.93764598
 H      3   2   1     2.087587389530   111.28401011   122.68448056
 C      2   1   3     2.650118684531   118.41766311   180.08021379
 C      7   2   1     2.633370976306   121.57497748     0.03053703
 C      8   7   2     2.840698817595   121.28041279   179.76262258
 H      9   8   7     2.083032073221   111.48602960     3.54155458
 H      9   8   7     2.087506386263   111.31499747   124.03043091
 H      9   8   7     2.088459310277   111.21584426   243.29046880
 C      8   7   2     2.650179834029   118.43365580   359.96294314
 C     13   8   7     2.633317248671   121.56498421     0.04828250
 C     14  13   8     2.840705981485   121.32430255   179.83886157
 H     15  14  13     2.087555327037   111.27356585   122.78247145
 H     15  14  13     2.082999805241   111.52357043     2.30578942
 H     15  14  13     2.088186086747   111.20166350   241.99930959
 H     13   8   7     2.071021628467   119.19065811   180.12747767
 H      7   2   1     2.071045543093   119.21298585   180.11720967
 H      1   2   3     2.071124883973   119.22880378   359.81130475

---------------------
BASIS SET INFORMATION
---------------------
There are 2 groups of distinct atoms

 Group   1 Type C   : 19s6p3d2f contracted to 5s4p3d2f pattern {88111/3111/111/11}
 Group   2 Type H   : 6s3p2d contracted to 4s3p2d pattern {3111/111/11}

Atom   0C    basis set group =>   1
Atom   1C    basis set group =>   1
Atom   2C    basis set group =>   1
Atom   3H    basis set group =>   2
Atom   4H    basis set group =>   2
Atom   5H    basis set group =>   2
Atom   6C    basis set group =>   1
Atom   7C    basis set group =>   1
Atom   8C    basis set group =>   1
Atom   9H    basis set group =>   2
Atom  10H    basis set group =>   2
Atom  11H    basis set group =>   2
Atom  12C    basis set group =>   1
Atom  13C    basis set group =>   1
Atom  14C    basis set group =>   1
Atom  15H    basis set group =>   2
Atom  16H    basis set group =>   2
Atom  17H    basis set group =>   2
Atom  18H    basis set group =>   2
Atom  19H    basis set group =>   2
Atom  20H    basis set group =>   2
---------------------------------
AUXILIARY/J BASIS SET INFORMATION
---------------------------------
There are 2 groups of distinct atoms

 Group   1 Type C   : 12s5p4d2f1g contracted to 6s4p3d1f1g pattern {711111/2111/211/2/1}
 Group   2 Type H   : 5s2p1d contracted to 3s1p1d pattern {311/2/1}

Atom   0C    basis set group =>   1
Atom   1C    basis set group =>   1
Atom   2C    basis set group =>   1
Atom   3H    basis set group =>   2
Atom   4H    basis set group =>   2
Atom   5H    basis set group =>   2
Atom   6C    basis set group =>   1
Atom   7C    basis set group =>   1
Atom   8C    basis set group =>   1
Atom   9H    basis set group =>   2
Atom  10H    basis set group =>   2
Atom  11H    basis set group =>   2
Atom  12C    basis set group =>   1
Atom  13C    basis set group =>   1
Atom  14C    basis set group =>   1
Atom  15H    basis set group =>   2
Atom  16H    basis set group =>   2
Atom  17H    basis set group =>   2
Atom  18H    basis set group =>   2
Atom  19H    basis set group =>   2
Atom  20H    basis set group =>   2


           ************************************************************
           *        Program running with 4 parallel MPI-processes     *
           *              working on a common directory               *
           ************************************************************
------------------------------------------------------------------------------
                             ORCA STARTUP CALCULATIONS
                           -- RI-GTO INTEGRALS CHOSEN --
------------------------------------------------------------------------------
------------------------------------------------------------------------------
                   ___                                                        
                  /   \      - P O W E R E D   B Y -                         
                 /     \                                                     
                 |  |  |   _    _      __       _____    __    __             
                 |  |  |  | |  | |    /  \     |  _  \  |  |  /  |          
                  \  \/   | |  | |   /    \    | | | |  |  | /  /          
                 / \  \   | |__| |  /  /\  \   | |_| |  |  |/  /          
                |  |  |   |  __  | /  /__\  \  |    /   |      \           
                |  |  |   | |  | | |   __   |  |    \   |  |\   \          
                \     /   | |  | | |  |  |  |  | |\  \  |  | \   \       
                 \___/    |_|  |_| |__|  |__|  |_| \__\ |__|  \__/        
                                                                              
                      - O R C A' S   B I G   F R I E N D -                    
                                      &                                       
                       - I N T E G R A L  F E E D E R -                       
                                                                              
 v1 FN, 2020, v2 2021, v3 2022-2024                                           
------------------------------------------------------------------------------


----------------------
SHARK INTEGRAL PACKAGE
----------------------

Number of atoms                             ...     21
Number of basis functions                   ...    744
Number of shells                            ...    288
Maximum angular momentum                    ...      3
Integral batch strategy                     ... SHARK/LIBINT Hybrid
RI-J (if used) integral strategy            ... SPLIT-RIJ (Revised 2003 algorithm where possible)
Printlevel                                  ...      1
Contraction scheme used                     ... PARTIAL GENERAL contraction
Prescreening option                         ... SCHWARTZ
   Thresh                                   ... 2.500e-11
   Tcut                                     ... 2.500e-12
   Tpresel                                  ... 2.500e-12 
Coulomb Range Separation                    ... NOT USED
Exchange Range Separation                   ... NOT USED
Multipole approximations                    ... NOT USED
Finite Nucleus Model                        ... NOT USED
CABS basis                                  ... NOT available
Auxiliary Coulomb fitting basis             ... AVAILABLE
   # of basis functions in Aux-J            ...    573
   # of shells in Aux-J                     ...    195
   Maximum angular momentum in Aux-J        ...      4
Auxiliary J/K fitting basis                 ... NOT available
Auxiliary Correlation fitting basis         ... NOT available
Auxiliary 'external' fitting basis          ... NOT available

Checking pre-screening integrals            ... done (  0.0 sec) Dimension = 288
Save PGC pre-screening integrals            ... done (  0.0 sec) Dimension = 288
Calculate PGC overlap integrals             ... done (  0.1 sec) Dimension = 234
Calculating pre-screening integrals (ORCA)  ... done (  0.3 sec) Dimension = 234
Check shell pair data                       ... done (  0.0 sec)
Shell pair information
Shell pair cut-off parameter TPreSel        ...   2.5e-12
Total number of shell pairs                 ...     41616
Shell pairs after pre-screening             ...     35404
Total number of primitive shell pairs       ...     54678
Primitive shell pairs kept                  ...     42832
          la=0 lb=0:   8019 shell pairs
          la=1 lb=0:   9117 shell pairs
          la=1 lb=1:   2434 shell pairs
          la=2 lb=0:   6467 shell pairs
          la=2 lb=1:   3390 shell pairs
          la=2 lb=2:   1240 shell pairs
          la=3 lb=0:   2433 shell pairs
          la=3 lb=1:   1251 shell pairs
          la=3 lb=2:    882 shell pairs
          la=3 lb=3:    171 shell pairs

Calculating one electron integrals          ... done (  0.1 sec)
Calculating RI/J V-Matrix + Cholesky decomp.... done (  0.1 sec)
Calculating Nuclear repulsion               ... done (  0.0 sec) ENN=    418.776455245418 Eh

Diagonalization of the overlap matrix:
Smallest eigenvalue                        ... 4.332e-07
Time for diagonalization                   ...    0.146 sec
Threshold for overlap eigenvalues          ... 1.000e-07
Number of eigenvalues below threshold      ... 0

IMPORTANT:
Smallest eigenvalue of S below the DiffSThresh (1.000e-06) while
Thresh>1e-12 and/or TCut>1e-13! In order to avoid SCF convergence issues,
Thresh will be set to at least 1e-12 and TCut to at least 1e-13.
This can be turned off by adding %SCF DiffSThresh -1 END to the input.

Time for construction of square roots      ...    0.111 sec
Total time needed                          ...    0.297 sec

-------------------
DFT GRID GENERATION
-------------------

General Integration Accuracy     IntAcc      ... 4.388
Radial Grid Type                 RadialGrid  ... OptM3 with GC (2021)
Angular Grid (max. ang.)         AngularGrid ... 4 (Lebedev-302)
Angular grid pruning method      GridPruning ... 4 (adaptive)
Weight generation scheme         WeightScheme... mBecke (2022)
Basis function cutoff            BFCut       ... 1.0000e-11
Integration weight cutoff        WCut        ... 1.0000e-14
Partially contracted basis set               ... off
Rotationally invariant grid construction     ... off
Angular grids for H and He will be reduced by one unit
Diffuse basis detected: some atoms will have their outermost
                        angular grid increased by 1.

Total number of grid points                  ...    97035
Total number of batches                      ...     1526
Average number of points per batch           ...       63
Average number of grid points per atom       ...     4621

---------------------
SHARK GRID GENERATION
---------------------

General Integration Accuracy     IntAcc      ... 4.388
Radial Grid Type                 RadialGrid  ... OptM3 with GC (2021)
Angular Grid (max. ang.)         AngularGrid ... 4 (Lebedev-302)
Angular grid pruning method      GridPruning ... 4 (adaptive)
Weight generation scheme         WeightScheme... mBecke (2022)
Basis function cutoff            BFCut       ... 1.0000e-11
Integration weight cutoff        WCut        ... 1.0000e-14
Partially contracted basis set               ... off
Rotationally invariant grid construction     ... off
Angular grids for H and He will be reduced by one unit
Diffuse basis detected: some atoms will have their outermost
                        angular grid increased by 1.
Steep s-basis detected: some atoms will have their radial
                        grid points doubled.

Total number of grid points                  ...   153531
Total number of batches                      ...     2410
Average number of points per batch           ...       63
Average number of grid points per atom       ...     7311

--------------------
COSX GRID GENERATION
--------------------

GRIDX 1
-------
General Integration Accuracy     IntAcc      ... 3.816
Radial Grid Type                 RadialGrid  ... OptM3 with GC (2021)
Angular Grid (max. ang.)         AngularGrid ... 1 (Lebedev-50)
Angular grid pruning method      GridPruning ... 4 (adaptive)
Weight generation scheme         WeightScheme... mBecke (2022)
Basis function cutoff            BFCut       ... 1.0000e-11
Integration weight cutoff        WCut        ... 1.0000e-14
Partially contracted basis set               ... on
Rotationally invariant grid construction     ... off
Angular grids for H and He will be reduced by one unit
Diffuse basis detected: some atoms will have their outermost
                        angular grid increased by 1.

Total number of grid points                  ...    12158
Total number of batches                      ...      108
Average number of points per batch           ...      112
Average number of grid points per atom       ...      579
UseSFitting                                  ... on

GRIDX 2
-------
General Integration Accuracy     IntAcc      ... 4.020
Radial Grid Type                 RadialGrid  ... OptM3 with GC (2021)
Angular Grid (max. ang.)         AngularGrid ... 2 (Lebedev-110)
Angular grid pruning method      GridPruning ... 4 (adaptive)
Weight generation scheme         WeightScheme... mBecke (2022)
Basis function cutoff            BFCut       ... 1.0000e-11
Integration weight cutoff        WCut        ... 1.0000e-14
Partially contracted basis set               ... on
Rotationally invariant grid construction     ... off
Angular grids for H and He will be reduced by one unit
Diffuse basis detected: some atoms will have their outermost
                        angular grid increased by 1.

Total number of grid points                  ...    28696
Total number of batches                      ...      236
Average number of points per batch           ...      121
Average number of grid points per atom       ...     1366
UseSFitting                                  ... on

GRIDX 3
-------
General Integration Accuracy     IntAcc      ... 4.338
Radial Grid Type                 RadialGrid  ... OptM3 with GC (2021)
Angular Grid (max. ang.)         AngularGrid ... 3 (Lebedev-194)
Angular grid pruning method      GridPruning ... 4 (adaptive)
Weight generation scheme         WeightScheme... mBecke (2022)
Basis function cutoff            BFCut       ... 1.0000e-11
Integration weight cutoff        WCut        ... 1.0000e-14
Partially contracted basis set               ... on
Rotationally invariant grid construction     ... off
Angular grids for H and He will be reduced by one unit
Diffuse basis detected: some atoms will have their outermost
                        angular grid increased by 1.

Total number of grid points                  ...    64145
Total number of batches                      ...      512
Average number of points per batch           ...      125
Average number of grid points per atom       ...     3055
UseSFitting                                  ... on
Initializing property integral containers    ... done (  0.0 sec)

SHARK setup successfully completed in  10.6 seconds

Maximum memory used throughout the entire STARTUP-calculation: 81.8 MB


           ************************************************************
           *        Program running with 4 parallel MPI-processes     *
           *              working on a common directory               *
           ************************************************************
-------------------------------------------------------------------------------
                                 ORCA GUESS
                   Start orbitals & Density for SCF / CASSCF
-------------------------------------------------------------------------------

------------
SCF SETTINGS
------------
Hamiltonian:
 Density Functional     Method          .... DFT(GTOs)
  Functional kind                       .... Exchange
  Functional name                       .... Re-regularized SCAN exchange by Furness et al
  Functional family                     .... MGGA
  Functional refs                              
    [ 0] J. W. Furness, A. D. Kaplan, J. Ning, J. P. Perdew, and J. Sun.,  J. Phys. Chem. Lett. 11, 8208-8215 (2020), doi: 10.1021/acs.jpclett.0c02405
    [ 1] J. W. Furness, A. D. Kaplan, J. Ning, J. P. Perdew, and J. Sun.,  J. Phys. Chem. Lett. 11, 9248-9248 (2020), doi: 10.1021/acs.jpclett.0c03077
  Functional external parameters        .... 6
    Parameter  0 _c1        =  6.670000e-01 : c1 parameter        
    Parameter  1 _c2        =  8.000000e-01 : c2 parameter        
    Parameter  2 _d         =  1.240000e+00 : d parameter         
    Parameter  3 _k1        =  6.500000e-02 : k1 parameter        
    Parameter  4 _eta       =  1.000000e-03 : eta parameter       
    Parameter  5 _dp2       =  3.610000e-01 : dp2 parameter       
  Functional kind                       .... Correlation
  Functional name                       .... Re-regularized SCAN correlation by Furness et al
  Functional family                     .... MGGA
  Functional refs                              
    [ 0] J. W. Furness, A. D. Kaplan, J. Ning, J. P. Perdew, and J. Sun.,  J. Phys. Chem. Lett. 11, 8208-8215 (2020), doi: 10.1021/acs.jpclett.0c02405
    [ 1] J. W. Furness, A. D. Kaplan, J. Ning, J. P. Perdew, and J. Sun.,  J. Phys. Chem. Lett. 11, 9248-9248 (2020), doi: 10.1021/acs.jpclett.0c03077
  Functional external parameters        .... 1
    Parameter  0 _eta       =  1.000000e-03 : Regularization parameter
 Gradients option       PostSCFGGA      .... off
 Hybrid DFT is turned on
   Fraction HF Exchange ScalHFX         ....  0.100000
   Scaling of DF-GGA-X  ScalDFX         ....  0.900000
   Scaling of DF-GGA-C  ScalDFC         ....  1.000000
   Scaling of DF-LDA-C  ScalLDAC        ....  1.000000
   Perturbative correction              ....  0.000000
   NL short-range parameter             .... 11.900000
 RI-approximation to the Coulomb term is turned on
   Number of AuxJ basis functions       .... 573
   RIJ-COSX (HFX calculated with COS-X)).... on


General Settings:
 Integral files         IntName         .... cs_rporg_004_red_solv_04
 Hartree-Fock type      HFTyp           .... RHF
 Total Charge           Charge          ....    0
 Multiplicity           Mult            ....    1
 Number of Electrons    NEL             ....   66
 Basis Dimension        Dim             ....  690
 Nuclear Repulsion      ENuc            ....    418.7764552454 Eh

Convergence Acceleration:
 AO-DIIS                CNVDIIS         .... on
   Start iteration      DIISMaxIt       ....     0
   Startup error        DIISStart       ....  0.200000
   # of expansion vecs  DIISMaxEq       ....     5
   Bias factor          DIISBfac        ....   1.050
   Max. coefficient     DIISMaxC        ....  10.000
 MO-DIIS                CNVKDIIS        .... off
 Trust-Rad. Augm. Hess. CNVTRAH         .... auto
   Auto Start mean grad. ratio tolernc. ....  1.125000
   Auto Start start iteration           ....    50
   Auto Start num. interpolation iter.  ....    10
   Max. Number of Micro iterations      ....    24
   Max. Number of Macro iterations      .... Maxiter - #DIIS iter
   Number of Davidson start vectors     ....     2
   Converg. threshold    (grad. norm)   ....   1.000e-05
   Grad. Scal. Fac. for Micro threshold ....   0.100
   Minimum threshold for Micro iter.    ....   1.000e-02
   NR start threshold (gradient norm)   ....   1.000e-04
   Initial trust radius                 ....   0.400
   Minimum AH scaling param. (alpha)    ....   1.000
   Maximum AH scaling param. (alpha)    .... 1000.000
   Quad. conv. algorithm                .... NR
   White noise on init. David. guess    .... on
   Maximum white noise                  ....   0.010
   Pseudo random numbers                .... off
   Inactive MOs                         .... canonical
   Orbital update algorithm             .... Taylor
   Preconditioner                       .... Diag
   Full preconditioner red. dimension   ....   250
 SOSCF                  CNVSOSCF        .... on
   Start iteration      SOSCFMaxIt      ....   150
   Startup grad/error   SOSCFStart      ....  0.001000
   Hessian update       SOSCFHessUp     .... L-BFGS
 Level Shifting         CNVShift        .... on
   Level shift para.    LevelShift      ....    0.2500
   Turn off err/grad.   ShiftErr        ....    0.0000
 Zerner damping         CNVZerner       .... off
 Static damping         CNVDamp         .... on
   Fraction old density DampFac         ....    0.8500
   Max. Damping (<1)    DampMax         ....    0.9800
   Min. Damping (>=0)   DampMin         ....    0.0000
   Turn off err/grad.   DampErr         ....    0.0300

SCF Procedure:
 Maximum # iterations   MaxIter         ....  1500
 SCF integral mode      SCFMode         .... Direct
   Integral package                     .... SHARK and LIBINT hybrid scheme
 Reset frequency        DirectResetFreq ....    20
 Integral Threshold     Thresh          ....  1.000e-12 Eh
 Primitive CutOff       TCut            ....  1.000e-13 Eh

Convergence Tolerance:
 Convergence Check Mode ConvCheckMode   .... Total+1el-Energy
 Convergence forced     ConvForced      .... 0
 Energy Change          TolE            ....  1.000e-08 Eh
 1-El. energy change                    ....  1.000e-05 Eh
 Orbital Gradient       TolG            ....  1.000e-05
 Orbital Rotation angle TolX            ....  1.000e-05
 DIIS Error             TolErr          ....  5.000e-07

------------------------------
INITIAL GUESS: MODEL POTENTIAL
------------------------------
Loading Hartree-Fock densities                     ... done
Calculating cut-offs                               ... done
Initializing the effective Hamiltonian             ... done
Setting up the integral package (SHARK)            ... done
Starting the Coulomb interaction                   ... done (   0.8 sec)
Making the grid                                    ... done (   0.5 sec)
Mapping shells                                     ... done
Starting the XC term evaluation                    ... done (   1.0 sec)
  promolecular density results
     # of electrons  =     65.994737098
     EX              =    -49.542681463
     EC              =     -2.154748858
     EX+EC           =    -51.697430320
Transforming the Hamiltonian                       ... done (   0.1 sec)
Diagonalizing the Hamiltonian                      ... done (   0.2 sec)
Back transforming the eigenvectors                 ... done (   0.1 sec)
Now organizing SCF variables                       ... done
                      ------------------
                      INITIAL GUESS DONE (   2.8 sec)
                      ------------------
             **** ENERGY FILE WAS UPDATED (cs_rporg_004_red_solv_04.en.tmp) ****
Finished Guess after   3.6 sec
Maximum memory used throughout the entire GUESS-calculation: 63.0 MB


           ************************************************************
           *        Program running with 4 parallel MPI-processes     *
           *              working on a common directory               *
           ************************************************************

-------------------------------------------------------------------------------------------
                                      ORCA LEAN-SCF
                              memory conserving SCF solver
-------------------------------------------------------------------------------------------

--------------------
CPCM SOLVATION MODEL
--------------------
CPCM parameters:
  Epsilon                                         ...      35.6880
  Refrac                                          ...       1.3442
  Rsolv                                           ...       2.1900
  Surface type                                    ...    GEPOL SES
  Discretization scheme                           ... Constant num. charges
  Epsilon function type                           ...         CPCM
Solvent:                                          ... ACETONITRILE
SMD-CDS solvent descriptors:
  Soln                                            ...       1.3442
  Soln25                                          ...       1.3416
  Sola                                            ...       0.0700
  Solb                                            ...       0.3200
  Solg                                            ...      41.2500
  Solc                                            ...       0.0000
  Solh                                            ...       0.0000
Radii:
  Scheme                                          ... Element-dependent radii
  Radius for C  used is    3.4960 Bohr (=   1.8500 Ang.)
  Radius for H  used is    2.2677 Bohr (=   1.2000 Ang.)
Calculating surface                               ...        done! (  0.0s)
Cavity surface points                             ...          790
Cavity Volume                                     ...    1024.4263
Cavity Surface-area                               ...     605.9174
Calculating surface distance matrix               ...        done! (  0.0s)
Performing Cholesky decomposition & store         ...        done! (  0.0s)
Overall time for CPCM initialization              ...                 0.1s

----------------------------------------D-I-I-S--------------------------------------------
Iteration    Energy (Eh)           Delta-E    RMSDP     MaxDP     DIISErr   Damp  Time(sec)
-------------------------------------------------------------------------------------------
               ***  Starting incremental Fock matrix formation  ***
    1    -349.8510949653171451     0.00e+00  1.09e-03  9.38e-02  1.88e-01  0.850  32.0
    2    -349.9112556358515462    -6.02e-02  9.96e-04  7.68e-02  1.45e-01  0.850  19.6
                               ***Turning on AO-DIIS***
    3    -349.9538419012398549    -4.26e-02  7.80e-04  5.42e-02  1.04e-01  0.850  19.6
    4    -349.9823691457075370    -2.85e-02  6.49e-04  4.45e-02  8.26e-02  0.850  19.1
    5    -350.0032286351869857    -2.09e-02  5.51e-04  3.76e-02  6.85e-02  0.850  18.8
    6    -350.0195155439066070    -1.63e-02  4.69e-04  3.19e-02  5.77e-02  0.850  18.9
    7    -350.0326972802833438    -1.32e-02  4.00e-04  2.69e-02  4.87e-02  0.850  18.8
    8    -350.0435106968239438    -1.08e-02  3.40e-04  2.28e-02  4.09e-02  0.850  18.5
    9    -350.0524121873556282    -8.90e-03  2.89e-04  1.93e-02  3.43e-02  0.850  18.8
   10    -350.0597605176828324    -7.35e-03  2.45e-04  1.64e-02  2.88e-02  0.850  18.4
   11    -350.0658492682657084    -6.09e-03  1.38e-03  9.29e-02  2.42e-02  0.000  18.2
   12    -350.0978619132031895    -3.20e-02  3.11e-05  1.56e-03  1.71e-03  0.000  19.3
                              *** Initializing SOSCF ***
---------------------------------------S-O-S-C-F--------------------------------------
Iteration    Energy (Eh)           Delta-E    RMSDP     MaxDP     MaxGrad    Time(sec)
--------------------------------------------------------------------------------------
   13    -350.0978830510659350    -2.11e-05  1.14e-05  9.86e-04  2.30e-04    17.7
               *** Restarting incremental Fock matrix formation ***
   14    -350.0978895109363407    -6.46e-06  8.99e-05  7.10e-03  3.13e-05    31.9
   15    -350.0978895755493454    -6.46e-08  1.20e-05  9.09e-04  2.25e-05    26.3
   16    -350.0978896388518820    -6.33e-08  1.16e-05  9.29e-04  2.26e-06    24.1
                  *** Gradient check signals convergence ***

               *****************************************************
               *                     SUCCESS                       *
               *           SCF CONVERGED AFTER  16 CYCLES          *
               *****************************************************

Recomputing exchange energy using gridx3       ... done (   41.546 sec)
Old exchange energy                            :     -5.091274908 Eh
New exchange energy                            :     -5.091273921 Eh
Exchange energy change after final integration :      0.000000987 Eh
Total energy after final integration           :   -350.097888652 Eh

SMD CDS free energy correction energy :                -2.25897     Kcal/mol
Total Energy after SMD CDS correction =              -350.101488548 Eh
             **** ENERGY FILE WAS UPDATED (cs_rporg_004_red_solv_04.en.tmp) ****

----------------
TOTAL SCF ENERGY
----------------

Total Energy       :       -350.10148854838553 Eh           -9526.74583 eV

Components:
Nuclear Repulsion  :        418.77645524541816 Eh           11395.48668 eV
Electronic Energy  :       -768.86652577218183 Eh          -20921.92182 eV
One Electron Energy:      -1300.95649284614365 Eh          -35400.82591 eV
Two Electron Energy:        532.08996707396182 Eh           14478.90410 eV
CPCM Dielectric    :         -0.00781911208823 Eh              -0.21277 eV
SMD CDS (Gcds)     :         -0.00359989683285 Eh              -0.09796 eV

Virial components:
Potential Energy   :       -697.96586255054842 Eh          -18992.61669 eV
Kinetic Energy     :        347.86437400216289 Eh            9465.87085 eV
Virial Ratio       :          2.00643099642681

DFT components:
N(Alpha)           :       32.999963028547 electrons
N(Beta)            :       32.999963028547 electrons
N(Total)           :       65.999926057094 electrons
E(X)               :      -45.946401424537 Eh       
E(C)               :       -2.081007436432 Eh       
E(XC)              :      -48.027408860969 Eh       

CPCM Solvation Model Properties:
Surface-charge          :         -0.05021320257188
Corrected charge        :          0.00000000000000
Outlying charge corr.   :          0.00018048716855 Eh               0.00491 eV
Free-energy (cav+disp)  :         -0.00359989683285 Eh              -0.09796 eV

---------------
SCF CONVERGENCE
---------------

  Last Energy change         ...    6.3303e-08  Tolerance :   1.0000e-08
  Last MAX-Density change    ...    9.2864e-04  Tolerance :   1.0000e-07
  Last RMS-Density change    ...    1.1568e-05  Tolerance :   5.0000e-09
  Last DIIS Error            ...    2.2960e-04  Tolerance :   5.0000e-07
  Last Orbital Gradient      ...    2.2554e-06  Tolerance :   1.0000e-05
  Last Orbital Rotation      ...    5.9702e-06  Tolerance :   1.0000e-05


----------------
ORBITAL ENERGIES
----------------

  NO   OCC          E(Eh)            E(eV) 
   0   2.0000     -10.166311      -276.6394 
   1   2.0000     -10.166295      -276.6390 
   2   2.0000     -10.166290      -276.6388 
   3   2.0000     -10.147340      -276.1232 
   4   2.0000     -10.147330      -276.1229 
   5   2.0000     -10.147310      -276.1223 
   6   2.0000     -10.145481      -276.0726 
   7   2.0000     -10.145479      -276.0725 
   8   2.0000     -10.145469      -276.0722 
   9   2.0000      -0.859960       -23.4007 
  10   2.0000      -0.776540       -21.1307 
  11   2.0000      -0.776535       -21.1306 
  12   2.0000      -0.690400       -18.7867 
  13   2.0000      -0.670354       -18.2413 
  14   2.0000      -0.670298       -18.2397 
  15   2.0000      -0.561755       -15.2861 
  16   2.0000      -0.561745       -15.2859 
  17   2.0000      -0.481846       -13.1117 
  18   2.0000      -0.464378       -12.6364 
  19   2.0000      -0.417498       -11.3607 
  20   2.0000      -0.415220       -11.2987 
  21   2.0000      -0.395792       -10.7701 
  22   2.0000      -0.395775       -10.7696 
  23   2.0000      -0.387605       -10.5473 
  24   2.0000      -0.387565       -10.5462 
  25   2.0000      -0.374768       -10.1979 
  26   2.0000      -0.374728       -10.1969 
  27   2.0000      -0.344055        -9.3622 
  28   2.0000      -0.325028        -8.8445 
  29   2.0000      -0.317157        -8.6303 
  30   2.0000      -0.317141        -8.6299 
  31   2.0000      -0.232950        -6.3389 
  32   2.0000      -0.232908        -6.3377 
  33   0.0000      -0.018673        -0.5081 
  34   0.0000      -0.018619        -0.5066 
  35   0.0000       0.010256         0.2791 
  36   0.0000       0.025214         0.6861 
  37   0.0000       0.025226         0.6864 
  38   0.0000       0.031878         0.8675 
  39   0.0000       0.042183         1.1479 
  40   0.0000       0.042192         1.1481 
  41   0.0000       0.046849         1.2748 
  42   0.0000       0.055416         1.5079 
  43   0.0000       0.055430         1.5083 
*Only the first 10 virtual orbitals were printed.

                    ********************************
                    * MULLIKEN POPULATION ANALYSIS *
                    ********************************

-----------------------
MULLIKEN ATOMIC CHARGES
-----------------------
   0 C :   -1.136340
   1 C :    1.456638
   2 C :   -0.759086
   3 H :    0.182233
   4 H :    0.212389
   5 H :    0.198461
   6 C :   -1.159996
   7 C :    1.456555
   8 C :   -0.763034
   9 H :    0.182193
  10 H :    0.197492
  11 H :    0.214996
  12 C :   -1.153955
  13 C :    1.455169
  14 C :   -0.756811
  15 H :    0.198803
  16 H :    0.180108
  17 H :    0.210691
  18 H :   -0.130980
  19 H :   -0.146412
  20 H :   -0.139114
Sum of atomic charges:    0.0000000

--------------------------------
MULLIKEN REDUCED ORBITAL CHARGES
--------------------------------
  0 C s       :     4.320155  s :     4.320155
      pz      :     1.086169  p :     2.851222
      px      :     0.897230
      py      :     0.867823
      dz2     :    -0.013707  d :    -0.017245
      dxz     :     0.027450
      dyz     :     0.015896
      dx2y2   :    -0.068729
      dxy     :     0.021845
      f0      :     0.001182  f :    -0.017793
      f+1     :     0.000717
      f-1     :     0.000995
      f+2     :    -0.001329
      f-2     :    -0.001417
      f+3     :    -0.015374
      f-3     :    -0.002567

  1 C s       :     2.794871  s :     2.794871
      pz      :     0.870639  p :     1.693137
      px      :     0.458549
      py      :     0.363949
      dz2     :    -0.009844  d :     0.145531
      dxz     :     0.004562
      dyz     :    -0.028074
      dx2y2   :     0.033135
      dxy     :     0.145752
      f0      :    -0.001568  f :    -0.090177
      f+1     :    -0.001086
      f-1     :    -0.002468
      f+2     :    -0.000689
      f-2     :    -0.003388
      f+3     :    -0.054180
      f-3     :    -0.026797

  2 C s       :     3.608573  s :     3.608573
      pz      :     1.133016  p :     3.108135
      px      :     1.142632
      py      :     0.832487
      dz2     :     0.012545  d :     0.032912
      dxz     :     0.026836
      dyz     :     0.005681
      dx2y2   :    -0.008006
      dxy     :    -0.004144
      f0      :     0.002929  f :     0.009466
      f+1     :     0.002161
      f-1     :    -0.000900
      f+2     :     0.001825
      f-2     :    -0.000037
      f+3     :     0.001840
      f-3     :     0.001648

  3 H s       :     0.768377  s :     0.768377
      pz      :     0.016768  p :     0.040365
      px      :     0.009361
      py      :     0.014237
      dz2     :     0.000293  d :     0.009026
      dxz     :     0.003039
      dyz     :     0.000852
      dx2y2   :     0.004054
      dxy     :     0.000788

  4 H s       :     0.731453  s :     0.731453
      pz      :     0.012333  p :     0.048418
      px      :     0.018412
      py      :     0.017673
      dz2     :     0.002431  d :     0.007741
      dxz     :     0.000424
      dyz     :     0.002172
      dx2y2   :     0.001097
      dxy     :     0.001617

  5 H s       :     0.744378  s :     0.744378
      pz      :     0.012247  p :     0.049261
      px      :     0.017898
      py      :     0.019115
      dz2     :     0.002898  d :     0.007900
      dxz     :    -0.000108
      dyz     :     0.001899
      dx2y2   :     0.001195
      dxy     :     0.002017

  6 C s       :     4.328899  s :     4.328899
      pz      :     1.086711  p :     2.858317
      px      :     0.990021
      py      :     0.781585
      dz2     :    -0.013818  d :    -0.009391
      dxz     :     0.026847
      dyz     :     0.015425
      dx2y2   :    -0.038264
      dxy     :     0.000418
      f0      :     0.001197  f :    -0.017829
      f+1     :     0.000611
      f-1     :     0.001140
      f+2     :    -0.001180
      f-2     :    -0.001575
      f+3     :    -0.015376
      f-3     :    -0.002645

  7 C s       :     2.790838  s :     2.790838
      pz      :     0.870930  p :     1.697226
      px      :     0.529107
      py      :     0.297189
      dz2     :    -0.009839  d :     0.145432
      dxz     :    -0.017617
      dyz     :    -0.006603
      dx2y2   :     0.145190
      dxy     :     0.034301
      f0      :    -0.001566  f :    -0.090052
      f+1     :    -0.002053
      f-1     :    -0.001452
      f+2     :    -0.002458
      f-2     :    -0.001591
      f+3     :    -0.054127
      f-3     :    -0.026805

  8 C s       :     3.612053  s :     3.612053
      pz      :     1.132070  p :     3.107624
      px      :     0.954963
      py      :     1.020591
      dz2     :     0.012898  d :     0.033851
      dxz     :     0.003582
      dyz     :     0.029048
      dx2y2   :    -0.010838
      dxy     :    -0.000839
      f0      :     0.002964  f :     0.009507
      f+1     :    -0.000651
      f-1     :     0.001888
      f+2     :     0.000250
      f-2     :     0.001561
      f+3     :     0.001816
      f-3     :     0.001678

  9 H s       :     0.768833  s :     0.768833
      pz      :     0.016636  p :     0.040007
      px      :     0.020929
      py      :     0.002442
      dz2     :     0.000312  d :     0.008967
      dxz     :     0.002300
      dyz     :     0.001528
      dx2y2   :     0.003877
      dxy     :     0.000950

 10 H s       :     0.745810  s :     0.745810
      pz      :     0.011921  p :     0.048795
      px      :     0.017019
      py      :     0.019855
      dz2     :     0.002961  d :     0.007903
      dxz     :     0.001655
      dyz     :    -0.000036
      dx2y2   :     0.000444
      dxy     :     0.002878

 11 H s       :     0.729039  s :     0.729039
      pz      :     0.012339  p :     0.048227
      px      :     0.015963
      py      :     0.019925
      dz2     :     0.002308  d :     0.007738
      dxz     :     0.002252
      dyz     :     0.000591
      dx2y2   :     0.000137
      dxy     :     0.002450

 12 C s       :     4.334203  s :     4.334203
      pz      :     1.086872  p :     2.847867
      px      :     0.754268
      py      :     1.006726
      dz2     :    -0.014015  d :    -0.010223
      dxz     :     0.009919
      dyz     :     0.032641
      dx2y2   :     0.047446
      dxy     :    -0.086213
      f0      :     0.001198  f :    -0.017892
      f+1     :     0.001285
      f-1     :     0.000448
      f+2     :    -0.001645
      f-2     :    -0.001111
      f+3     :    -0.015551
      f-3     :    -0.002516

 13 C s       :     2.796845  s :     2.796845
      pz      :     0.870838  p :     1.688963
      px      :     0.235482
      py      :     0.582643
      dz2     :    -0.009877  d :     0.149154
      dxz     :    -0.021856
      dyz     :    -0.000956
      dx2y2   :     0.093176
      dxy     :     0.088666
      f0      :    -0.001564  f :    -0.090131
      f+1     :    -0.002184
      f-1     :    -0.001383
      f+2     :    -0.002964
      f-2     :    -0.001101
      f+3     :    -0.054181
      f-3     :    -0.026753

 14 C s       :     3.608483  s :     3.608483
      pz      :     1.132034  p :     3.105539
      px      :     0.865285
      py      :     1.108220
      dz2     :     0.012713  d :     0.033335
      dxz     :     0.018771
      dyz     :     0.014012
      dx2y2   :     0.001163
      dxy     :    -0.013324
      f0      :     0.002932  f :     0.009454
      f+1     :     0.000350
      f-1     :     0.000905
      f+2     :     0.000602
      f-2     :     0.001184
      f+3     :     0.001814
      f-3     :     0.001668

 15 H s       :     0.744583  s :     0.744583
      pz      :     0.012095  p :     0.048774
      px      :     0.020451
      py      :     0.016228
      dz2     :     0.002858  d :     0.007840
      dxz     :     0.001033
      dyz     :     0.000741
      dx2y2   :     0.003228
      dxy     :    -0.000019

 16 H s       :     0.770002  s :     0.770002
      pz      :     0.016741  p :     0.040867
      px      :     0.004959
      py      :     0.019167
      dz2     :     0.000295  d :     0.009022
      dxz     :     0.000454
      dyz     :     0.003432
      dx2y2   :    -0.000660
      dxy     :     0.005502

 17 H s       :     0.733086  s :     0.733086
      pz      :     0.012411  p :     0.048499
      px      :     0.019566
      py      :     0.016522
      dz2     :     0.002416  d :     0.007725
      dxz     :     0.001311
      dyz     :     0.001303
      dx2y2   :     0.002763
      dxy     :    -0.000068

 18 H s       :     1.034383  s :     1.034383
      pz      :     0.034020  p :     0.091087
      px      :     0.020583
      py      :     0.036484
      dz2     :    -0.000140  d :     0.005509
      dxz     :    -0.000066
      dyz     :     0.004958
      dx2y2   :     0.001170
      dxy     :    -0.000412

 19 H s       :     1.046314  s :     1.046314
      pz      :     0.033955  p :     0.094605
      px      :     0.037837
      py      :     0.022813
      dz2     :    -0.000136  d :     0.005493
      dxz     :     0.004570
      dyz     :     0.000313
      dx2y2   :    -0.000057
      dxy     :     0.000803

 20 H s       :     1.040428  s :     1.040428
      pz      :     0.033880  p :     0.093081
      px      :     0.029593
      py      :     0.029608
      dz2     :    -0.000124  d :     0.005604
      dxz     :     0.002833
      dyz     :     0.002068
      dx2y2   :     0.000084
      dxy     :     0.000743



                     *******************************
                     * LOEWDIN POPULATION ANALYSIS *
                     *******************************

----------------------
LOEWDIN ATOMIC CHARGES
----------------------
   0 C :    0.216823
   1 C :   -0.145127
   2 C :    0.574097
   3 H :   -0.170617
   4 H :   -0.155210
   5 H :   -0.156582
   6 C :    0.216815
   7 C :   -0.145125
   8 C :    0.574001
   9 H :   -0.170626
  10 H :   -0.156871
  11 H :   -0.154874
  12 C :    0.216891
  13 C :   -0.145129
  14 C :    0.574064
  15 H :   -0.156626
  16 H :   -0.170522
  17 H :   -0.155222
  18 H :   -0.163408
  19 H :   -0.163401
  20 H :   -0.163350

-------------------------------
LOEWDIN REDUCED ORBITAL CHARGES
-------------------------------
  0 C s       :     2.473887  s :     2.473887
      pz      :     0.618068  p :     2.276016
      px      :     0.827357
      py      :     0.830591
      dz2     :     0.067956  d :     0.692806
      dxz     :     0.075620
      dyz     :     0.088313
      dx2y2   :     0.193382
      dxy     :     0.267536
      f0      :     0.019807  f :     0.340467
      f+1     :     0.024763
      f-1     :     0.026609
      f+2     :     0.058117
      f-2     :     0.017343
      f+3     :     0.111199
      f-3     :     0.082629

  1 C s       :     2.463438  s :     2.463438
      pz      :     0.588579  p :     2.237733
      px      :     0.854266
      py      :     0.794887
      dz2     :     0.082436  d :     0.943232
      dxz     :     0.137506
      dyz     :     0.145580
      dx2y2   :     0.302686
      dxy     :     0.275025
      f0      :     0.032964  f :     0.500725
      f+1     :     0.032277
      f-1     :     0.029392
      f+2     :     0.051979
      f-2     :     0.073408
      f+3     :     0.177617
      f-3     :     0.103087

  2 C s       :     2.452762  s :     2.452762
      pz      :     0.772061  p :     2.283872
      px      :     0.770575
      py      :     0.741236
      dz2     :     0.078633  d :     0.504931
      dxz     :     0.078350
      dyz     :     0.102264
      dx2y2   :     0.092573
      dxy     :     0.153111
      f0      :     0.015549  f :     0.184338
      f+1     :     0.018405
      f-1     :     0.023607
      f+2     :     0.028182
      f-2     :     0.012378
      f+3     :     0.043303
      f-3     :     0.042913

  3 H s       :     0.622312  s :     0.622312
      pz      :     0.088287  p :     0.318795
      px      :     0.135792
      py      :     0.094716
      dz2     :     0.016866  d :     0.229510
      dxz     :     0.072537
      dyz     :     0.014789
      dx2y2   :     0.077611
      dxy     :     0.047707

  4 H s       :     0.622687  s :     0.622687
      pz      :     0.129102  p :     0.310902
      px      :     0.101142
      py      :     0.080658
      dz2     :     0.075020  d :     0.221622
      dxz     :     0.050975
      dyz     :     0.040835
      dx2y2   :     0.029967
      dxy     :     0.024825

  5 H s       :     0.622754  s :     0.622754
      pz      :     0.125551  p :     0.311734
      px      :     0.105394
      py      :     0.080789
      dz2     :     0.076477  d :     0.222094
      dxz     :     0.045446
      dyz     :     0.036947
      dx2y2   :     0.033830
      dxy     :     0.029394

  6 C s       :     2.473905  s :     2.473905
      pz      :     0.618095  p :     2.276065
      px      :     0.815156
      py      :     0.842814
      dz2     :     0.067941  d :     0.692781
      dxz     :     0.049031
      dyz     :     0.114895
      dx2y2   :     0.237279
      dxy     :     0.223636
      f0      :     0.019803  f :     0.340433
      f+1     :     0.021220
      f-1     :     0.030145
      f+2     :     0.033761
      f-2     :     0.041698
      f+3     :     0.111202
      f-3     :     0.082605

  7 C s       :     2.463435  s :     2.463435
      pz      :     0.588586  p :     2.237694
      px      :     0.817676
      py      :     0.831431
      dz2     :     0.082454  d :     0.943246
      dxz     :     0.130349
      dyz     :     0.152719
      dx2y2   :     0.265425
      dxy     :     0.312300
      f0      :     0.032956  f :     0.500750
      f+1     :     0.032217
      f-1     :     0.029476
      f+2     :     0.063101
      f-2     :     0.062273
      f+3     :     0.177588
      f-3     :     0.103140

  8 C s       :     2.452750  s :     2.452750
      pz      :     0.772050  p :     2.283895
      px      :     0.753409
      py      :     0.758436
      dz2     :     0.078721  d :     0.504999
      dxz     :     0.044958
      dyz     :     0.135569
      dx2y2   :     0.132799
      dxy     :     0.112951
      f0      :     0.015728  f :     0.184355
      f+1     :     0.017217
      f-1     :     0.024539
      f+2     :     0.015940
      f-2     :     0.024713
      f+3     :     0.043361
      f-3     :     0.042857

  9 H s       :     0.622310  s :     0.622310
      pz      :     0.088409  p :     0.318809
      px      :     0.125191
      py      :     0.105209
      dz2     :     0.017255  d :     0.229506
      dxz     :     0.052728
      dyz     :     0.034308
      dx2y2   :     0.061881
      dxy     :     0.063334

 10 H s       :     0.622731  s :     0.622731
      pz      :     0.124460  p :     0.311923
      px      :     0.082757
      py      :     0.104707
      dz2     :     0.076655  d :     0.222218
      dxz     :     0.034773
      dyz     :     0.045101
      dx2y2   :     0.019181
      dxy     :     0.046507

 11 H s       :     0.622703  s :     0.622703
      pz      :     0.130077  p :     0.310686
      px      :     0.081469
      py      :     0.099140
      dz2     :     0.074407  d :     0.221486
      dxz     :     0.043079
      dyz     :     0.051583
      dx2y2   :     0.013750
      dxy     :     0.038667

 12 C s       :     2.473941  s :     2.473941
      pz      :     0.618097  p :     2.276114
      px      :     0.844450
      py      :     0.813567
      dz2     :     0.067950  d :     0.692658
      dxz     :     0.121197
      dyz     :     0.042660
      dx2y2   :     0.260738
      dxy     :     0.200113
      f0      :     0.019800  f :     0.340396
      f+1     :     0.031070
      f-1     :     0.020297
      f+2     :     0.021293
      f-2     :     0.054151
      f+3     :     0.111185
      f-3     :     0.082599

 13 C s       :     2.463442  s :     2.463442
      pz      :     0.588597  p :     2.237710
      px      :     0.801773
      py      :     0.847339
      dz2     :     0.082435  d :     0.943262
      dxz     :     0.156958
      dyz     :     0.126155
      dx2y2   :     0.298470
      dxy     :     0.279244
      f0      :     0.032959  f :     0.500716
      f+1     :     0.028011
      f-1     :     0.033659
      f+2     :     0.073052
      f-2     :     0.052347
      f+3     :     0.177520
      f-3     :     0.103168

 14 C s       :     2.452741  s :     2.452741
      pz      :     0.772037  p :     2.283861
      px      :     0.743689
      py      :     0.768134
      dz2     :     0.078664  d :     0.504985
      dxz     :     0.147970
      dyz     :     0.032616
      dx2y2   :     0.143220
      dxy     :     0.102516
      f0      :     0.015563  f :     0.184349
      f+1     :     0.027311
      f-1     :     0.014678
      f+2     :     0.016730
      f-2     :     0.023847
      f+3     :     0.043265
      f-3     :     0.042955

 15 H s       :     0.622725  s :     0.622725
      pz      :     0.125424  p :     0.311775
      px      :     0.091427
      py      :     0.094925
      dz2     :     0.076508  d :     0.222126
      dxz     :     0.041782
      dyz     :     0.040326
      dx2y2   :     0.043074
      dxy     :     0.020436

 16 H s       :     0.622404  s :     0.622404
      pz      :     0.088289  p :     0.318708
      px      :     0.084630
      py      :     0.145790
      dz2     :     0.016880  d :     0.229410
      dxz     :     0.005524
      dyz     :     0.081754
      dx2y2   :     0.048416
      dxy     :     0.076836

 17 H s       :     0.622648  s :     0.622648
      pz      :     0.129212  p :     0.310923
      px      :     0.089846
      py      :     0.091865
      dz2     :     0.074973  d :     0.221652
      dxz     :     0.045335
      dyz     :     0.046790
      dx2y2   :     0.037422
      dxy     :     0.017132

 18 H s       :     0.640939  s :     0.640939
      pz      :     0.081820  p :     0.302917
      px      :     0.084804
      py      :     0.136293
      dz2     :     0.024103  d :     0.219552
      dxz     :     0.005037
      dyz     :     0.059899
      dx2y2   :     0.054683
      dxy     :     0.075831

 19 H s       :     0.640905  s :     0.640905
      pz      :     0.081818  p :     0.302935
      px      :     0.133311
      py      :     0.087806
      dz2     :     0.024105  d :     0.219561
      dxz     :     0.054583
      dyz     :     0.010355
      dx2y2   :     0.061038
      dxy     :     0.069480

 20 H s       :     0.640831  s :     0.640831
      pz      :     0.081807  p :     0.302946
      px      :     0.113554
      py      :     0.107585
      dz2     :     0.024109  d :     0.219573
      dxz     :     0.037800
      dyz     :     0.027137
      dx2y2   :     0.080020
      dxy     :     0.050508



                      *****************************
                      * MAYER POPULATION ANALYSIS *
                      *****************************

  NA   - Mulliken gross atomic population
  ZA   - Total nuclear charge
  QA   - Mulliken gross atomic charge
  VA   - Mayer's total valence
  BVA  - Mayer's bonded valence
  FA   - Mayer's free valence

  ATOM       NA         ZA         QA         VA         BVA        FA
  0 C      7.1363     6.0000    -1.1363     2.1010     2.1010     0.0000
  1 C      4.5434     6.0000     1.4566     0.7610     0.7610    -0.0000
  2 C      6.7591     6.0000    -0.7591     3.4662     3.4662     0.0000
  3 H      0.8178     1.0000     0.1822     1.0137     1.0137     0.0000
  4 H      0.7876     1.0000     0.2124     0.9797     0.9797     0.0000
  5 H      0.8015     1.0000     0.1985     0.9942     0.9942     0.0000
  6 C      7.1600     6.0000    -1.1600     2.1043     2.1043     0.0000
  7 C      4.5434     6.0000     1.4566     0.7678     0.7678     0.0000
  8 C      6.7630     6.0000    -0.7630     3.4608     3.4608     0.0000
  9 H      0.8178     1.0000     0.1822     1.0134     1.0134     0.0000
 10 H      0.8025     1.0000     0.1975     0.9950     0.9950     0.0000
 11 H      0.7850     1.0000     0.2150     0.9766     0.9766     0.0000
 12 C      7.1540     6.0000    -1.1540     2.0546     2.0546    -0.0000
 13 C      4.5448     6.0000     1.4552     0.7612     0.7612    -0.0000
 14 C      6.7568     6.0000    -0.7568     3.4647     3.4647     0.0000
 15 H      0.8012     1.0000     0.1988     0.9933     0.9933     0.0000
 16 H      0.8199     1.0000     0.1801     1.0161     1.0161     0.0000
 17 H      0.7893     1.0000     0.2107     0.9811     0.9811     0.0000
 18 H      1.1310     1.0000    -0.1310     1.3685     1.3685     0.0000
 19 H      1.1464     1.0000    -0.1464     1.3808     1.3808     0.0000
 20 H      1.1391     1.0000    -0.1391     1.3720     1.3720     0.0000

  Mayer bond orders larger than 0.100000
B(  0-C ,  1-C ) :   0.3399 B(  0-C ,  7-C ) :  -0.3147 B(  0-C , 13-C ) :   0.1148 
B(  0-C , 14-C ) :   0.2563 B(  0-C , 18-H ) :   0.1644 B(  0-C , 20-H ) :   1.6374 
B(  1-C ,  2-C ) :   0.1152 B(  1-C ,  7-C ) :   0.5716 B(  1-C , 12-C ) :  -0.3282 
B(  1-C , 13-C ) :   0.5619 B(  1-C , 18-H ) :  -0.1175 B(  1-C , 19-H ) :  -0.2324 
B(  1-C , 20-H ) :  -0.2113 B(  2-C ,  3-H ) :   1.0141 B(  2-C ,  4-H ) :   1.0262 
B(  2-C ,  5-H ) :   1.0433 B(  2-C ,  6-C ) :   0.2583 B(  6-C ,  7-C ) :   0.3430 
B(  6-C , 13-C ) :  -0.3249 B(  6-C , 19-H ) :   1.6609 B(  6-C , 20-H ) :   0.1625 
B(  7-C ,  8-C ) :   0.1032 B(  7-C , 13-C ) :   0.5610 B(  7-C , 18-H ) :  -0.2203 
B(  7-C , 19-H ) :  -0.2186 B(  7-C , 20-H ) :  -0.1122 B(  8-C ,  9-H ) :   1.0153 
B(  8-C , 10-H ) :   1.0446 B(  8-C , 11-H ) :   1.0250 B(  8-C , 12-C ) :   0.2538 
B( 12-C , 13-C ) :   0.3197 B( 12-C , 18-H ) :   1.6359 B( 12-C , 19-H ) :   0.1694 
B( 13-C , 14-C ) :   0.1098 B( 13-C , 18-H ) :  -0.2114 B( 13-C , 19-H ) :  -0.1215 
B( 13-C , 20-H ) :  -0.2188 B( 14-C , 15-H ) :   1.0430 B( 14-C , 16-H ) :   1.0167 
B( 14-C , 17-H ) :   1.0283 

-------
TIMINGS
-------

Total SCF time: 0 days 0 hours 6 min 23 sec 

Total time                  ....     383.250 sec
Sum of individual times     ....     382.933 sec  ( 99.9%)

SCF preparation             ....       0.940 sec  (  0.2%)
Fock matrix formation       ....     369.802 sec  ( 96.5%)
  Startup                   ....       0.538 sec  (  0.1% of F)
  Split-RI-J                ....      19.334 sec  (  5.2% of F)
  Chain of spheres X        ....     207.657 sec  ( 56.2% of F)
  XC integration            ....     129.400 sec  ( 35.0% of F)
    XC Preparation          ....       0.000 sec  (  0.0% of XC)
    Basis function eval.    ....       9.445 sec  (  7.3% of XC)
    Density eval.           ....      48.707 sec  ( 37.6% of XC)
    XC-Functional eval.     ....       1.675 sec  (  1.3% of XC)
    XC-Potential eval.      ....      66.638 sec  ( 51.5% of XC)
  CPCM terms                ....      11.180 sec  (  3.0% of F)
Diagonalization             ....       0.000 sec  (  0.0%)
Density matrix formation    ....       1.339 sec  (  0.3%)
Total Energy calculation    ....       0.630 sec  (  0.2%)
Population analysis         ....       0.335 sec  (  0.1%)
Orbital Transformation      ....       0.899 sec  (  0.2%)
Orbital Orthonormalization  ....       0.000 sec  (  0.0%)
DIIS solution               ....       7.701 sec  (  2.0%)
SOSCF solution              ....       1.287 sec  (  0.3%)
Finished LeanSCF after 383.4 sec

Maximum memory used throughout the entire LEANSCF-calculation: 108.3 MB


-------------------------------------------------------------------------------
                          DFT DISPERSION CORRECTION                            
                                                                               
                              DFTD3 V3.1  Rev 1                                
                          USING Becke-Johnson damping                          
-------------------------------------------------------------------------------
The R2SCANh functional is recognized
Active option DFTDOPT                   ...         4   

molecular C6(AA) [au] = 4090.753579 


            DFT-D V3
 parameters
 s6 scaling factor         :     1.0000 
 a1 scaling factor         :     0.4709 
 s8 scaling factor         :     1.1236 
 a2 scaling factor         :     5.9157 
 ad hoc parameters k1-k3   :    16.0000     1.3333    -4.0000 

 Edisp/kcal,au: -4.072604185642  -0.006490107193 
 E6   /kcal   :  -2.958263254 
 E8   /kcal   :  -1.114340931 
 % E8         :  27.361876590 

-------------------------   ----------------
Dispersion correction           -0.006490107
-------------------------   ----------------


-------------------------   --------------------
FINAL SINGLE POINT ENERGY      -350.107978655578
-------------------------   --------------------



           ************************************************************
           *        Program running with 4 parallel MPI-processes     *
           *              working on a common directory               *
           ************************************************************

------------------------------------------------------------------------------
                              ORCA PROPERTY CALCULATIONS
------------------------------------------------------------------------------

GBWName                                 ... cs_rporg_004_red_solv_04.gbw
Number of atoms                         ...     21
Number of basis functions               ...    744
Max core memory                         ...   3000 MB

Electric properties:
Dipole moment                           ... YES
Quadrupole moment                       ...  NO
Static polarizability (Dipole/Dipole)   ...  NO
Static polarizability (Dipole/Quad.)    ...  NO
Static polarizability (Quad./Quad.)     ...  NO
Static polarizability (Velocity)        ...  NO

Atomic electric properties:
Dipole moment                           ...  NO
Quadrupole moment                       ...  NO
Static polarizability                   ...  NO

Choice of electric origin               ... Center of mass
Position of electric origin             ...     0.000015     0.000208     0.000010

General magnetic properties:
Magnetizability                         ...  NO

EPR properties:
g-Tensor (aka g-matrix)                 ...  NO
Zero-Field splitting spin-orbit         ...  NO
Zero-field splitting spin-spin          ...  NO
Hyperfine couplings                     ...  NO (   0 nuclei)
Quadrupole couplings                    ...  NO (   0 nuclei)
Contact density                         ...  NO (   0 nuclei)

NMR properties:
Chemical shifts                         ...  NO (   0 nuclei)
Spin-rotation constants                 ...  NO (   0 nuclei)
Spin-spin couplings                     ...  NO (   0 nuclei,    0 pairs)

Choice of magnetic origin               ... GIAO
Position of magnetic origin             ...     0.000000     0.000000     0.000000

Properties with geometric perturbations:
SCF Hessian                             ...  NO
IR spectrum                             ...  NO
VCD spectrum                            ...  NO
X-ray spectroscopy properties:
SCF XES/XAS/RIXS spectra                ...  NO


-------------
DIPOLE MOMENT
-------------

Method             : SCF
Type of density    : Electron Density
Multiplicity       :   1
Irrep              :   0
Energy             :  -350.1014885483855323 Eh
Relativity type    : 
Basis              : AO
                                X                 Y                 Z
Electronic contribution:     -0.000775641       0.002327914      -0.011390889
Nuclear contribution   :      0.000158820      -0.002916147       0.025698413
                        -----------------------------------------
Total Dipole Moment    :     -0.000616820      -0.000588233       0.014307523
                        -----------------------------------------
Magnitude (a.u.)       :      0.014332889
Magnitude (Debye)      :      0.036431309



--------------------
Rotational spectrum 
--------------------
 
Rotational constants in cm-1:             0.058235             0.058222             0.029602 
Rotational constants in MHz :          1745.843649          1745.444193           887.453553 

Dipole components along the rotational axes: 
x,y,z [a.u.] :    -0.000777     0.000356     0.014307 
x,y,z [Debye]:    -0.001975     0.000905     0.036366 

 

Dipole moment calculation done in   0.1 sec 

Maximum memory used throughout the entire PROP-calculation: 64.2 MB

--------------------------------
SUGGESTED CITATIONS FOR THIS RUN
--------------------------------

Below you find a list of papers that are relevant to this ORCA run
We neither can nor want to force you to cite these papers, but we appreciate if you do
You receive ORCA, which is the product of decades of hard work by many enthusiastic individuals, for free
The only thing we kindly ask in return is that you cite our papers,
We deeply appreciate it, if you show your appreciation for ORCA by not just citing the generic ORCA reference.

Please note that relegating all ORCA citations to the supporting information does *not* help us.
SI sections are not indexed - citations you put there will not count into any citation statistics
But we need these citations in order to attract the funding resources that allow us to do what we are doing

Therefore, if you are a happy ORCA user, please consider citing a few of the papers listed below in the main body of your paper

In addition to the list printed below, the program has created the file cs_rporg_004_red_solv_04.bibtex that contains the list in bibtex format
You can import this file easily into all common literature databanks and citation aid programs


List of essential papers. We consider these as the minimum necessary citations

  1. Neese,F.
     Software update: the ORCA program system, version 5.0
     WIRES Comput. Molec. Sci., 2022 12(1)e1606
     doi.org/10.1002/wcms.1606

List of papers to cite with high priority. The work reported in these papers was absolutely
necessary for this run to complete.
Our perspective: the developers of density functionals and basis sets usually get cited in chemistry papers
Good! But without the algorithms to do something with them, the functionals or basis sets would not do anything.
Hence, in our opinion, the algorithm design and method developments papers are equally worthy of getting cited

  1. Neese,F.
     An improvement of the resolution of the identity approximation for the formation of the Coulomb matrix
     J. Comp. Chem., 2003 24(14)1740-1747
     doi.org/10.1002/jcc.10318
  2. Neese,F.; Wennmohs,F.; Hansen,A.; Becker,U.
     Efficient, approximate and parallel Hartree-Fock and hybrid DFT calculations. A 'chain-of-spheres' algorithm for the Hartree-Fock exchange
     Chem. Phys., 2009 356(1-3)98-109
     doi.org/10.1016/j.chemphys.2008.10.036
  3. Garcia-Rates,M.; Neese,F.
     Effect of the Solute Cavity on the Solvation Energy and its Derivatives within the Framework of the Gaussian Charge Scheme
     J. Comput. Chem., 2020 41 922-939
     doi.org/10.1002/jcc.26139
  4. Helmich-Paris,B.; de Souza,B.; Neese,F.; Izsák,R.
     An improved chain of spheres for exchange algorithm
     J. Chem. Phys., 2021 155 104109
     doi.org/doi: 10.1063/5.0058766.
  5. Neese,F.
     The SHARK Integral Generation and Digestion System
     J. Comp. Chem., 2022  1-16
     doi.org/10.1002/jcc.26942
  6. Lehtola,S.; Steigemann,C.; Oliveira,M.; Marques,M.
     Recent developments in Libxc - A comprehensive library of functionals for density functional theory
     Software X, 2018 7 
     doi.org/10.1016/j.softx.2017.11.002
  7. Grimme,S.; Antony,J.; Ehrlich,S.; Krieg,H.
     A consistent and accurate ab initio parametrization of density functional dispersion correction (DFT-D) for the 94 elements H-Pu
     J. Chem. Phys., 2010 132 154104-XXXX
     doi.org/10.1063/1.3382344
  8. Grimme,S.; Ehrlich,S.; Goerigk,L.
     Effect of the damping function in dispersion corrected density functional theory
     J. Comput. Chem., 2011 32(7)1456-1465
     doi.org/10.1002/jcc.21759
  9. Bursch,M.; Neugebauer,H.; Ehlert,S.; Grimme,S.
     Dispersion corrected r2SCAN based global hybrid functionals: r2SCANh, r2SCAN0, and r2SCAN50
     J. Phys. Chem., 2022 156(13)134105
     doi.org/10.1063/5.0086040

List of suggested additional citations. These are papers that are important in the 'surrounding' of 
of this run, or papers that preceded the highly important papers. If you like your results we are grateful for a citation.

  1. Izsak,R.; Neese,F.
     An overlap fitted chain of spheres exchange method
     J. Chem. Phys., 2011 135 144105
     doi.org/10.1063/1.3646921
  2. Izsak,R.; Hansen,A.; Neese,F.
     The resolution of identity and chain of spheres approximations for the LPNO-CCSD singles Fock term
     Molec. Phys., 2012 110 2413-2417
     doi.org/10.1080/00268976.2012.687466
  3. Neese,F.
     The ORCA program system
     WIRES Comput. Molec. Sci., 2012 2(1)73-78
     doi.org/10.1002/wcms.81
  4. Izsak,R.; Neese,F.; Klopper,W.
     Robust fitting techniques in the chain of spheres approximation to the Fock exchange: The role of the complementary space
     J. Chem. Phys., 2013 139 
     doi.org/10.1063/1.4819264
  5. Neese,F.
     Software update: the ORCA program system, version 4.0
     WIRES Comput. Molec. Sci., 2018 8(1)1-6
     doi.org/10.1002/wcms.1327
  6. Neese,F.; Wennmohs,F.; Becker,U.; Riplinger,C.
     The ORCA quantum chemistry program package
     J. Chem. Phys., 2020 152 Art. No. L224108
     doi.org/10.1063/5.0004608
  7. Wittmann,L.; Neugebauer,H.; Grimme,S.; Bursch,M.
     Dispersion-corrected r2SCAN based double-hybrid functionals
     J. Chem. Phys., 2023 159(22)224103
     doi.org/10.1063/5.0174988

List of optional additional citations

  1. Neese,F.
     Approximate second-order SCF convergence for spin unrestricted wavefunctions
     Chem. Phys. Lett., 2000 325(1-3)93-98
     doi.org/10.1016/s0009-2614(00)00662-x

Timings for individual modules:

Sum of individual times          ...      405.337 sec (=   6.756 min)
Startup calculation              ...       13.885 sec (=   0.231 min)   3.4 %
SCF iterations                   ...      389.563 sec (=   6.493 min)  96.1 %
Property calculations            ...        1.889 sec (=   0.031 min)   0.5 %
                             ****ORCA TERMINATED NORMALLY****
TOTAL RUN TIME: 0 days 0 hours 6 minutes 48 seconds 378 msec
