 vasp.5.4.4.18Apr17-6-g9f103f2a35 (build Nov 09 2017 14:00:25) complex          
  
 executed on             LinuxIFC date 2024.09.27  06:36:20
 running on   48 total cores
 distrk:  each k-point on   48 cores,    1 groups
 distr:  one band on NCORES_PER_BAND=  24 cores,    2 groups


--------------------------------------------------------------------------------------------------------


 INCAR:
 POTCAR:    PAW_PBE C 08Apr2002                   
 POTCAR:    PAW_PBE H 15Jun2001                   

 ----------------------------------------------------------------------------- 
|                                                                             |
|           W    W    AA    RRRRR   N    N  II  N    N   GGGG   !!!           |
|           W    W   A  A   R    R  NN   N  II  NN   N  G    G  !!!           |
|           W    W  A    A  R    R  N N  N  II  N N  N  G       !!!           |
|           W WW W  AAAAAA  RRRRR   N  N N  II  N  N N  G  GGG   !            |
|           WW  WW  A    A  R   R   N   NN  II  N   NN  G    G                |
|           W    W  A    A  R    R  N    N  II  N    N   GGGG   !!!           |
|                                                                             |
|      For optimal performance we recommend to set                            |
|        NCORE= 4 - approx SQRT( number of cores)                             |
|      NCORE specifies how many cores store one orbital (NPAR=cpu/NCORE).     |
|      This setting can  greatly improve the performance of VASP for DFT.     |
|      The default,   NCORE=1            might be grossly inefficient         |
|      on modern multi-core architectures or massively parallel machines.     |
|      Do your own testing !!!!                                               |
|      Unfortunately you need to use the default for GW and RPA calculations. |
|      (for HF NCORE is supported but not extensively tested yet)             |
|                                                                             |
 ----------------------------------------------------------------------------- 

 POTCAR:    PAW_PBE C 08Apr2002                   
   VRHFIN =C: s2p2                                                              
   LEXCH  = PE                                                                  
   EATOM  =   147.1560 eV,   10.8157 Ry                                         
                                                                                
   TITEL  = PAW_PBE C 08Apr2002                                                 
   LULTRA =        F    use ultrasoft PP ?                                      
   IUNSCR =        1    unscreen: 0-lin 1-nonlin 2-no                           
   RPACOR =    1.200    partial core radius                                     
   POMASS =   12.011; ZVAL   =    4.000    mass and valenz                      
   RCORE  =    1.500    outmost cutoff radius                                   
   RWIGS  =    1.630; RWIGS  =    0.863    wigner-seitz radius (au A)           
   ENMAX  =  400.000; ENMIN  =  300.000 eV                                      
   ICORE  =        2    local potential                                         
   LCOR   =        T    correct aug charges                                     
   LPAW   =        T    paw PP                                                  
   EAUG   =  644.873                                                            
   DEXC   =    0.000                                                            
   RMAX   =    1.529    core radius for proj-oper                               
   RAUG   =    1.300    factor for augmentation sphere                          
   RDEP   =    1.501    radius for radial grids                                 
   RDEPT  =    1.300    core radius for aug-charge                              
                                                                                
   Atomic configuration                                                         
    4 entries                                                                   
     n  l   j            E        occ.                                          
     1  0  0.50      -273.3789   2.0000                                         
     2  0  0.50       -13.7508   2.0000                                         
     2  1  0.50        -5.2854   2.0000                                         
     3  2  1.50        -5.4423   0.0000                                         
   Description                                                                  
     l       E           TYP  RCUT    TYP  RCUT                                 
     0    -13.7508458     23  1.200                                             
     0     -8.2022199     23  1.200                                             
     1     -5.2854383     23  1.500                                             
     1     34.0145650     23  1.500                                             
     2     -5.4423304      7  1.500                                             
  local pseudopotential read in
  partial core-charges read in
  partial kinetic energy density read in
  atomic valenz-charges read in
  non local Contribution for L=           0  read in
    real space projection operators read in
  non local Contribution for L=           0  read in
    real space projection operators read in
  non local Contribution for L=           1  read in
    real space projection operators read in
  non local Contribution for L=           1  read in
    real space projection operators read in
    PAW grid and wavefunctions read in
 
   number of l-projection  operators is LMAX  =           4
   number of lm-projection operators is LMMAX =           8
 
 POTCAR:    PAW_PBE H 15Jun2001                   
   VRHFIN =H: ultrasoft test                                                    
   LEXCH  = PE                                                                  
   EATOM  =    12.4884 eV,    0.9179 Ry                                         
                                                                                
   TITEL  = PAW_PBE H 15Jun2001                                                 
   LULTRA =        F    use ultrasoft PP ?                                      
   IUNSCR =        0    unscreen: 0-lin 1-nonlin 2-no                           
   RPACOR =    0.000    partial core radius                                     
   POMASS =    1.000; ZVAL   =    1.000    mass and valenz                      
   RCORE  =    1.100    outmost cutoff radius                                   
   RWIGS  =    0.700; RWIGS  =    0.370    wigner-seitz radius (au A)           
   ENMAX  =  250.000; ENMIN  =  200.000 eV                                      
   RCLOC  =    0.701    cutoff for local pot                                    
   LCOR   =        T    correct aug charges                                     
   LPAW   =        T    paw PP                                                  
   EAUG   =  400.000                                                            
   RMAX   =    1.123    core radius for proj-oper                               
   RAUG   =    1.200    factor for augmentation sphere                          
   RDEP   =    1.112    radius for radial grids                                 
   RDEPT  =    0.926    core radius for aug-charge                              
                                                                                
   Atomic configuration                                                         
    2 entries                                                                   
     n  l   j            E        occ.                                          
     1  0  0.50        -6.4927   1.0000                                         
     2  1  0.50        -3.4015   0.0000                                         
   Description                                                                  
     l       E           TYP  RCUT    TYP  RCUT                                 
     0     -6.4927494     23  1.100                                             
     0      6.8029130     23  1.100                                             
     1     -4.0817478     23  1.100                                             
  local pseudopotential read in
  atomic valenz-charges read in
  non local Contribution for L=           0  read in
    real space projection operators read in
  non local Contribution for L=           0  read in
    real space projection operators read in
  non local Contribution for L=           1  read in
    real space projection operators read in
    PAW grid and wavefunctions read in
 
   number of l-projection  operators is LMAX  =           3
   number of lm-projection operators is LMMAX =           5
 
 Optimization of the real space projectors (new method)

 maximal supplied QI-value         = 25.13
 optimisation between [QCUT,QGAM] = [ 11.31, 22.87] = [ 35.82,146.48] Ry 
 Optimized for a Real-space Cutoff    1.03 Angstroem

   l    n(q)    QCUT    max X(q) W(low)/X(q) W(high)/X(q)  e(spline) 
   0      7    11.310   115.676    0.20E-03    0.90E-03    0.20E-06
   0      7    11.310    87.132    0.20E-03    0.89E-03    0.19E-06
   1      6    11.310     4.429    0.16E-03    0.28E-03    0.12E-06
   1      6    11.310     2.733    0.12E-03    0.21E-03    0.99E-07
 Optimization of the real space projectors (new method)

 maximal supplied QI-value         = 34.20
 optimisation between [QCUT,QGAM] = [ 11.29, 22.57] = [ 35.68,142.71] Ry 
 Optimized for a Real-space Cutoff    1.20 Angstroem

   l    n(q)    QCUT    max X(q) W(low)/X(q) W(high)/X(q)  e(spline) 
   0      8    11.287    19.460    0.22E-03    0.50E-03    0.19E-06
   0      8    11.287    12.209    0.21E-03    0.48E-03    0.18E-06
   1      8    11.287     4.655    0.21E-03    0.11E-04    0.26E-06
  PAW_PBE C 08Apr2002                   :
 energy of atom  1       EATOM= -147.1560
 kinetic energy error for atom=    0.0076 (will be added to EATOM!!)
  PAW_PBE H 15Jun2001                   :
 energy of atom  2       EATOM=  -12.4884
 kinetic energy error for atom=    0.0020 (will be added to EATOM!!)
 
 
 POSCAR: C H                                     
  positions in direct lattice
  velocities in cartesian coordinates
 exchange correlation table for  LEXCH =        8
   RHO(1)=    0.500       N(1)  =     2000
   RHO(2)=  100.500       N(2)  =     4000
 


--------------------------------------------------------------------------------------------------------


 ion  position               nearest neighbor table
   1  0.535  0.470  0.500-  14 1.09   6 1.40   2 1.40
   2  0.552  0.500  0.500-  13 1.09   3 1.40   1 1.40
   3  0.535  0.530  0.500-  12 1.09   4 1.40   2 1.40
   4  0.500  0.530  0.500-  11 1.09   3 1.40   5 1.41
   5  0.482  0.500  0.500-   4 1.41   6 1.41   7 1.43
   6  0.500  0.470  0.500-   9 1.09   1 1.40   5 1.41
   7  0.446  0.500  0.500-   8 1.22   5 1.43
   8  0.416  0.500  0.500-  10 1.07   7 1.22
   9  0.486  0.446  0.500-   6 1.09
  10  0.389  0.500  0.500-   8 1.07
  11  0.486  0.554  0.500-   4 1.09
  12  0.548  0.554  0.500-   3 1.09
  13  0.579  0.500  0.500-   2 1.09
  14  0.548  0.446  0.500-   1 1.09
 
  LATTYP: Found a simple cubic cell.
 ALAT       =    40.0000000000
  
  Lattice vectors:
  
 A1 = (  40.0000000000,   0.0000000000,   0.0000000000)
 A2 = (   0.0000000000,  40.0000000000,   0.0000000000)
 A3 = (   0.0000000000,   0.0000000000,  40.0000000000)


Analysis of symmetry for initial positions (statically):
=====================================================================
 Subroutine PRICEL returns:
 Original cell was already a primitive cell.
 

 Routine SETGRP: Setting up the symmetry group for a 
 simple cubic supercell.


 Subroutine GETGRP returns: Found  1 space group operations
 (whereof  1 operations were pure point group operations)
 out of a pool of 48 trial point group operations.


The static configuration has the point symmetry C_1 .


Analysis of symmetry for dynamics (positions and initial velocities):
=====================================================================
 Subroutine PRICEL returns:
 Original cell was already a primitive cell.
 

 Routine SETGRP: Setting up the symmetry group for a 
 simple cubic supercell.


 Subroutine GETGRP returns: Found  1 space group operations
 (whereof  1 operations were pure point group operations)
 out of a pool of 48 trial point group operations.


The dynamic configuration has the point symmetry C_1 .


Analysis of constrained symmetry for selective dynamics:
=====================================================================
 Subroutine PRICEL returns:
 Original cell was already a primitive cell.
 

 Routine SETGRP: Setting up the symmetry group for a 
 simple cubic supercell.


 Subroutine GETGRP returns: Found  1 space group operations
 (whereof  1 operations were pure point group operations)
 out of a pool of 48 trial point group operations.


The constrained configuration has the point symmetry C_1 .


Analysis of structural, dynamic, and magnetic symmetry:
=====================================================================
 Subroutine PRICEL returns:
 Original cell was already a primitive cell.
 

 Routine SETGRP: Setting up the symmetry group for a 
 simple cubic supercell.


 Subroutine GETGRP returns: Found  1 space group operations
 (whereof  1 operations were pure point group operations)
 out of a pool of 48 trial point group operations.


The magnetic configuration has the point symmetry C_1 .


 Subroutine INISYM returns: Found  1 space group operations
 (whereof  1 operations are pure point group operations),
 and found     1 'primitive' translations

 
 
 KPOINTS: K-Point Grid                            

Automatic generation of k-mesh.
Space group operators:
 irot       det(A)        alpha          n_x          n_y          n_z        tau_x        tau_y        tau_z
    1     1.000000     0.000000     1.000000     0.000000     0.000000     0.000000     0.000000     0.000000
 
 Subroutine IBZKPT returns following result:
 ===========================================
 
 Found      1 irreducible k-points:
 
 Following reciprocal coordinates:
            Coordinates               Weight
  0.000000  0.000000  0.000000      1.000000
 
 Following cartesian coordinates:
            Coordinates               Weight
  0.000000  0.000000  0.000000      1.000000
 


--------------------------------------------------------------------------------------------------------




 Dimension of arrays:
   k-points           NKPTS =      1   k-points in BZ     NKDIM =      1   number of bands    NBANDS=     34
   number of dos      NEDOS =    301   number of ions     NIONS =     14
   non local maximal  LDIM  =      4   non local SUM 2l+1 LMDIM =      8
   total plane-waves  NPLWV = ******
   max r-space proj   IRMAX =   2915   max aug-charges    IRDMAX=   4885
   dimension x,y,z NGX =   294 NGY =  294 NGZ =  294
   dimension x,y,z NGXF=   588 NGYF=  588 NGZF=  588
   support grid    NGXF=   588 NGYF=  588 NGZF=  588
   ions per type =               8   6
   NGX,Y,Z   is equivalent  to a cutoff of  12.22, 12.22, 12.22 a.u.
   NGXF,Y,Z  is equivalent  to a cutoff of  24.44, 24.44, 24.44 a.u.

 SYSTEM =  103_red                                 
 POSCAR =  C H                                     

 Startparameter for this run:
   NWRITE =      2    write-flag & timer
   PREC   = accura    normal or accurate (medium, high low for compatibility)
   ISTART =      0    job   : 0-new  1-cont  2-samecut
   ICHARG =      2    charge: 1-file 2-atom 10-const
   ISPIN  =      2    spin polarized calculation?
   LNONCOLLINEAR =      F non collinear calculations
   LSORBIT =      F    spin-orbit coupling
   INIWAV =      1    electr: 0-lowe 1-rand  2-diag
   LASPH  =      F    aspherical Exc in radial PAW
   METAGGA=      F    non-selfconsistent MetaGGA calc.

 Electronic Relaxation 1
   ENCUT  =  500.0 eV  36.75 Ry    6.06 a.u.  72.93 72.93 72.93*2*pi/ulx,y,z
   ENINI  =  500.0     initial cutoff
   ENAUG  =  644.9 eV  augmentation charge cutoff
   NELM   =    100;   NELMIN=  2; NELMDL= -5     # of ELM steps 
   EDIFF  = 0.1E-04   stopping-criterion for ELM
   LREAL  =      T    real-space projection
   NLSPLINE    = F    spline interpolate recip. space projectors
   LCOMPAT=      F    compatible to vasp.4.4
   GGA_COMPAT  = T    GGA compatible to vasp.4.4-vasp.4.6
   LMAXPAW     = -100 max onsite density
   LMAXMIX     =    2 max onsite mixed and CHGCAR
   VOSKOWN=      0    Vosko Wilk Nusair interpolation
   ROPT   =   -0.00025  -0.00025
 Ionic relaxation
   EDIFFG = -.2E-01   stopping-criterion for IOM
   NSW    =    500    number of steps for IOM
   NBLOCK =      1;   KBLOCK =    500    inner block; outer block 
   IBRION =      2    ionic relax: 0-MD 1-quasi-New 2-CG
   NFREE  =      1    steps in history (QN), initial steepest desc. (CG)
   ISIF   =      2    stress and relaxation
   IWAVPR =     11    prediction:  0-non 1-charg 2-wave 3-comb
   ISYM   =      2    0-nonsym 1-usesym 2-fastsym
   LCORR  =      T    Harris-Foulkes like correction to forces

   POTIM  = 0.5000    time-step for ionic-motion
   TEIN   =    0.0    initial temperature
   TEBEG  =    0.0;   TEEND  =   0.0 temperature during run
   SMASS  =  -3.00    Nose mass-parameter (am)
   estimated Nose-frequenzy (Omega)   =  0.10E-29 period in steps =****** mass=  -0.366E-25a.u.
   SCALEE = 1.0000    scale energy and forces
   NPACO  =    256;   APACO  = 16.0  distance and # of slots for P.C.
   PSTRESS=    0.0 pullay stress

  Mass of Ions in am
   POMASS =  12.01  1.00
  Ionic Valenz
   ZVAL   =   4.00  1.00
  Atomic Wigner-Seitz radii
   RWIGS  =  -1.00 -1.00
  virtual crystal weights 
   VCA    =   1.00  1.00
   NELECT =      37.0000    total number of electrons
   NUPDOWN=      -1.0000    fix difference up-down

 DOS related values:
   EMIN   =  10.00;   EMAX   =-10.00  energy-range for DOS
   EFERMI =   0.00
   ISMEAR =     0;   SIGMA  =   0.05  broadening in eV -4-tet -1-fermi 0-gaus

 Electronic relaxation 2 (details)
   IALGO  =     68    algorithm
   LDIAG  =      T    sub-space diagonalisation (order eigenvalues)
   LSUBROT=      F    optimize rotation matrix (better conditioning)
   TURBO    =      0    0=normal 1=particle mesh
   IRESTART =      0    0=no restart 2=restart with 2 vectors
   NREBOOT  =      0    no. of reboots
   NMIN     =      0    reboot dimension
   EREF     =   0.00    reference energy to select bands
   IMIX   =      4    mixing-type and parameters
     AMIX     =   0.40;   BMIX     =  1.00
     AMIX_MAG =   1.60;   BMIX_MAG =  1.00
     AMIN     =   0.10
     WC   =   100.;   INIMIX=   1;  MIXPRE=   1;  MAXMIX= -45

 Intra band minimization:
   WEIMIN = 0.0010     energy-eigenvalue tresh-hold
   EBREAK =  0.74E-07  absolut break condition
   DEPER  =   0.30     relativ break condition  

   TIME   =   0.40     timestep for ELM

  volume/ion in A,a.u.               =    4571.43     30849.52
  Fermi-wavevector in a.u.,A,eV,Ry     =   0.136379  0.257720  0.253059  0.018599
  Thomas-Fermi vector in A             =   0.787460
 
 Write flags
   LWAVE        =      T    write WAVECAR
   LDOWNSAMPLE  =      F    k-point downsampling of WAVECAR
   LCHARG       =      F    write CHGCAR
   LVTOT        =      F    write LOCPOT, total local potential
   LVHAR        =      F    write LOCPOT, Hartree potential only
   LELF         =      F    write electronic localiz. function (ELF)
   LORBIT       =      0    0 simple, 1 ext, 2 COOP (PROOUT), +10 PAW based schemes


 Dipole corrections
   LMONO  =      F    monopole corrections only (constant potential shift)
   LDIPOL =      F    correct potential (dipole corrections)
   IDIPOL =      0    1-x, 2-y, 3-z, 4-all directions 
   EPSILON=  1.0000000 bulk dielectric constant

 Exchange correlation treatment:
   GGA     =    --    GGA type
   LEXCH   =     8    internal setting for exchange type
   VOSKOWN=      0    Vosko Wilk Nusair interpolation
   LHFCALC =     F    Hartree Fock is set to
   LHFONE  =     F    Hartree Fock one center treatment
   AEXX    =    0.0000 exact exchange contribution

 Linear response parameters
   LEPSILON=     F    determine dielectric tensor
   LRPA    =     F    only Hartree local field effects (RPA)
   LNABLA  =     F    use nabla operator in PAW spheres
   LVEL    =     F    velocity operator in full k-point grid
   LINTERFAST=   F  fast interpolation
   KINTER  =     0    interpolate to denser k-point grid
   CSHIFT  =0.1000    complex shift for real part using Kramers Kronig
   OMEGAMAX=  -1.0    maximum frequency
   DEG_THRESHOLD= 0.2000000E-02 threshold for treating states as degnerate
   RTIME   =   -0.100 relaxation time in fs
  (WPLASMAI=    0.000 imaginary part of plasma frequency in eV, 0.658/RTIME)
   DFIELD  = 0.0000000 0.0000000 0.0000000 field for delta impulse in time
 
 Orbital magnetization related:
   ORBITALMAG=     F  switch on orbital magnetization
   LCHIMAG   =     F  perturbation theory with respect to B field
   DQ        =  0.001000  dq finite difference perturbation B field
   LLRAUG    =     F  two centre corrections for induced B field

 Solvation model:
   LSOL    =     T         switch on solvation model
   EB_K    = 35.688000     relative permittivity of the bulk solvent
   SIGMA_K =  0.600000     width of the dielectric cavity
   NC_K    =  0.002500     cutoff charge density
   TAU     =  0.000000     cavity surface tension
   LAMBDA_D_K    =  3.040000     Debye length in Angstroms
   LRHOB     =     F     write boundcharge  density
   LRHOION     =     F     write ioniccharge density



--------------------------------------------------------------------------------------------------------


 conjugate gradient relaxation of ions
   using selective dynamics as specified on POSCAR
 charge density and potential will be updated during run
 spin polarized calculation
 RMM-DIIS sequential band-by-band and
  variant of blocked Davidson during initial phase
 perform sub-space diagonalisation
    before iterative eigenvector-optimisation
 modified Broyden-mixing scheme, WC =      100.0
 initial mixing is a Kerker type mixing with AMIX =  0.4000 and BMIX =      1.0000
 Hartree-type preconditioning will be used
 using additional bands           15
 real space projection scheme for non local part
 use partial core corrections
 calculate Harris-corrections to forces 
   (improved forces if not selfconsistent)
 use gradient corrections 
 use of overlap-Matrix (Vanderbilt PP)
 Gauss-broadening in eV      SIGMA  =   0.05


--------------------------------------------------------------------------------------------------------


  energy-cutoff  :      500.00
  volume of cell :    64000.00
      direct lattice vectors                 reciprocal lattice vectors
    40.000000000  0.000000000  0.000000000     0.025000000  0.000000000  0.000000000
     0.000000000 40.000000000  0.000000000     0.000000000  0.025000000  0.000000000
     0.000000000  0.000000000 40.000000000     0.000000000  0.000000000  0.025000000

  length of vectors
    40.000000000 40.000000000 40.000000000     0.025000000  0.025000000  0.025000000


 
 k-points in units of 2pi/SCALE and weight: K-Point Grid                            
   0.00000000  0.00000000  0.00000000       1.000
 
 k-points in reciprocal lattice and weights: K-Point Grid                            
   0.00000000  0.00000000  0.00000000       1.000
 
 position of ions in fractional coordinates (direct lattice) 
   0.53450479  0.46972346  0.50000004
   0.55205113  0.50000049  0.50000030
   0.53450177  0.53027576  0.50000004
   0.49962028  0.53042528  0.49999881
   0.48175820  0.49999717  0.49999702
   0.49962287  0.46957016  0.49999881
   0.44612533  0.50000067  0.49999576
   0.41571886  0.50001166  0.49999795
   0.48587139  0.44602743  0.49999826
   0.38889644  0.49999793  0.50001388
   0.48586641  0.55396652  0.49999827
   0.54806635  0.55394180  0.50000027
   0.57932448  0.50000192  0.50000031
   0.54807169  0.44605877  0.50000027
 
 position of ions in cartesian coordinates  (Angst):
  21.38019151 18.78893832 20.00000175
  22.08204502 20.00001947 20.00001202
  21.38007096 21.21103047 20.00000177
  19.98481135 21.21701100 19.99995250
  19.27032816 19.99988677 19.99988100
  19.98491468 18.78280629 19.99995248
  17.84501331 20.00002673 19.99983052
  16.62875440 20.00046646 19.99991781
  19.43485554 17.84109710 19.99993059
  15.55585754 19.99991720 20.00055515
  19.43465622 22.15866085 19.99993060
  21.92265420 22.15767185 20.00001077
  23.17297936 20.00007666 20.00001226
  21.92286776 17.84235083 20.00001077
 


--------------------------------------------------------------------------------------------------------


 k-point  1 :   0.0000 0.0000 0.0000  plane waves: 1624525

 maximum and minimum number of plane-waves per node :     67702    67669

 maximum number of plane-waves:   1624525
 maximum index in each direction: 
   IXMAX=   72   IYMAX=   72   IZMAX=   72
   IXMIN=  -72   IYMIN=  -72   IZMIN=  -72


 real space projection operators:
  total allocation   :       1549.95 KBytes
  max/ min on nodes  :         88.11         40.95


 parallel 3D FFT for wavefunctions:
    minimum data exchange during FFTs selected (reduces bandwidth)
 parallel 3D FFT for charge:
    minimum data exchange during FFTs selected (reduces bandwidth)


 total amount of memory used by VASP MPI-rank0   700611. kBytes
=======================================================================

   base      :      30000. kBytes
   nonlr-proj:        790. kBytes
   fftplans  :     182426. kBytes
   grid      :     450567. kBytes
   one-center:          6. kBytes
   wavefun   :      36822. kBytes
 
     INWAV:  cpu time    0.0000: real time    0.0000
 Broyden mixing: mesh for mixing (old mesh)
   NGX =145   NGY =145   NGZ =145
  (NGX  =588   NGY  =588   NGZ  =588)
  gives a total of ****** points

 initial charge density was supplied:
 charge density of overlapping atoms calculated
 number of electron      38.0000000 magnetization      14.0000000
 keeping initial charge density in first step


--------------------------------------------------------------------------------------------------------


 Maximum index for non-local projection operator          235
 Maximum index for augmentation-charges          277 (set IRDMAX)


--------------------------------------------------------------------------------------------------------


 First call to EWALD:  gamma=   0.044
 Maximum number of real-space cells 3x 3x 3
 Maximum number of reciprocal cells 3x 3x 3

    FEWALD:  cpu time    0.0023: real time    0.0023


--------------------------------------- Iteration      1(   1)  ---------------------------------------


    POTLOK:  cpu time  280.7776: real time  281.0789
    SETDIJ:  cpu time    0.0701: real time    0.0703
     EDDAV:  cpu time   15.2916: real time   15.3227
       DOS:  cpu time    0.0007: real time    0.0007
    --------------------------------------------
      LOOP:  cpu time  296.1400: real time  296.4726

 eigenvalue-minimisations  :   168
 total energy-change (2. order) : 0.3437591E+03  (-0.4640999E+03)
 number of electron      38.0000000 magnetization      14.0000000
 augmentation part       38.0000000 magnetization      14.0000000

 Free energy of the ion-electron system (eV)
  ---------------------------------------------------
  alpha Z        PSCENC =         0.10622807
  Ewald energy   TEWEN  =      3251.66022136
  -Hartree energ DENC   =     -4063.58404330
  -exchange      EXHF   =         0.00000000
  -V(xc)+E(xc)   XCENC  =       119.53930367
  PAW double counting   =       877.91636232     -882.45100770
  entropy T*S    EENTRO =        -0.07612147
  eigenvalues    EBANDS =      -204.77331966
  atomic energy  EATOM  =      1252.10595265
  Solvation  Ediel_sol  =        -6.68448952
  ---------------------------------------------------
  free energy    TOTEN  =       343.75908641 eV

  energy without entropy =      343.83520788  energy(sigma->0) =      343.79714714


--------------------------------------------------------------------------------------------------------




--------------------------------------- Iteration      1(   2)  ---------------------------------------


     EDDAV:  cpu time   20.6157: real time   20.6680
       DOS:  cpu time    0.0003: real time    0.0003
    --------------------------------------------
      LOOP:  cpu time   20.6160: real time   20.6683

 eigenvalue-minimisations  :   246
 total energy-change (2. order) :-0.2118043E+03  (-0.1955316E+03)
 number of electron      38.0000000 magnetization      14.0000000
 augmentation part       38.0000000 magnetization      14.0000000

 Free energy of the ion-electron system (eV)
  ---------------------------------------------------
  alpha Z        PSCENC =         0.10622807
  Ewald energy   TEWEN  =      3251.66022136
  -Hartree energ DENC   =     -4063.58404330
  -exchange      EXHF   =         0.00000000
  -V(xc)+E(xc)   XCENC  =       119.53930367
  PAW double counting   =       877.91636232     -882.45100770
  entropy T*S    EENTRO =        -0.00000000
  eigenvalues    EBANDS =      -416.65375668
  atomic energy  EATOM  =      1252.10595265
  Solvation  Ediel_sol  =        -6.68448952
  ---------------------------------------------------
  free energy    TOTEN  =       131.95477086 eV

  energy without entropy =      131.95477086  energy(sigma->0) =      131.95477086


--------------------------------------------------------------------------------------------------------




--------------------------------------- Iteration      1(   3)  ---------------------------------------


     EDDAV:  cpu time   17.2371: real time   17.2721
       DOS:  cpu time    0.0002: real time    0.0002
    --------------------------------------------
      LOOP:  cpu time   17.2373: real time   17.2723

 eigenvalue-minimisations  :   196
 total energy-change (2. order) :-0.1728771E+03  (-0.1670867E+03)
 number of electron      38.0000000 magnetization      14.0000000
 augmentation part       38.0000000 magnetization      14.0000000

 Free energy of the ion-electron system (eV)
  ---------------------------------------------------
  alpha Z        PSCENC =         0.10622807
  Ewald energy   TEWEN  =      3251.66022136
  -Hartree energ DENC   =     -4063.58404330
  -exchange      EXHF   =         0.00000000
  -V(xc)+E(xc)   XCENC  =       119.53930367
  PAW double counting   =       877.91636232     -882.45100770
  entropy T*S    EENTRO =        -0.00000000
  eigenvalues    EBANDS =      -589.53084171
  atomic energy  EATOM  =      1252.10595265
  Solvation  Ediel_sol  =        -6.68448952
  ---------------------------------------------------
  free energy    TOTEN  =       -40.92231417 eV

  energy without entropy =      -40.92231417  energy(sigma->0) =      -40.92231417


--------------------------------------------------------------------------------------------------------




--------------------------------------- Iteration      1(   4)  ---------------------------------------


     EDDAV:  cpu time   16.8348: real time   16.8744
       DOS:  cpu time    0.0003: real time    0.0003
    --------------------------------------------
      LOOP:  cpu time   16.8352: real time   16.8747

 eigenvalue-minimisations  :   192
 total energy-change (2. order) :-0.3706128E+02  (-0.3682842E+02)
 number of electron      38.0000000 magnetization      14.0000000
 augmentation part       38.0000000 magnetization      14.0000000

 Free energy of the ion-electron system (eV)
  ---------------------------------------------------
  alpha Z        PSCENC =         0.10622807
  Ewald energy   TEWEN  =      3251.66022136
  -Hartree energ DENC   =     -4063.58404330
  -exchange      EXHF   =         0.00000000
  -V(xc)+E(xc)   XCENC  =       119.53930367
  PAW double counting   =       877.91636232     -882.45100770
  entropy T*S    EENTRO =        -0.00000000
  eigenvalues    EBANDS =      -626.59212597
  atomic energy  EATOM  =      1252.10595265
  Solvation  Ediel_sol  =        -6.68448952
  ---------------------------------------------------
  free energy    TOTEN  =       -77.98359843 eV

  energy without entropy =      -77.98359843  energy(sigma->0) =      -77.98359843


--------------------------------------------------------------------------------------------------------




--------------------------------------- Iteration      1(   5)  ---------------------------------------


     EDDAV:  cpu time   17.3983: real time   17.4333
       DOS:  cpu time    0.0004: real time    0.0004
    CHARGE:  cpu time    1.7082: real time    1.7111
    MIXING:  cpu time    0.1558: real time    0.1562
    --------------------------------------------
      LOOP:  cpu time   19.2627: real time   19.3010

 eigenvalue-minimisations  :   200
 total energy-change (2. order) :-0.1110406E+01  (-0.1107862E+01)
 number of electron      37.0000002 magnetization      13.4991388
 augmentation part        0.9345015 magnetization      12.5809939

 Broyden mixing:
  rms(total) = 0.23362E+01    rms(broyden)= 0.23359E+01
  rms(prec ) = 0.23586E+01
  weight for this iteration     100.00

 Free energy of the ion-electron system (eV)
  ---------------------------------------------------
  alpha Z        PSCENC =         0.10622807
  Ewald energy   TEWEN  =      3251.66022136
  -Hartree energ DENC   =     -4063.58404330
  -exchange      EXHF   =         0.00000000
  -V(xc)+E(xc)   XCENC  =       119.53930367
  PAW double counting   =       877.91636232     -882.45100770
  entropy T*S    EENTRO =        -0.00000000
  eigenvalues    EBANDS =      -627.70253177
  atomic energy  EATOM  =      1252.10595265
  Solvation  Ediel_sol  =        -6.68448952
  ---------------------------------------------------
  free energy    TOTEN  =       -79.09400423 eV

  energy without entropy =      -79.09400423  energy(sigma->0) =      -79.09400423


--------------------------------------------------------------------------------------------------------




--------------------------------------- Iteration      1(   6)  ---------------------------------------


    POTLOK:  cpu time  264.7843: real time  264.7513
    SETDIJ:  cpu time    0.0455: real time    0.0456
    EDDIAG:  cpu time    2.9532: real time    2.9594
  RMM-DIIS:  cpu time   12.9217: real time   12.9487
    ORTHCH:  cpu time    0.1105: real time    0.1107
       DOS:  cpu time    0.0005: real time    0.0005
    CHARGE:  cpu time    1.6942: real time    1.6977
    MIXING:  cpu time    0.1675: real time    0.1677
    --------------------------------------------
      LOOP:  cpu time  282.6773: real time  282.6815

 eigenvalue-minimisations  :   136
 total energy-change (2. order) : 0.3627526E+02  (-0.6963837E+01)
 number of electron      37.0000001 magnetization      12.9608251
 augmentation part        0.9225555 magnetization      11.9780870

 Broyden mixing:
  rms(total) = 0.11419E+01    rms(broyden)= 0.11418E+01
  rms(prec ) = 0.11586E+01
  weight for this iteration     100.00

 eigenvalues of (default mixing * dielectric matrix)
  average eigenvalue GAMMA=   0.9453
  0.9453

 Free energy of the ion-electron system (eV)
  ---------------------------------------------------
  alpha Z        PSCENC =         0.10622807
  Ewald energy   TEWEN  =      3251.66022136
  -Hartree energ DENC   =     -4113.47357922
  -exchange      EXHF   =         0.00000000
  -V(xc)+E(xc)   XCENC  =       154.62883558
  PAW double counting   =      1600.94551206    -1606.27709798
  entropy T*S    EENTRO =        -0.00000012
  eigenvalues    EBANDS =      -559.09570318
  atomic energy  EATOM  =      1252.10595265
  Solvation  Ediel_sol  =       -23.41911091
  ---------------------------------------------------
  free energy    TOTEN  =       -42.81874168 eV

  energy without entropy =      -42.81874155  energy(sigma->0) =      -42.81874161


--------------------------------------------------------------------------------------------------------




--------------------------------------- Iteration      1(   7)  ---------------------------------------


    POTLOK:  cpu time  266.0586: real time  266.0741
    SETDIJ:  cpu time    0.0524: real time    0.0525
    EDDIAG:  cpu time    2.9563: real time    2.9624
  RMM-DIIS:  cpu time   13.6054: real time   13.6360
    ORTHCH:  cpu time    0.1082: real time    0.1084
       DOS:  cpu time    0.0003: real time    0.0003
    CHARGE:  cpu time    1.6769: real time    1.6800
    MIXING:  cpu time    0.1833: real time    0.1835
    --------------------------------------------
      LOOP:  cpu time  284.6412: real time  284.6973

 eigenvalue-minimisations  :   136
 total energy-change (2. order) :-0.2312690E+02  (-0.2088178E+01)
 number of electron      37.0000001 magnetization      12.3535969
 augmentation part        0.8848002 magnetization      11.3691475

 Broyden mixing:
  rms(total) = 0.67720E+00    rms(broyden)= 0.67713E+00
  rms(prec ) = 0.68391E+00
  weight for this iteration     100.00

 eigenvalues of (default mixing * dielectric matrix)
  average eigenvalue GAMMA=   1.0689
  0.7980  1.3399

 Free energy of the ion-electron system (eV)
  ---------------------------------------------------
  alpha Z        PSCENC =         0.10622807
  Ewald energy   TEWEN  =      3251.66022136
  -Hartree energ DENC   =     -4146.76320731
  -exchange      EXHF   =         0.00000000
  -V(xc)+E(xc)   XCENC  =       137.72373750
  PAW double counting   =      2271.94883547    -2277.66251887
  entropy T*S    EENTRO =        -0.00000000
  eigenvalues    EBANDS =      -514.34539948
  atomic energy  EATOM  =      1252.10595265
  Solvation  Ediel_sol  =       -40.71948992
  ---------------------------------------------------
  free energy    TOTEN  =       -65.94564053 eV

  energy without entropy =      -65.94564053  energy(sigma->0) =      -65.94564053


--------------------------------------------------------------------------------------------------------




--------------------------------------- Iteration      1(   8)  ---------------------------------------


    POTLOK:  cpu time  271.3266: real time  271.3294
    SETDIJ:  cpu time    0.0495: real time    0.0496
    EDDIAG:  cpu time    2.9616: real time    2.9681
  RMM-DIIS:  cpu time   13.6348: real time   13.6639
    ORTHCH:  cpu time    0.1082: real time    0.1085
       DOS:  cpu time    0.0003: real time    0.0003
    CHARGE:  cpu time    1.6939: real time    1.6974
    MIXING:  cpu time    0.1959: real time    0.1962
    --------------------------------------------
      LOOP:  cpu time  289.9707: real time  290.0133

 eigenvalue-minimisations  :   136
 total energy-change (2. order) :-0.5636556E+01  (-0.3899775E+00)
 number of electron      37.0000001 magnetization      11.6421044
 augmentation part        0.8634169 magnetization      10.6638443

 Broyden mixing:
  rms(total) = 0.39450E+00    rms(broyden)= 0.39446E+00
  rms(prec ) = 0.39933E+00
  weight for this iteration     100.00

 eigenvalues of (default mixing * dielectric matrix)
  average eigenvalue GAMMA=   1.2484
  1.9824  1.0603  0.7026

 Free energy of the ion-electron system (eV)
  ---------------------------------------------------
  alpha Z        PSCENC =         0.10622807
  Ewald energy   TEWEN  =      3251.66022136
  -Hartree energ DENC   =     -4156.47796264
  -exchange      EXHF   =         0.00000000
  -V(xc)+E(xc)   XCENC  =       134.17571027
  PAW double counting   =      2839.23223676    -2845.02535431
  entropy T*S    EENTRO =        -0.00000000
  eigenvalues    EBANDS =      -490.04779346
  atomic energy  EATOM  =      1252.10595265
  Solvation  Ediel_sol  =       -57.31143558
  ---------------------------------------------------
  free energy    TOTEN  =       -71.58219688 eV

  energy without entropy =      -71.58219688  energy(sigma->0) =      -71.58219688


--------------------------------------------------------------------------------------------------------




--------------------------------------- Iteration      1(   9)  ---------------------------------------


    POTLOK:  cpu time  275.2253: real time  275.4670
    SETDIJ:  cpu time    0.0457: real time    0.0458
    EDDIAG:  cpu time    2.9538: real time    2.9607
  RMM-DIIS:  cpu time   13.8293: real time   13.8583
    ORTHCH:  cpu time    0.1085: real time    0.1088
       DOS:  cpu time    0.0003: real time    0.0003
    CHARGE:  cpu time    1.6697: real time    1.6732
    MIXING:  cpu time    0.1968: real time    0.1970
    --------------------------------------------
      LOOP:  cpu time  294.0293: real time  294.3111

 eigenvalue-minimisations  :   137
 total energy-change (2. order) :-0.6143794E+01  (-0.2374444E+00)
 number of electron      37.0000001 magnetization      11.0837929
 augmentation part        0.8523074 magnetization      10.1128407

 Broyden mixing:
  rms(total) = 0.22762E+00    rms(broyden)= 0.22761E+00
  rms(prec ) = 0.23208E+00
  weight for this iteration     100.00

 eigenvalues of (default mixing * dielectric matrix)
  average eigenvalue GAMMA=   1.2588
  2.1995  1.3406  0.8339  0.6610

 Free energy of the ion-electron system (eV)
  ---------------------------------------------------
  alpha Z        PSCENC =         0.10622807
  Ewald energy   TEWEN  =      3251.66022136
  -Hartree energ DENC   =     -4151.08834487
  -exchange      EXHF   =         0.00000000
  -V(xc)+E(xc)   XCENC  =       129.64612813
  PAW double counting   =      3215.98171169    -3221.71070550
  entropy T*S    EENTRO =        -0.00000000
  eigenvalues    EBANDS =      -482.56868831
  atomic energy  EATOM  =      1252.10595265
  Solvation  Ediel_sol  =       -71.85849368
  ---------------------------------------------------
  free energy    TOTEN  =       -77.72599045 eV

  energy without entropy =      -77.72599045  energy(sigma->0) =      -77.72599045


--------------------------------------------------------------------------------------------------------




--------------------------------------- Iteration      1(  10)  ---------------------------------------


    POTLOK:  cpu time  261.7103: real time  261.6820
    SETDIJ:  cpu time    0.0479: real time    0.0480
    EDDIAG:  cpu time    2.9635: real time    2.9703
  RMM-DIIS:  cpu time   13.5658: real time   13.5937
    ORTHCH:  cpu time    0.1086: real time    0.1088
       DOS:  cpu time    0.0003: real time    0.0003
    CHARGE:  cpu time    1.6764: real time    1.6791
    MIXING:  cpu time    0.2199: real time    0.2204
    --------------------------------------------
      LOOP:  cpu time  280.2928: real time  280.3027

 eigenvalue-minimisations  :   136
 total energy-change (2. order) :-0.2413712E+01  (-0.6793205E-01)
 number of electron      37.0000001 magnetization      10.4636291
 augmentation part        0.8490941 magnetization       9.5000746

 Broyden mixing:
  rms(total) = 0.16217E+00    rms(broyden)= 0.16217E+00
  rms(prec ) = 0.16654E+00
  weight for this iteration     100.00

 eigenvalues of (default mixing * dielectric matrix)
  average eigenvalue GAMMA=   1.2711
  2.3514  1.6289  0.8710  0.8710  0.6329

 Free energy of the ion-electron system (eV)
  ---------------------------------------------------
  alpha Z        PSCENC =         0.10622807
  Ewald energy   TEWEN  =      3251.66022136
  -Hartree energ DENC   =     -4141.84320731
  -exchange      EXHF   =         0.00000000
  -V(xc)+E(xc)   XCENC  =       127.62355781
  PAW double counting   =      3320.02929291    -3325.69873306
  entropy T*S    EENTRO =        -0.00000000
  eigenvalues    EBANDS =      -484.55469466
  atomic energy  EATOM  =      1252.10595265
  Solvation  Ediel_sol  =       -79.56832048
  ---------------------------------------------------
  free energy    TOTEN  =       -80.13970271 eV

  energy without entropy =      -80.13970271  energy(sigma->0) =      -80.13970271


--------------------------------------------------------------------------------------------------------




--------------------------------------- Iteration      1(  11)  ---------------------------------------


    POTLOK:  cpu time  254.7623: real time  254.8013
    SETDIJ:  cpu time    0.0512: real time    0.0513
    EDDIAG:  cpu time    2.9547: real time    2.9610
  RMM-DIIS:  cpu time   14.4650: real time   14.4941
    ORTHCH:  cpu time    0.1057: real time    0.1059
       DOS:  cpu time    0.0004: real time    0.0004
    CHARGE:  cpu time    1.6900: real time    1.6935
    MIXING:  cpu time    0.2220: real time    0.2223
    --------------------------------------------
      LOOP:  cpu time  274.2513: real time  274.3298

 eigenvalue-minimisations  :   136
 total energy-change (2. order) :-0.1616266E+01  (-0.3732373E-01)
 number of electron      37.0000001 magnetization       9.7096529
 augmentation part        0.8481423 magnetization       8.7510629

 Broyden mixing:
  rms(total) = 0.12733E+00    rms(broyden)= 0.12732E+00
  rms(prec ) = 0.13105E+00
  weight for this iteration     100.00

 eigenvalues of (default mixing * dielectric matrix)
  average eigenvalue GAMMA=   1.2984
  2.3876  1.9163  1.0315  1.0315  0.7949  0.6285

 Free energy of the ion-electron system (eV)
  ---------------------------------------------------
  alpha Z        PSCENC =         0.10622807
  Ewald energy   TEWEN  =      3251.66022136
  -Hartree energ DENC   =     -4131.53898956
  -exchange      EXHF   =         0.00000000
  -V(xc)+E(xc)   XCENC  =       126.13770824
  PAW double counting   =      3331.92952652    -3337.56329272
  entropy T*S    EENTRO =        -0.00000000
  eigenvalues    EBANDS =      -488.53040696
  atomic energy  EATOM  =      1252.10595265
  Solvation  Ediel_sol  =       -86.06291650
  ---------------------------------------------------
  free energy    TOTEN  =       -81.75596890 eV

  energy without entropy =      -81.75596890  energy(sigma->0) =      -81.75596890


--------------------------------------------------------------------------------------------------------




--------------------------------------- Iteration      1(  12)  ---------------------------------------


    POTLOK:  cpu time  254.4674: real time  254.7094
    SETDIJ:  cpu time    0.0483: real time    0.0484
    EDDIAG:  cpu time    2.9591: real time    2.9656
  RMM-DIIS:  cpu time   14.4334: real time   14.4618
    ORTHCH:  cpu time    0.1109: real time    0.1112
       DOS:  cpu time    0.0003: real time    0.0003
    CHARGE:  cpu time    1.6853: real time    1.6870
    MIXING:  cpu time    0.2398: real time    0.2405
    --------------------------------------------
      LOOP:  cpu time  273.9447: real time  274.2241

 eigenvalue-minimisations  :   136
 total energy-change (2. order) :-0.1394356E+01  (-0.2933044E-01)
 number of electron      37.0000001 magnetization       8.4293392
 augmentation part        0.8475202 magnetization       7.4747377

 Broyden mixing:
  rms(total) = 0.96315E-01    rms(broyden)= 0.96313E-01
  rms(prec ) = 0.99361E-01
  weight for this iteration     100.00

 eigenvalues of (default mixing * dielectric matrix)
  average eigenvalue GAMMA=   1.4748
  3.3277  2.2766  1.5017  0.8937  0.8937  0.8044  0.6260

 Free energy of the ion-electron system (eV)
  ---------------------------------------------------
  alpha Z        PSCENC =         0.10622807
  Ewald energy   TEWEN  =      3251.66022136
  -Hartree energ DENC   =     -4120.95438799
  -exchange      EXHF   =         0.00000000
  -V(xc)+E(xc)   XCENC  =       124.79882815
  PAW double counting   =      3317.09583338    -3322.71561395
  entropy T*S    EENTRO =        -0.00000000
  eigenvalues    EBANDS =      -492.18235290
  atomic energy  EATOM  =      1252.10595265
  Solvation  Ediel_sol  =       -93.06503395
  ---------------------------------------------------
  free energy    TOTEN  =       -83.15032517 eV

  energy without entropy =      -83.15032517  energy(sigma->0) =      -83.15032517


--------------------------------------------------------------------------------------------------------




--------------------------------------- Iteration      1(  13)  ---------------------------------------


    POTLOK:  cpu time  257.8958: real time  257.9951
    SETDIJ:  cpu time    0.0577: real time    0.0577
    EDDIAG:  cpu time    2.9489: real time    2.9553
  RMM-DIIS:  cpu time   14.5390: real time   14.5678
    ORTHCH:  cpu time    0.1063: real time    0.1065
       DOS:  cpu time    0.0003: real time    0.0003
    CHARGE:  cpu time    1.6368: real time    1.6399
    MIXING:  cpu time    0.2452: real time    0.2456
    --------------------------------------------
      LOOP:  cpu time  277.4300: real time  277.5682

 eigenvalue-minimisations  :   136
 total energy-change (2. order) :-0.1349472E+01  (-0.3959593E-01)
 number of electron      37.0000001 magnetization       7.6017991
 augmentation part        0.8471140 magnetization       6.6509314

 Broyden mixing:
  rms(total) = 0.59296E-01    rms(broyden)= 0.59293E-01
  rms(prec ) = 0.61035E-01
  weight for this iteration     100.00

 eigenvalues of (default mixing * dielectric matrix)
  average eigenvalue GAMMA=   1.6673
  5.1836  2.1998  1.7865  0.9865  0.9865  0.8752  0.6999  0.6208

 Free energy of the ion-electron system (eV)
  ---------------------------------------------------
  alpha Z        PSCENC =         0.10622807
  Ewald energy   TEWEN  =      3251.66022136
  -Hartree energ DENC   =     -4105.53851423
  -exchange      EXHF   =         0.00000000
  -V(xc)+E(xc)   XCENC  =       123.40889677
  PAW double counting   =      3286.59446771    -3292.21572316
  entropy T*S    EENTRO =        -0.00000000
  eigenvalues    EBANDS =      -496.60322347
  atomic energy  EATOM  =      1252.10595265
  Solvation  Ediel_sol  =      -104.01810317
  ---------------------------------------------------
  free energy    TOTEN  =       -84.49979746 eV

  energy without entropy =      -84.49979746  energy(sigma->0) =      -84.49979746


--------------------------------------------------------------------------------------------------------




--------------------------------------- Iteration      1(  14)  ---------------------------------------


    POTLOK:  cpu time  251.1986: real time  251.3640
    SETDIJ:  cpu time    0.0537: real time    0.0538
    EDDIAG:  cpu time    2.9376: real time    2.9442
  RMM-DIIS:  cpu time   14.4739: real time   14.5049
    ORTHCH:  cpu time    0.1079: real time    0.1081
       DOS:  cpu time    0.0003: real time    0.0003
    CHARGE:  cpu time    1.6256: real time    1.6293
    MIXING:  cpu time    0.2646: real time    0.2650
    --------------------------------------------
      LOOP:  cpu time  270.6623: real time  270.8696

 eigenvalue-minimisations  :   136
 total energy-change (2. order) :-0.4901975E+00  (-0.1288977E-01)
 number of electron      37.0000001 magnetization       6.8961018
 augmentation part        0.8464756 magnetization       5.9479448

 Broyden mixing:
  rms(total) = 0.42370E-01    rms(broyden)= 0.42368E-01
  rms(prec ) = 0.43304E-01
  weight for this iteration     100.00

 eigenvalues of (default mixing * dielectric matrix)
  average eigenvalue GAMMA=   1.7553
  6.3656  2.0828  2.0828  1.2237  0.9734  0.9734  0.7990  0.6743  0.6225

 Free energy of the ion-electron system (eV)
  ---------------------------------------------------
  alpha Z        PSCENC =         0.10622807
  Ewald energy   TEWEN  =      3251.66022136
  -Hartree energ DENC   =     -4097.43358982
  -exchange      EXHF   =         0.00000000
  -V(xc)+E(xc)   XCENC  =       122.87790738
  PAW double counting   =      3274.30888023    -3279.93898468
  entropy T*S    EENTRO =        -0.00000000
  eigenvalues    EBANDS =      -498.29911060
  atomic energy  EATOM  =      1252.10595265
  Solvation  Ediel_sol  =      -110.37749958
  ---------------------------------------------------
  free energy    TOTEN  =       -84.98999499 eV

  energy without entropy =      -84.98999499  energy(sigma->0) =      -84.98999499


--------------------------------------------------------------------------------------------------------




--------------------------------------- Iteration      1(  15)  ---------------------------------------


    POTLOK:  cpu time  243.8369: real time  244.0509
    SETDIJ:  cpu time    0.0469: real time    0.0470
    EDDIAG:  cpu time    2.9344: real time    2.9410
  RMM-DIIS:  cpu time   14.2988: real time   14.3293
    ORTHCH:  cpu time    0.1076: real time    0.1079
       DOS:  cpu time    0.0003: real time    0.0003
    CHARGE:  cpu time    1.6375: real time    1.6403
    MIXING:  cpu time    0.2708: real time    0.2712
    --------------------------------------------
      LOOP:  cpu time  263.1332: real time  263.3880

 eigenvalue-minimisations  :   136
 total energy-change (2. order) :-0.3320474E+00  (-0.3393219E-02)
 number of electron      37.0000001 magnetization       6.1058716
 augmentation part        0.8461429 magnetization       5.1592834

 Broyden mixing:
  rms(total) = 0.32256E-01    rms(broyden)= 0.32255E-01
  rms(prec ) = 0.32688E-01
  weight for this iteration     100.00

 eigenvalues of (default mixing * dielectric matrix)
  average eigenvalue GAMMA=   1.8661
  7.3445  2.3528  2.3528  1.6239  1.0116  1.0116  0.9156  0.7685  0.6259  0.6536

 Free energy of the ion-electron system (eV)
  ---------------------------------------------------
  alpha Z        PSCENC =         0.10622807
  Ewald energy   TEWEN  =      3251.66022136
  -Hartree energ DENC   =     -4092.59783284
  -exchange      EXHF   =         0.00000000
  -V(xc)+E(xc)   XCENC  =       122.52279655
  PAW double counting   =      3269.80115884    -3275.43823478
  entropy T*S    EENTRO =        -0.00000000
  eigenvalues    EBANDS =      -498.81251561
  atomic energy  EATOM  =      1252.10595265
  Solvation  Ediel_sol  =      -114.66981665
  ---------------------------------------------------
  free energy    TOTEN  =       -85.32204240 eV

  energy without entropy =      -85.32204240  energy(sigma->0) =      -85.32204240


--------------------------------------------------------------------------------------------------------




--------------------------------------- Iteration      1(  16)  ---------------------------------------


    POTLOK:  cpu time  240.6196: real time  240.8345
    SETDIJ:  cpu time    0.0543: real time    0.0545
    EDDIAG:  cpu time    2.9565: real time    2.9633
  RMM-DIIS:  cpu time   15.0579: real time   15.0891
    ORTHCH:  cpu time    0.1064: real time    0.1067
       DOS:  cpu time    0.0003: real time    0.0003
    CHARGE:  cpu time    1.6260: real time    1.6295
    MIXING:  cpu time    0.2954: real time    0.2958
    --------------------------------------------
      LOOP:  cpu time  260.7164: real time  260.9736

 eigenvalue-minimisations  :   137
 total energy-change (2. order) :-0.2194471E+00  (-0.7497567E-03)
 number of electron      37.0000001 magnetization       5.3712035
 augmentation part        0.8460038 magnetization       4.4251773

 Broyden mixing:
  rms(total) = 0.23994E-01    rms(broyden)= 0.23994E-01
  rms(prec ) = 0.24120E-01
  weight for this iteration     100.00

 eigenvalues of (default mixing * dielectric matrix)
  average eigenvalue GAMMA=   1.9714
  8.2282  3.2963  2.0572  2.0572  1.1930  0.9951  0.9951  0.8314  0.7615  0.6238
  0.6464

 Free energy of the ion-electron system (eV)
  ---------------------------------------------------
  alpha Z        PSCENC =         0.10622807
  Ewald energy   TEWEN  =      3251.66022136
  -Hartree energ DENC   =     -4088.67556644
  -exchange      EXHF   =         0.00000000
  -V(xc)+E(xc)   XCENC  =       122.28413642
  PAW double counting   =      3270.46952244    -3276.10905044
  entropy T*S    EENTRO =        -0.00000000
  eigenvalues    EBANDS =      -498.92514420
  atomic energy  EATOM  =      1252.10595265
  Solvation  Ediel_sol  =      -118.45778934
  ---------------------------------------------------
  free energy    TOTEN  =       -85.54148948 eV

  energy without entropy =      -85.54148948  energy(sigma->0) =      -85.54148948


--------------------------------------------------------------------------------------------------------




--------------------------------------- Iteration      1(  17)  ---------------------------------------


    POTLOK:  cpu time  237.4054: real time  237.6554
    SETDIJ:  cpu time    0.0470: real time    0.0467
    EDDIAG:  cpu time    2.9587: real time    2.9652
  RMM-DIIS:  cpu time   15.0961: real time   15.1250
    ORTHCH:  cpu time    0.1070: real time    0.1072
       DOS:  cpu time    0.0003: real time    0.0003
    CHARGE:  cpu time    1.6768: real time    1.6798
    MIXING:  cpu time    0.3083: real time    0.3087
    --------------------------------------------
      LOOP:  cpu time  257.5996: real time  257.8884

 eigenvalue-minimisations  :   136
 total energy-change (2. order) :-0.1095780E+00  (-0.1427031E-03)
 number of electron      37.0000001 magnetization       4.8206415
 augmentation part        0.8460983 magnetization       3.8747063

 Broyden mixing:
  rms(total) = 0.18766E-01    rms(broyden)= 0.18766E-01
  rms(prec ) = 0.18789E-01
  weight for this iteration     100.00

 eigenvalues of (default mixing * dielectric matrix)
  average eigenvalue GAMMA=   2.0303
  8.9621  4.0192  2.1272  2.1272  1.3679  1.0108  1.0108  0.9295  0.8109  0.7348
  0.6211  0.6423

 Free energy of the ion-electron system (eV)
  ---------------------------------------------------
  alpha Z        PSCENC =         0.10622807
  Ewald energy   TEWEN  =      3251.66022136
  -Hartree energ DENC   =     -4086.15026980
  -exchange      EXHF   =         0.00000000
  -V(xc)+E(xc)   XCENC  =       122.15901012
  PAW double counting   =      3274.80285562    -3280.43876240
  entropy T*S    EENTRO =        -0.00000000
  eigenvalues    EBANDS =      -498.91328928
  atomic energy  EATOM  =      1252.10595265
  Solvation  Ediel_sol  =      -120.98301385
  ---------------------------------------------------
  free energy    TOTEN  =       -85.65106753 eV

  energy without entropy =      -85.65106753  energy(sigma->0) =      -85.65106753


--------------------------------------------------------------------------------------------------------




--------------------------------------- Iteration      1(  18)  ---------------------------------------


    POTLOK:  cpu time  233.8888: real time  233.9107
    SETDIJ:  cpu time    0.0490: real time    0.0486
    EDDIAG:  cpu time    2.9542: real time    2.9605
  RMM-DIIS:  cpu time   15.1365: real time   15.1665
    ORTHCH:  cpu time    0.1059: real time    0.1061
       DOS:  cpu time    0.0003: real time    0.0003
    CHARGE:  cpu time    1.6398: real time    1.6420
    MIXING:  cpu time    0.3306: real time    0.3313
    --------------------------------------------
      LOOP:  cpu time  254.1052: real time  254.1660

 eigenvalue-minimisations  :   136
 total energy-change (2. order) :-0.3514568E-01  (-0.3865597E-04)
 number of electron      37.0000001 magnetization       4.1394011
 augmentation part        0.8461913 magnetization       3.1934791

 Broyden mixing:
  rms(total) = 0.15943E-01    rms(broyden)= 0.15943E-01
  rms(prec ) = 0.15956E-01
  weight for this iteration     100.00

 eigenvalues of (default mixing * dielectric matrix)
  average eigenvalue GAMMA=   2.1093
  9.6535  4.7235  2.2361  2.2361  1.8055  1.1389  1.0038  1.0038  0.8283  0.8283
  0.7071  0.6206  0.6349

 Free energy of the ion-electron system (eV)
  ---------------------------------------------------
  alpha Z        PSCENC =         0.10622807
  Ewald energy   TEWEN  =      3251.66022136
  -Hartree energ DENC   =     -4085.10647312
  -exchange      EXHF   =         0.00000000
  -V(xc)+E(xc)   XCENC  =       122.11749755
  PAW double counting   =      3278.05311896    -3283.68729775
  entropy T*S    EENTRO =        -0.00000000
  eigenvalues    EBANDS =      -498.83288932
  atomic energy  EATOM  =      1252.10595265
  Solvation  Ediel_sol  =      -122.10257160
  ---------------------------------------------------
  free energy    TOTEN  =       -85.68621321 eV

  energy without entropy =      -85.68621321  energy(sigma->0) =      -85.68621321


--------------------------------------------------------------------------------------------------------




--------------------------------------- Iteration      1(  19)  ---------------------------------------


    POTLOK:  cpu time  233.9091: real time  234.0784
    SETDIJ:  cpu time    0.0555: real time    0.0556
    EDDIAG:  cpu time    2.9534: real time    2.9595
  RMM-DIIS:  cpu time   14.8293: real time   14.8576
    ORTHCH:  cpu time    0.1064: real time    0.1067
       DOS:  cpu time    0.0003: real time    0.0003
    CHARGE:  cpu time    1.6863: real time    1.6892
    MIXING:  cpu time    0.3430: real time    0.3435
    --------------------------------------------
      LOOP:  cpu time  253.8834: real time  254.0910

 eigenvalue-minimisations  :   134
 total energy-change (2. order) :-0.1095637E-01  (-0.2143486E-04)
 number of electron      37.0000001 magnetization       3.4634158
 augmentation part        0.8461853 magnetization       2.5174772

 Broyden mixing:
  rms(total) = 0.13170E-01    rms(broyden)= 0.13170E-01
  rms(prec ) = 0.13200E-01
  weight for this iteration     100.00

 eigenvalues of (default mixing * dielectric matrix)
  average eigenvalue GAMMA=   2.1780
 10.2593  5.4192  2.6636  2.1331  2.1331  1.2997  1.0075  1.0075  0.9815  0.8461
  0.7915  0.6989  0.6206  0.6303

 Free energy of the ion-electron system (eV)
  ---------------------------------------------------
  alpha Z        PSCENC =         0.10622807
  Ewald energy   TEWEN  =      3251.66022136
  -Hartree energ DENC   =     -4084.54744213
  -exchange      EXHF   =         0.00000000
  -V(xc)+E(xc)   XCENC  =       122.10610577
  PAW double counting   =      3279.79640246    -3285.43088108
  entropy T*S    EENTRO =        -0.00000000
  eigenvalues    EBANDS =      -498.68827211
  atomic energy  EATOM  =      1252.10595265
  Solvation  Ediel_sol  =      -122.80548456
  ---------------------------------------------------
  free energy    TOTEN  =       -85.69716958 eV

  energy without entropy =      -85.69716958  energy(sigma->0) =      -85.69716958


--------------------------------------------------------------------------------------------------------




--------------------------------------- Iteration      1(  20)  ---------------------------------------


    POTLOK:  cpu time  226.8749: real time  226.8716
    SETDIJ:  cpu time    0.0498: real time    0.0499
    EDDIAG:  cpu time    2.9440: real time    2.9494
  RMM-DIIS:  cpu time   14.3882: real time   14.4171
    ORTHCH:  cpu time    0.1083: real time    0.1086
       DOS:  cpu time    0.0003: real time    0.0003
    CHARGE:  cpu time    1.6277: real time    1.6309
    MIXING:  cpu time    0.3620: real time    0.3626
    --------------------------------------------
      LOOP:  cpu time  246.3551: real time  246.3903

 eigenvalue-minimisations  :   130
 total energy-change (2. order) :-0.4360392E-02  (-0.1469426E-04)
 number of electron      37.0000001 magnetization       2.6819432
 augmentation part        0.8461751 magnetization       1.7360222

 Broyden mixing:
  rms(total) = 0.10776E-01    rms(broyden)= 0.10776E-01
  rms(prec ) = 0.10822E-01
  weight for this iteration     100.00

 eigenvalues of (default mixing * dielectric matrix)
  average eigenvalue GAMMA=   2.2324
 10.8108  6.1102  3.2484  2.1290  2.1290  1.5275  1.0074  1.0074  1.1011  0.9015
  0.8256  0.7471  0.6941  0.6191  0.6280

 Free energy of the ion-electron system (eV)
  ---------------------------------------------------
  alpha Z        PSCENC =         0.10622807
  Ewald energy   TEWEN  =      3251.66022136
  -Hartree energ DENC   =     -4084.43019482
  -exchange      EXHF   =         0.00000000
  -V(xc)+E(xc)   XCENC  =       122.10288330
  PAW double counting   =      3277.99815069    -3283.63371228
  entropy T*S    EENTRO =        -0.00000000
  eigenvalues    EBANDS =      -498.68096455
  atomic energy  EATOM  =      1252.10595265
  Solvation  Ediel_sol  =      -122.93009439
  ---------------------------------------------------
  free energy    TOTEN  =       -85.70152997 eV

  energy without entropy =      -85.70152997  energy(sigma->0) =      -85.70152997


--------------------------------------------------------------------------------------------------------




--------------------------------------- Iteration      1(  21)  ---------------------------------------


    POTLOK:  cpu time  223.8006: real time  223.9632
    SETDIJ:  cpu time    0.0483: real time    0.0484
    EDDIAG:  cpu time    2.9600: real time    2.9667
  RMM-DIIS:  cpu time   14.7767: real time   14.8074
    ORTHCH:  cpu time    0.1060: real time    0.1063
       DOS:  cpu time    0.0002: real time    0.0002
    CHARGE:  cpu time    1.6350: real time    1.6383
    MIXING:  cpu time    0.3872: real time    0.3878
    --------------------------------------------
      LOOP:  cpu time  243.7140: real time  243.9182

 eigenvalue-minimisations  :   132
 total energy-change (2. order) :-0.6028192E-02  (-0.4820770E-04)
 number of electron      37.0000001 magnetization       1.9847828
 augmentation part        0.8461816 magnetization       1.0388969

 Broyden mixing:
  rms(total) = 0.81074E-02    rms(broyden)= 0.81074E-02
  rms(prec ) = 0.81659E-02
  weight for this iteration     100.00

 eigenvalues of (default mixing * dielectric matrix)
  average eigenvalue GAMMA=   2.3693
 11.9552  7.1758  3.9482  2.2361  2.2361  1.8672  1.2066  1.0089  1.0089  0.9901
  0.8830  0.7885  0.6951  0.6699  0.6145  0.6252

 Free energy of the ion-electron system (eV)
  ---------------------------------------------------
  alpha Z        PSCENC =         0.10622807
  Ewald energy   TEWEN  =      3251.66022136
  -Hartree energ DENC   =     -4084.55557299
  -exchange      EXHF   =         0.00000000
  -V(xc)+E(xc)   XCENC  =       122.09990495
  PAW double counting   =      3276.54644976    -3282.18232647
  entropy T*S    EENTRO =        -0.00000000
  eigenvalues    EBANDS =      -498.72866143
  atomic energy  EATOM  =      1252.10595265
  Solvation  Ediel_sol  =      -122.75975407
  ---------------------------------------------------
  free energy    TOTEN  =       -85.70755816 eV

  energy without entropy =      -85.70755816  energy(sigma->0) =      -85.70755816


--------------------------------------------------------------------------------------------------------




--------------------------------------- Iteration      1(  22)  ---------------------------------------


    POTLOK:  cpu time  223.9276: real time  223.9668
    SETDIJ:  cpu time    0.0491: real time    0.0492
    EDDIAG:  cpu time    2.9586: real time    2.9655
  RMM-DIIS:  cpu time   13.9223: real time   13.9510
    ORTHCH:  cpu time    0.1090: real time    0.1093
       DOS:  cpu time    0.0004: real time    0.0004
    CHARGE:  cpu time    1.6247: real time    1.6280
    MIXING:  cpu time    0.4075: real time    0.4079
    --------------------------------------------
      LOOP:  cpu time  242.9994: real time  243.0781

 eigenvalue-minimisations  :   124
 total energy-change (2. order) : 0.1910101E-03  (-0.3560291E-04)
 number of electron      37.0000001 magnetization       1.4593383
 augmentation part        0.8461806 magnetization       0.5135044

 Broyden mixing:
  rms(total) = 0.55217E-02    rms(broyden)= 0.55216E-02
  rms(prec ) = 0.55844E-02
  weight for this iteration     100.00

 eigenvalues of (default mixing * dielectric matrix)
  average eigenvalue GAMMA=   2.5893
 14.6315  8.3676  4.5994  2.4999  2.1786  2.0907  1.3496  1.0084  1.0084  1.1165
  0.9589  0.8630  0.7747  0.6911  0.6461  0.6239  0.6091

 Free energy of the ion-electron system (eV)
  ---------------------------------------------------
  alpha Z        PSCENC =         0.10622807
  Ewald energy   TEWEN  =      3251.66022136
  -Hartree energ DENC   =     -4084.84810045
  -exchange      EXHF   =         0.00000000
  -V(xc)+E(xc)   XCENC  =       122.10328629
  PAW double counting   =      3275.61754703    -3281.25370133
  entropy T*S    EENTRO =        -0.00000000
  eigenvalues    EBANDS =      -498.74987618
  atomic energy  EATOM  =      1252.10595265
  Solvation  Ediel_sol  =      -122.44892460
  ---------------------------------------------------
  free energy    TOTEN  =       -85.70736715 eV

  energy without entropy =      -85.70736715  energy(sigma->0) =      -85.70736715


--------------------------------------------------------------------------------------------------------




--------------------------------------- Iteration      1(  23)  ---------------------------------------


    POTLOK:  cpu time  223.9541: real time  224.0920
    SETDIJ:  cpu time    0.0469: real time    0.0470
    EDDIAG:  cpu time    2.9505: real time    2.9570
  RMM-DIIS:  cpu time   13.7824: real time   13.8106
    ORTHCH:  cpu time    0.1065: real time    0.1068
       DOS:  cpu time    0.0003: real time    0.0003
    CHARGE:  cpu time    1.6270: real time    1.6302
    MIXING:  cpu time    0.4340: real time    0.4348
    --------------------------------------------
      LOOP:  cpu time  242.9018: real time  243.0787

 eigenvalue-minimisations  :   120
 total energy-change (2. order) :-0.1142009E-01  (-0.6895547E-05)
 number of electron      37.0000001 magnetization       1.1589864
 augmentation part        0.8461698 magnetization       0.2131632

 Broyden mixing:
  rms(total) = 0.33144E-02    rms(broyden)= 0.33143E-02
  rms(prec ) = 0.33651E-02
  weight for this iteration     100.00

 eigenvalues of (default mixing * dielectric matrix)
  average eigenvalue GAMMA=   2.8894
 19.4962  9.1650  5.1064  2.9506  2.1673  2.1673  1.6708  1.0090  1.0090  1.0983
  1.0983  0.9267  0.8184  0.7654  0.6883  0.6376  0.6240  0.6101

 Free energy of the ion-electron system (eV)
  ---------------------------------------------------
  alpha Z        PSCENC =         0.10622807
  Ewald energy   TEWEN  =      3251.66022136
  -Hartree energ DENC   =     -4085.19088664
  -exchange      EXHF   =         0.00000000
  -V(xc)+E(xc)   XCENC  =       122.09329033
  PAW double counting   =      3275.46297609    -3281.09898281
  entropy T*S    EENTRO =        -0.00000000
  eigenvalues    EBANDS =      -498.74473029
  atomic energy  EATOM  =      1252.10595265
  Solvation  Ediel_sol  =      -122.11285601
  ---------------------------------------------------
  free energy    TOTEN  =       -85.71878725 eV

  energy without entropy =      -85.71878725  energy(sigma->0) =      -85.71878725


--------------------------------------------------------------------------------------------------------




--------------------------------------- Iteration      1(  24)  ---------------------------------------


    POTLOK:  cpu time  216.8139: real time  216.9822
    SETDIJ:  cpu time    0.0509: real time    0.0507
    EDDIAG:  cpu time    2.9578: real time    2.9620
  RMM-DIIS:  cpu time   13.6657: real time   13.7076
    ORTHCH:  cpu time    0.1075: real time    0.1077
       DOS:  cpu time    0.0003: real time    0.0003
    CHARGE:  cpu time    1.6292: real time    1.6326
    MIXING:  cpu time    0.4611: real time    0.4620
    --------------------------------------------
      LOOP:  cpu time  235.6863: real time  235.9052

 eigenvalue-minimisations  :   121
 total energy-change (2. order) :-0.1211391E-01  (-0.1015677E-04)
 number of electron      37.0000001 magnetization       1.0765597
 augmentation part        0.8461600 magnetization       0.1307405

 Broyden mixing:
  rms(total) = 0.18452E-02    rms(broyden)= 0.18452E-02
  rms(prec ) = 0.18785E-02
  weight for this iteration     100.00

 eigenvalues of (default mixing * dielectric matrix)
  average eigenvalue GAMMA=   3.0093
 22.5856  9.4565  5.3395  3.1935  2.2269  2.2269  1.8145  1.0079  1.0079  1.1533
  1.1533  0.9600  0.9600  0.7935  0.7436  0.6847  0.6321  0.6129  0.6233

 Free energy of the ion-electron system (eV)
  ---------------------------------------------------
  alpha Z        PSCENC =         0.10622807
  Ewald energy   TEWEN  =      3251.66022136
  -Hartree energ DENC   =     -4085.42460982
  -exchange      EXHF   =         0.00000000
  -V(xc)+E(xc)   XCENC  =       122.08129867
  PAW double counting   =      3276.32650624    -3281.96177510
  entropy T*S    EENTRO =        -0.00000000
  eigenvalues    EBANDS =      -498.73733466
  atomic energy  EATOM  =      1252.10595265
  Solvation  Ediel_sol  =      -121.88738858
  ---------------------------------------------------
  free energy    TOTEN  =       -85.73090116 eV

  energy without entropy =      -85.73090116  energy(sigma->0) =      -85.73090116


--------------------------------------------------------------------------------------------------------




--------------------------------------- Iteration      1(  25)  ---------------------------------------


    POTLOK:  cpu time  209.9916: real time  210.1572
    SETDIJ:  cpu time    0.0542: real time    0.0529
    EDDIAG:  cpu time    2.9460: real time    2.9524
  RMM-DIIS:  cpu time   12.7177: real time   12.7440
    ORTHCH:  cpu time    0.1060: real time    0.1062
       DOS:  cpu time    0.0003: real time    0.0003
    CHARGE:  cpu time    1.6304: real time    1.6344
    MIXING:  cpu time    0.4778: real time    0.4779
    --------------------------------------------
      LOOP:  cpu time  227.9240: real time  228.1252

 eigenvalue-minimisations  :   113
 total energy-change (2. order) :-0.1135130E-01  (-0.5749726E-05)
 number of electron      37.0000001 magnetization       1.0337528
 augmentation part        0.8461444 magnetization       0.0879311

 Broyden mixing:
  rms(total) = 0.12469E-02    rms(broyden)= 0.12468E-02
  rms(prec ) = 0.12703E-02
  weight for this iteration     100.00

 eigenvalues of (default mixing * dielectric matrix)
  average eigenvalue GAMMA=   3.0472
 24.2320  9.5799  5.5153  3.4480  2.2058  2.2058  2.1202  1.4990  1.1790  1.0075
  1.0075  1.0062  1.0062  0.8690  0.7921  0.7239  0.6788  0.6153  0.6262  0.6262

 Free energy of the ion-electron system (eV)
  ---------------------------------------------------
  alpha Z        PSCENC =         0.10622807
  Ewald energy   TEWEN  =      3251.66022136
  -Hartree energ DENC   =     -4085.50903586
  -exchange      EXHF   =         0.00000000
  -V(xc)+E(xc)   XCENC  =       122.07068786
  PAW double counting   =      3277.08307994    -3282.71820787
  entropy T*S    EENTRO =        -0.00000000
  eigenvalues    EBANDS =      -498.72694796
  atomic energy  EATOM  =      1252.10595265
  Solvation  Ediel_sol  =      -121.81423065
  ---------------------------------------------------
  free energy    TOTEN  =       -85.74225247 eV

  energy without entropy =      -85.74225247  energy(sigma->0) =      -85.74225247


--------------------------------------------------------------------------------------------------------




--------------------------------------- Iteration      1(  26)  ---------------------------------------


    POTLOK:  cpu time  209.4078: real time  209.6217
    SETDIJ:  cpu time    0.0495: real time    0.0498
    EDDIAG:  cpu time    2.9542: real time    2.9598
  RMM-DIIS:  cpu time   12.7127: real time   12.7382
    ORTHCH:  cpu time    0.1082: real time    0.1084
       DOS:  cpu time    0.0003: real time    0.0003
    CHARGE:  cpu time    1.6338: real time    1.6372
    MIXING:  cpu time    0.5076: real time    0.5093
    --------------------------------------------
      LOOP:  cpu time  227.3742: real time  227.6248

 eigenvalue-minimisations  :   112
 total energy-change (2. order) :-0.7563560E-02  (-0.4924251E-05)
 number of electron      37.0000001 magnetization       1.0139077
 augmentation part        0.8461373 magnetization       0.0680807

 Broyden mixing:
  rms(total) = 0.76810E-03    rms(broyden)= 0.76809E-03
  rms(prec ) = 0.78244E-03
  weight for this iteration     100.00

 eigenvalues of (default mixing * dielectric matrix)
  average eigenvalue GAMMA=   3.0497
 25.0836  9.6503  5.6917  3.8100  2.6497  2.1712  2.1712  1.6977  1.0070  1.0070
  1.1374  1.1374  0.9904  0.9904  0.7969  0.7969  0.7148  0.6707  0.6266  0.6266
  0.6156

 Free energy of the ion-electron system (eV)
  ---------------------------------------------------
  alpha Z        PSCENC =         0.10622807
  Ewald energy   TEWEN  =      3251.66022136
  -Hartree energ DENC   =     -4085.55524922
  -exchange      EXHF   =         0.00000000
  -V(xc)+E(xc)   XCENC  =       122.06285087
  PAW double counting   =      3277.22057951    -3282.85575612
  entropy T*S    EENTRO =        -0.00000000
  eigenvalues    EBANDS =      -498.73747034
  atomic energy  EATOM  =      1252.10595265
  Solvation  Ediel_sol  =      -121.75717280
  ---------------------------------------------------
  free energy    TOTEN  =       -85.74981603 eV

  energy without entropy =      -85.74981603  energy(sigma->0) =      -85.74981603


--------------------------------------------------------------------------------------------------------




--------------------------------------- Iteration      1(  27)  ---------------------------------------


    POTLOK:  cpu time  202.3034: real time  202.3209
    SETDIJ:  cpu time    0.0507: real time    0.0507
    EDDIAG:  cpu time    2.9469: real time    2.9531
  RMM-DIIS:  cpu time   12.3191: real time   12.3450
    ORTHCH:  cpu time    0.1074: real time    0.1077
       DOS:  cpu time    0.0003: real time    0.0003
    CHARGE:  cpu time    1.6714: real time    1.6746
    MIXING:  cpu time    0.5333: real time    0.5343
    --------------------------------------------
      LOOP:  cpu time  219.9324: real time  219.9865

 eigenvalue-minimisations  :   108
 total energy-change (2. order) :-0.3190139E-02  (-0.2232951E-05)
 number of electron      37.0000001 magnetization       1.0064737
 augmentation part        0.8461357 magnetization       0.0606497

 Broyden mixing:
  rms(total) = 0.46680E-03    rms(broyden)= 0.46679E-03
  rms(prec ) = 0.47601E-03
  weight for this iteration     100.00

 eigenvalues of (default mixing * dielectric matrix)
  average eigenvalue GAMMA=   3.0407
 25.5412  9.7221  5.9102  4.3403  2.9001  2.2112  2.2112  1.7765  1.2808  1.2808
  1.0064  1.0064  0.9942  0.9942  0.9261  0.7919  0.7690  0.7019  0.6174  0.6254
  0.6254  0.6618

 Free energy of the ion-electron system (eV)
  ---------------------------------------------------
  alpha Z        PSCENC =         0.10622807
  Ewald energy   TEWEN  =      3251.66022136
  -Hartree energ DENC   =     -4085.57681083
  -exchange      EXHF   =         0.00000000
  -V(xc)+E(xc)   XCENC  =       122.05887978
  PAW double counting   =      3276.98820096    -3282.62345799
  entropy T*S    EENTRO =        -0.00000000
  eigenvalues    EBANDS =      -498.75821634
  atomic energy  EATOM  =      1252.10595265
  Solvation  Ediel_sol  =      -121.71400383
  ---------------------------------------------------
  free energy    TOTEN  =       -85.75300617 eV

  energy without entropy =      -85.75300617  energy(sigma->0) =      -85.75300617


--------------------------------------------------------------------------------------------------------




--------------------------------------- Iteration      1(  28)  ---------------------------------------


    POTLOK:  cpu time  195.4870: real time  195.6335
    SETDIJ:  cpu time    0.0449: real time    0.0450
    EDDIAG:  cpu time    2.9451: real time    2.9519
  RMM-DIIS:  cpu time   10.5572: real time   10.5941
    ORTHCH:  cpu time    0.1078: real time    0.1080
       DOS:  cpu time    0.0003: real time    0.0003
    CHARGE:  cpu time    1.6309: real time    1.6340
    MIXING:  cpu time    0.5696: real time    0.5706
    --------------------------------------------
[...]
     21.92368     22.16822     20.00004         0.009382      0.007740      0.000187
     23.14581     20.00006     20.00004         0.015318      0.000203      0.000235
     21.92383     17.83180     20.00004         0.009146     -0.007063      0.000140
 -----------------------------------------------------------------------------------
    total drift:                               -0.044382     -0.001367     -0.002495


--------------------------------------------------------------------------------------------------------



  FREE ENERGIE OF THE ION-ELECTRON SYSTEM (eV)
  ---------------------------------------------------
  free  energy   TOTEN  =       -85.96760704 eV

  energy  without entropy=      -85.96760704  energy(sigma->0) =      -85.96760704
 
 d Force = 0.7747630E-05[-0.428E-06, 0.159E-04]  d Energy = 0.1490363E-04-0.716E-05
 d Force = 0.3524022E-03[ 0.341E-03, 0.364E-03]  d Ewald  = 0.3524045E-03-0.227E-08


--------------------------------------------------------------------------------------------------------


    POTLOK:  cpu time  141.2792: real time  141.4631


--------------------------------------------------------------------------------------------------------




--------------------------------------------------------------------------------------------------------


    WAVPRE:  cpu time    1.0168: real time    1.0323
    FEWALD:  cpu time    0.0004: real time    0.0004

 real space projection operators:
  total allocation   :       1552.87 KBytes
  max/ min on nodes  :         87.08         39.86

    ORTHCH:  cpu time    1.5255: real time    1.5287
     LOOP+:  cpu time  497.5976: real time  498.4243


--------------------------------------- Iteration     31(   1)  ---------------------------------------


    POTLOK:  cpu time  152.9209: real time  153.1224
    SETDIJ:  cpu time    0.0523: real time    0.0524
     EDDAV:  cpu time   16.9554: real time   16.9894
       DOS:  cpu time    0.0002: real time    0.0002
    CHARGE:  cpu time    1.6003: real time    1.6030
    MIXING:  cpu time    0.1612: real time    0.1614
    --------------------------------------------
      LOOP:  cpu time  171.6904: real time  171.9289

 eigenvalue-minimisations  :   192
 total energy-change (2. order) :-0.1781180E-04  (-0.4976701E-04)
 number of electron      37.0000002 magnetization       1.0000001
 augmentation part        0.8430517 magnetization       0.0535400

 Broyden mixing:
  rms(total) = 0.11027E-02    rms(broyden)= 0.11015E-02
  rms(prec ) = 0.11311E-02
  weight for this iteration     100.00

 Free energy of the ion-electron system (eV)
  ---------------------------------------------------
  alpha Z        PSCENC =         0.10622807
  Ewald energy   TEWEN  =      3250.23019724
  -Hartree energ DENC   =     -4084.55634379
  -exchange      EXHF   =         0.00000000
  -V(xc)+E(xc)   XCENC  =       121.96966528
  PAW double counting   =      3255.57155206    -3261.19625969
  entropy T*S    EENTRO =        -0.00000000
  eigenvalues    EBANDS =      -498.43805469
  atomic energy  EATOM  =      1252.10595265
  Solvation  Ediel_sol  =      -121.64473335
  ---------------------------------------------------
  free energy    TOTEN  =       -85.85179623 eV

  energy without entropy =      -85.85179623  energy(sigma->0) =      -85.85179623


--------------------------------------------------------------------------------------------------------




--------------------------------------- Iteration     31(   2)  ---------------------------------------


    POTLOK:  cpu time  144.6495: real time  144.8567
    SETDIJ:  cpu time    0.0499: real time    0.0499
    EDDIAG:  cpu time    2.9390: real time    2.9445
  RMM-DIIS:  cpu time    8.2885: real time    8.3062
    ORTHCH:  cpu time    0.1069: real time    0.1071
       DOS:  cpu time    0.0004: real time    0.0004
    --------------------------------------------
      LOOP:  cpu time  156.0341: real time  156.2648

 eigenvalue-minimisations  :    99
 total energy-change (2. order) : 0.1119071E-05  (-0.1308168E-05)
 number of electron      37.0000002 magnetization       1.0000001
 augmentation part        0.8430517 magnetization       0.0535400

 Free energy of the ion-electron system (eV)
  ---------------------------------------------------
  alpha Z        PSCENC =         0.10622807
  Ewald energy   TEWEN  =      3250.23019724
  -Hartree energ DENC   =     -4084.55648862
  -exchange      EXHF   =         0.00000000
  -V(xc)+E(xc)   XCENC  =       121.97000230
  PAW double counting   =      3255.72894419    -3261.35374477
  entropy T*S    EENTRO =        -0.00000000
  eigenvalues    EBANDS =      -498.43604193
  atomic energy  EATOM  =      1252.10595265
  Solvation  Ediel_sol  =      -121.64684425
  ---------------------------------------------------
  free energy    TOTEN  =       -85.85179511 eV

  energy without entropy =      -85.85179511  energy(sigma->0) =      -85.85179511


--------------------------------------------------------------------------------------------------------




 average (electrostatic) potential at core
  the test charge radii are     0.6991  0.5201
  (the norm of the test charge is              1.0000)
       1 -59.9512       2 -60.4376       3 -59.9512       4 -60.2439       5 -61.2164
       6 -60.2440       7 -60.6603       8 -60.6054       9 -42.9695      10 -44.1282
      11 -42.9690      12 -42.7881      13 -42.9571      14 -42.7881
 
 
 
 E-fermi :  -7.1187     XC(G=0):  -0.0346     alpha+bet : -0.0150


 spin component 1

 k-point     1 :       0.0000    0.0000    0.0000
  band No.  band energies     occupation 
      1     -22.8108      1.00000
      2     -20.9318      1.00000
      3     -19.7686      1.00000
      4     -19.4443      1.00000
      5     -16.8149      1.00000
      6     -16.0517      1.00000
      7     -14.5560      1.00000
      8     -13.6111      1.00000
      9     -12.6969      1.00000
     10     -12.4289      1.00000
     11     -11.4316      1.00000
     12     -11.3224      1.00000
     13     -10.8678      1.00000
     14      -9.6511      1.00000
     15      -9.3970      1.00000
     16      -9.2571      1.00000
     17      -8.1012      1.00000
     18      -7.6594      1.00000
     19      -7.4187      1.00000
     20      -3.5505      0.00000
     21      -2.3078      0.00000
     22      -1.2726      0.00000
     23      -0.4676      0.00000
     24      -0.4397      0.00000
     25      -0.0241      0.00000
     26      -0.0004      0.00000
     27       0.0344      0.00000
     28       0.0688      0.00000
     29       0.0845      0.00000
     30       0.0851      0.00000
     31       0.1030      0.00000
     32       0.1123      0.00000
     33       0.1131      0.00000
     34       0.1359      0.00000

 spin component 2

 k-point     1 :       0.0000    0.0000    0.0000
  band No.  band energies     occupation 
      1     -22.6562      1.00000
      2     -20.7304      1.00000
      3     -19.7236      1.00000
      4     -19.0997      1.00000
      5     -16.6580      1.00000
      6     -15.9697      1.00000
      7     -14.4758      1.00000
      8     -13.5077      1.00000
      9     -12.6299      1.00000
     10     -12.3713      1.00000
     11     -11.3661      1.00000
     12     -11.3147      1.00000
     13     -10.4711      1.00000
     14      -9.6201      1.00000
     15      -9.3539      1.00000
     16      -8.7385      1.00000
     17      -7.9884      1.00000
     18      -7.5396      1.00000
     19      -6.6220      0.00000
     20      -2.9359      0.00000
     21      -2.1330      0.00000
     22      -1.1993      0.00000
     23      -0.4369      0.00000
     24      -0.0045      0.00000
     25      -0.0036      0.00000
     26       0.0057      0.00000
     27       0.0365      0.00000
     28       0.0754      0.00000
     29       0.0846      0.00000
     30       0.0854      0.00000
     31       0.1063      0.00000
     32       0.1121      0.00000
     33       0.1145      0.00000
     34       0.1456      0.00000


--------------------------------------------------------------------------------------------------------


 soft charge-density along one line, spin component           1
         0         1         2         3         4         5         6         7         8         9
 total charge-density along one line
 
 soft charge-density along one line, spin component           2
         0         1         2         3         4         5         6         7         8         9
 total charge-density along one line
 
 pseudopotential strength for first ion, spin component:           1
 10.326  13.735   0.002  -0.000  -0.001  -0.008   0.000   0.004
 13.735  18.267   0.003  -0.000  -0.002  -0.010   0.000   0.006
  0.002   0.003  -4.439  -0.000  -0.001   8.682   0.000   0.002
 -0.000  -0.000  -0.000  -4.437  -0.000   0.000   8.683   0.000
 -0.001  -0.002  -0.001  -0.000  -4.442   0.002   0.000   8.687
 -0.008  -0.010   8.682   0.000   0.002 -19.124  -0.000  -0.004
  0.000   0.000   0.000   8.683   0.000  -0.000 -19.136   0.000
  0.004   0.006   0.002   0.000   8.687  -0.004   0.000 -19.132
 pseudopotential strength for first ion, spin component:           2
 10.328  13.737   0.003  -0.000  -0.001  -0.009   0.000   0.004
 13.737  18.271   0.003  -0.000  -0.002  -0.011   0.000   0.006
  0.003   0.003  -4.440  -0.000  -0.002   8.684   0.000   0.003
 -0.000  -0.000  -0.000  -4.437  -0.000   0.000   8.683   0.000
 -0.001  -0.002  -0.002  -0.000  -4.443   0.003   0.000   8.688
 -0.009  -0.011   8.684   0.000   0.003 -19.125  -0.000  -0.006
  0.000   0.000   0.000   8.683   0.000  -0.000 -19.134  -0.000
  0.004   0.006   0.003   0.000   8.688  -0.006  -0.000 -19.132
 total augmentation occupancy for first ion, spin component:           1
  7.883  -3.421   0.192  -0.000  -0.205   0.042  -0.000  -0.038
 -3.421   1.529  -0.147   0.000   0.134  -0.026   0.000   0.022
  0.192  -0.147   1.789  -0.000   0.009   0.155  -0.000   0.007
 -0.000   0.000  -0.000   1.096   0.000  -0.000   0.064   0.000
 -0.205   0.134   0.009   0.000   1.867   0.007   0.000   0.170
  0.042  -0.026   0.155  -0.000   0.007   0.014  -0.000   0.001
 -0.000   0.000  -0.000   0.064   0.000  -0.000   0.004   0.000
 -0.038   0.022   0.007   0.000   0.170   0.001   0.000   0.017
 total augmentation occupancy for first ion, spin component:           2
  0.005  -0.006   0.003  -0.000   0.004   0.001  -0.000   0.001
 -0.006   0.004  -0.005   0.000  -0.004  -0.001   0.000  -0.001
  0.003  -0.005  -0.006   0.000  -0.003   0.000   0.000   0.000
 -0.000   0.000   0.000   0.003  -0.000   0.000   0.001  -0.000
  0.004  -0.004  -0.003  -0.000  -0.003   0.000  -0.000   0.000
  0.001  -0.001   0.000   0.000   0.000   0.000   0.000   0.000
 -0.000   0.000   0.000   0.001  -0.000   0.000   0.000   0.000
  0.001  -0.001   0.000  -0.000   0.000   0.000   0.000   0.000


------------------------ aborting loop because EDIFF is reached ----------------------------------------


    CHARGE:  cpu time    1.6054: real time    1.6090
    FORLOC:  cpu time    0.4046: real time    0.4048
    FORNL :  cpu time    4.5494: real time    4.5589
    STRESS:  cpu time   13.8858: real time   13.9153
    FORCOR:  cpu time    8.3421: real time    8.3556
    FORHAR:  cpu time    1.3655: real time    1.3675
    MIXING:  cpu time    0.1626: real time    0.1630
    OFIELD:  cpu time    0.0000: real time    0.0000

 ---------------------------------------------------------------------------------------------

         DFTD3 V3.0 Rev 1        
 Edisp (eV)   -0.11583

 E6    (eV) :    -0.0504
 E8    (eV) :    -0.0655
 % E8        : 56.52
    FORVDW:  cpu time    0.0119: real time    0.0233

  FORCE on cell =-STRESS in cart. coord.  units (eV):
  Direction    XX          YY          ZZ          XY          YZ          ZX
  --------------------------------------------------------------------------------------
  Alpha Z     0.10623     0.10623     0.10623
  Ewald    2243.84131  1253.78400  -247.39558    -0.02577     0.00382    -0.01550
  Hartree  2078.19526  1447.00442   559.34503    -0.01067     0.00245    -0.00349
  E(xc)    -132.32864  -133.84486  -137.28203    -0.00011     0.00001    -0.00009
  Local   -4647.73818 -3072.14643  -723.64993     0.03368    -0.00624     0.01586
  n-local   -42.95054   -43.89019   -35.31838     0.00066    -0.00002     0.00124
  augment    -2.29630    -1.98238    -1.94464     0.00001     0.00000     0.00002
  Kinetic   504.37259   551.13503   585.26688     0.00396    -0.00003     0.00297
  Fock        0.00000     0.00000     0.00000     0.00000     0.00000     0.00000
  vdW        -0.02337     0.02453    -0.00000    -0.00000     0.00000     0.00000
  -------------------------------------------------------------------------------------
  Total       1.17835     0.19035    -0.87242     0.00175    -0.00001     0.00102
  in kB       0.02950     0.00477    -0.02184     0.00004    -0.00000     0.00003
  external pressure =        0.00 kB  Pullay stress =        0.00 kB


 VOLUME and BASIS-vectors are now :
 -----------------------------------------------------------------------------
  energy-cutoff  :      500.00
  volume of cell :    64000.00
      direct lattice vectors                 reciprocal lattice vectors
    40.000000000  0.000000000  0.000000000     0.025000000  0.000000000  0.000000000
     0.000000000 40.000000000  0.000000000     0.000000000  0.025000000  0.000000000
     0.000000000  0.000000000 40.000000000     0.000000000  0.000000000  0.025000000

  length of vectors
    40.000000000 40.000000000 40.000000000     0.025000000  0.025000000  0.025000000


 FORCES acting on ions
    electron-ion (+dipol)            ewald-force                    non-local-force                 convergence-correction
 -----------------------------------------------------------------------------------------------
   -.115E+03 0.155E+03 -.490E-02   0.117E+03 -.158E+03 0.505E-02   -.139E+01 0.267E+01 -.319E-03   0.324E-02 0.368E-02 -.107E-04
   -.191E+03 -.834E-02 -.827E-02   0.193E+03 0.837E-02 0.829E-02   -.230E+01 -.203E-03 -.511E-04   -.164E-02 0.990E-04 -.342E-04
   -.115E+03 -.155E+03 -.771E-02   0.117E+03 0.158E+03 0.789E-02   -.139E+01 -.267E+01 -.426E-03   0.363E-02 -.349E-02 -.568E-05
   0.530E+02 -.166E+03 0.154E-01   -.531E+02 0.170E+03 -.154E-01   0.355E+00 -.344E+01 0.530E-04   0.682E-03 -.186E-02 0.614E-05
   0.668E+02 0.934E-02 0.201E-01   -.633E+02 -.931E-02 -.204E-01   -.353E+01 -.645E-03 -.115E-04   0.475E-02 -.278E-03 -.109E-04
   0.529E+02 0.166E+03 0.158E-01   -.531E+02 -.170E+03 -.158E-01   0.355E+00 0.344E+01 -.203E-04   0.815E-03 0.241E-02 -.135E-04
   0.850E+02 0.238E-01 0.103E-01   -.837E+02 -.246E-01 -.104E-01   -.171E+01 0.700E-03 -.361E-03   0.111E-01 0.285E-04 0.966E-04
   0.204E+03 -.109E-01 -.101E-01   -.209E+03 0.120E-01 0.108E-01   0.552E+01 -.362E-02 -.437E-02   -.756E-02 0.138E-03 0.189E-03
   0.331E+02 0.765E+02 -.351E-03   -.361E+02 -.816E+02 0.388E-03   0.310E+01 0.524E+01 -.190E-03   0.670E-03 0.851E-04 -.965E-06
   0.708E+02 -.610E-02 -.160E-01   -.766E+02 0.660E-02 0.173E-01   0.642E+01 -.685E-03 -.183E-02   -.123E-02 0.215E-04 0.285E-04
   0.331E+02 -.765E+02 -.734E-03   -.361E+02 0.816E+02 0.791E-03   0.310E+01 -.524E+01 -.221E-03   0.709E-03 -.123E-03 0.135E-05
   -.447E+02 -.705E+02 -.376E-02   0.478E+02 0.757E+02 0.405E-02   -.310E+01 -.519E+01 -.293E-03   -.659E-05 -.877E-03 -.378E-05
   -.830E+02 -.262E-02 -.271E-02   0.890E+02 0.287E-02 0.296E-02   -.611E+01 -.139E-03 -.174E-03   -.700E-03 0.115E-04 -.110E-04
   -.447E+02 0.705E+02 -.424E-02   0.478E+02 -.757E+02 0.454E-02   -.310E+01 0.519E+01 -.364E-03   -.182E-04 0.843E-03 -.309E-05
 -----------------------------------------------------------------------------------------------
   0.374E+01 0.405E-03 0.393E-02   -.568E-13 -.142E-13 -.139E-16   -.379E+01 -.392E-02 -.858E-02   0.145E-01 0.693E-03 0.227E-03
 
 
 POSITION                                       TOTAL-FORCE (eV/Angst)
 -----------------------------------------------------------------------------------
     21.36365     18.76505     19.99997         0.009137     -0.006952      0.000199
     22.05628     20.00003     20.00001        -0.010431      0.000101      0.000288
     21.36354     21.23496     19.99999         0.009865      0.007205      0.000120
     19.98761     21.24807     19.99989        -0.013383      0.001952      0.000388
     19.27397     19.99994     19.99987         0.001890     -0.000685      0.000046
     19.98770     18.75184     19.99988        -0.011812     -0.000131      0.000335
     17.88603     19.99991     19.99995        -0.007146      0.000265      0.000060
     16.65664     20.00004     20.00010         0.006394     -0.002011     -0.002814
     19.42543     17.81981     19.99991        -0.006503      0.003433      0.000192
     15.58025     20.00015     20.00039        -0.001964      0.000116      0.000045
     19.42524     22.18008     19.99992        -0.005697     -0.004218      0.000181
     21.92381     22.16827     20.00004         0.006687      0.005990      0.000312
     23.14587     20.00006     20.00004         0.016231      0.000311      0.000382
     21.92397     17.83176     20.00004         0.006730     -0.005375      0.000266
 -----------------------------------------------------------------------------------
    total drift:                               -0.041168     -0.002824     -0.004417


--------------------------------------------------------------------------------------------------------



  FREE ENERGIE OF THE ION-ELECTRON SYSTEM (eV)
  ---------------------------------------------------
  free  energy   TOTEN  =       -85.96762325 eV

  energy  without entropy=      -85.96762325  energy(sigma->0) =      -85.96762325
 
 d Force = 0.1570068E-04[ 0.685E-05, 0.246E-04]  d Energy = 0.1620680E-04-0.506E-06
 d Force = 0.1353349E-01[ 0.135E-01, 0.136E-01]  d Ewald  = 0.1353349E-01-0.317E-08


--------------------------------------------------------------------------------------------------------


    POTLOK:  cpu time  140.9725: real time  141.1710


--------------------------------------------------------------------------------------------------------


 Conjugate gradient step on ions:
 trial-energy change:   -0.000016  1 .order   -0.000016   -0.000025   -0.000007
  (g-gl).g = 0.160E-03      g.g   = 0.169E-03  gl.gl    = 0.211E-03
 g(Force)  = 0.169E-03   g(Stress)= 0.000E+00 ortho     =-0.296E-05
 gamma     =   0.75779
 trial     =   0.14713
 opt step  =   0.20407  (harmonic =   0.20407) maximal distance =0.00033424
 next E    =   -85.967624   (d E  =  -0.00002)


--------------------------------------------------------------------------------------------------------


  
 reached required accuracy - stopping structural energy minimisation
 writing wavefunctions
     LOOP+:  cpu time  507.8591: real time  509.2046
    4ORBIT:  cpu time    0.0000: real time    0.0000

 total amount of memory used by VASP MPI-rank0   700611. kBytes
=======================================================================

   base      :      30000. kBytes
   nonlr-proj:        790. kBytes
   fftplans  :     182426. kBytes
   grid      :     450567. kBytes
   one-center:          6. kBytes
   wavefun   :      36822. kBytes
 
  
  
 General timing and accounting informations for this job:
 ========================================================
  
                  Total CPU time used (sec):    54956.645
                            User time (sec):    52966.154
                          System time (sec):     1990.491
                         Elapsed time (sec):    55032.887
  
                   Maximum memory used (kb):     2336168.
                   Average memory used (kb):           0.
  
                          Minor page faults:    795327683
                          Major page faults:            2
                 Voluntary context switches:      1495495
