 vasp.6.3.2 27Jun22 (build Oct 25 2024 11:36:28) complex                        
  
 executed on             LinuxIFC date 2024.12.30  15:31:17
 running on   80 total cores
 distrk:  each k-point on   80 cores,    1 groups
 distr:  one band on NCORE=  10 cores,    8 groups


--------------------------------------------------------------------------------------------------------


 INCAR:
   SYSTEM = 103_red
   ISTART = 1
   ICHARG = 2
   INIWAV = 1
   METAGGA = R2SCAN
   LASPH = .TRUE.
   NELM = 100
   ALGO = fast   	
   ISPIN = 2
   EDIFF = 1E-05
   ISMEAR = 0
   SIGMA = 0.05
   PREC = accurate
   ENCUT = 500
   LREAL = auto  	
   LWAVE = .TRUE.
   LCHARG = .FALSE.
   LAECHG = .FALSE.
   LVHAR = .FALSE.
   LVTOT = .FALSE.
   EDIFFG = -0.02
   IBRION = 2
   NSW = 500
   ISIF = 2
   POTIM = 0.5
   IVDW = 12
   VDW_A1 = 0.49484001
   VDW_S8 = 0.78981345
   VDW_A2 = 5.73083694
   LPLANE = .TRUE.
   NCORE = 10
   LSCALU = .FALSE.
   NSIM = 4
   LSOL = .TRUE.
   ISOL = 2
   EPSILON_INF = 1.8069
   N_MOL = 0.0115
   P_MOL = 0.82
   R_SOLV = 2.1900
   EB_K = 35.6880
   NELECT = 43

 POTCAR:    PAW_PBE C 08Apr2002                   
 POTCAR:    PAW_PBE O 08Apr2002                   
 POTCAR:    PAW_PBE H 15Jun2001                   
 -----------------------------------------------------------------------------
|                                                                             |
|           W    W    AA    RRRRR   N    N  II  N    N   GGGG   !!!           |
|           W    W   A  A   R    R  NN   N  II  NN   N  G    G  !!!           |
|           W    W  A    A  R    R  N N  N  II  N N  N  G       !!!           |
|           W WW W  AAAAAA  RRRRR   N  N N  II  N  N N  G  GGG   !            |
|           WW  WW  A    A  R   R   N   NN  II  N   NN  G    G                |
|           W    W  A    A  R    R  N    N  II  N    N   GGGG   !!!           |
|                                                                             |
|     You use a magnetic or noncollinear calculation, but did not specify     |
|     the initial magnetic moment with the MAGMOM tag. Note that a            |
|     default of 1 will be used for all atoms. This ferromagnetic setup       |
|     may break the symmetry of the crystal, in particular it may rule        |
|     out finding an antiferromagnetic solution. Thence, we recommend         |
|     setting the initial magnetic moment manually or verifying carefully     |
|     that this magnetic setup is desired.                                    |
|                                                                             |
 -----------------------------------------------------------------------------

 POTCAR:    PAW_PBE C 08Apr2002                   
   SHA256 =  253f7b50bb8d59471dbedb8285d89021f4a42ed1a2c5d38a03a736e69125dd95 C/POTCAR              
   COPYR  = (c) Copyright 08Apr2002 Georg Kresse                                                    
   COPYR  = This file is part of the software VASP. Any use, copying, and all other rights are regul
   COPYR  = If you do not have a valid VASP license, you may not use, copy or distribute this file. 
   VRHFIN =C: s2p2                                                                                  
   LEXCH  = PE                                                                                      
   EATOM  =   147.1560 eV,   10.8157 Ry                                                             
                                                                                                    
   TITEL  = PAW_PBE C 08Apr2002                                                                     
   LULTRA =        F    use ultrasoft PP ?                                                          
   IUNSCR =        1    unscreen: 0-lin 1-nonlin 2-no                                               
   RPACOR =    1.200    partial core radius                                                         
   POMASS =   12.011; ZVAL   =    4.000    mass and valenz                                          
   RCORE  =    1.500    outmost cutoff radius                                                       
   RWIGS  =    1.630; RWIGS  =    0.863    wigner-seitz radius (au A)                               
   ENMAX  =  400.000; ENMIN  =  300.000 eV                                                          
   ICORE  =        2    local potential                                                             
   LCOR   =        T    correct aug charges                                                         
   LPAW   =        T    paw PP                                                                      
   EAUG   =  644.873                                                                                
   DEXC   =    0.000                                                                                
   RMAX   =    1.529    core radius for proj-oper                                                   
   RAUG   =    1.300    factor for augmentation sphere                                              
   RDEP   =    1.501    radius for radial grids                                                     
   RDEPT  =    1.300    core radius for aug-charge                                                  
                                                                                                    
   Atomic configuration                                                                             
    4 entries                                                                                       
     n  l   j            E        occ.                                                              
     1  0  0.50      -273.3789   2.0000                                                             
     2  0  0.50       -13.7508   2.0000                                                             
     2  1  0.50        -5.2854   2.0000                                                             
     3  2  1.50        -5.4423   0.0000                                                             
   Description                                                                                      
     l       E           TYP  RCUT    TYP  RCUT                                                     
     0    -13.7508458     23  1.200                                                                 
     0     -8.2022199     23  1.200                                                                 
     1     -5.2854383     23  1.500                                                                 
     1     34.0145650     23  1.500                                                                 
     2     -5.4423304      7  1.500                                                                 
  local pseudopotential read in
  partial core-charges read in
  partial kinetic energy density read in
  atomic valenz-charges read in
  non local Contribution for L=           0  read in
    real space projection operators read in
  non local Contribution for L=           0  read in
    real space projection operators read in
  non local Contribution for L=           1  read in
    real space projection operators read in
  non local Contribution for L=           1  read in
    real space projection operators read in
    PAW grid and wavefunctions read in
 
   number of l-projection  operators is LMAX  =           4
   number of lm-projection operators is LMMAX =           8
 
 POTCAR:    PAW_PBE O 08Apr2002                   
   SHA256 =  818f92134a0a090dccd8ba1447fa70422a3b330e708bb4f08108d8ae51209ddf O/POTCAR              
   COPYR  = (c) Copyright 08Apr2002 Georg Kresse                                                    
   COPYR  = This file is part of the software VASP. Any use, copying, and all other rights are regul
   COPYR  = If you do not have a valid VASP license, you may not use, copy or distribute this file. 
   VRHFIN =O: s2p4                                                                                  
   LEXCH  = PE                                                                                      
   EATOM  =   432.3788 eV,   31.7789 Ry                                                             
                                                                                                    
   TITEL  = PAW_PBE O 08Apr2002                                                                     
   LULTRA =        F    use ultrasoft PP ?                                                          
   IUNSCR =        1    unscreen: 0-lin 1-nonlin 2-no                                               
   RPACOR =    1.200    partial core radius                                                         
   POMASS =   16.000; ZVAL   =    6.000    mass and valenz                                          
   RCORE  =    1.520    outmost cutoff radius                                                       
   RWIGS  =    1.550; RWIGS  =    0.820    wigner-seitz radius (au A)                               
   ENMAX  =  400.000; ENMIN  =  300.000 eV                                                          
   ICORE  =        2    local potential                                                             
   LCOR   =        T    correct aug charges                                                         
   LPAW   =        T    paw PP                                                                      
   EAUG   =  605.392                                                                                
   DEXC   =    0.000                                                                                
   RMAX   =    1.553    core radius for proj-oper                                                   
   RAUG   =    1.300    factor for augmentation sphere                                              
   RDEP   =    1.550    radius for radial grids                                                     
   RDEPT  =    1.329    core radius for aug-charge                                                  
                                                                                                    
   Atomic configuration                                                                             
    4 entries                                                                                       
     n  l   j            E        occ.                                                              
     1  0  0.50      -514.6923   2.0000                                                             
     2  0  0.50       -23.9615   2.0000                                                             
     2  1  0.50        -9.0305   4.0000                                                             
     3  2  1.50        -9.5241   0.0000                                                             
   Description                                                                                      
     l       E           TYP  RCUT    TYP  RCUT                                                     
     0    -23.9615318     23  1.200                                                                 
     0     -9.5240782     23  1.200                                                                 
     1     -9.0304911     23  1.520                                                                 
     1      8.1634956     23  1.520                                                                 
     2     -9.5240782      7  1.500                                                                 
  local pseudopotential read in
  partial core-charges read in
  partial kinetic energy density read in
  kinetic energy density of atom read in
  atomic valenz-charges read in
  non local Contribution for L=           0  read in
    real space projection operators read in
  non local Contribution for L=           0  read in
    real space projection operators read in
  non local Contribution for L=           1  read in
    real space projection operators read in
  non local Contribution for L=           1  read in
    real space projection operators read in
    PAW grid and wavefunctions read in
 
   number of l-projection  operators is LMAX  =           4
   number of lm-projection operators is LMMAX =           8
 
 POTCAR:    PAW_PBE H 15Jun2001                   
   SHA256 =  030f79b5d3ab3cf0e668861823c8fb652ff669f3e15e46930bd03bfd63a607b6 H/POTCAR              
   COPYR  = (c) Copyright 15Jun2001 Georg Kresse                                                    
   COPYR  = This file is part of the software VASP. Any use, copying, and all other rights are regul
   COPYR  = If you do not have a valid VASP license, you may not use, copy or distribute this file. 
   VRHFIN =H: ultrasoft test                                                                        
   LEXCH  = PE                                                                                      
   EATOM  =    12.4884 eV,    0.9179 Ry                                                             
                                                                                                    
   TITEL  = PAW_PBE H 15Jun2001                                                                     
   LULTRA =        F    use ultrasoft PP ?                                                          
   IUNSCR =        0    unscreen: 0-lin 1-nonlin 2-no                                               
   RPACOR =    0.000    partial core radius                                                         
   POMASS =    1.000; ZVAL   =    1.000    mass and valenz                                          
   RCORE  =    1.100    outmost cutoff radius                                                       
   RWIGS  =    0.700; RWIGS  =    0.370    wigner-seitz radius (au A)                               
   ENMAX  =  250.000; ENMIN  =  200.000 eV                                                          
   RCLOC  =    0.701    cutoff for local pot                                                        
   LCOR   =        T    correct aug charges                                                         
   LPAW   =        T    paw PP                                                                      
   EAUG   =  400.000                                                                                
   RMAX   =    1.123    core radius for proj-oper                                                   
   RAUG   =    1.200    factor for augmentation sphere                                              
   RDEP   =    1.112    radius for radial grids                                                     
   RDEPT  =    0.926    core radius for aug-charge                                                  
                                                                                                    
   Atomic configuration                                                                             
    2 entries                                                                                       
     n  l   j            E        occ.                                                              
     1  0  0.50        -6.4927   1.0000                                                             
     2  1  0.50        -3.4015   0.0000                                                             
   Description                                                                                      
     l       E           TYP  RCUT    TYP  RCUT                                                     
     0     -6.4927494     23  1.100                                                                 
     0      6.8029130     23  1.100                                                                 
     1     -4.0817478     23  1.100                                                                 
  local pseudopotential read in
  atomic valenz-charges read in
  non local Contribution for L=           0  read in
    real space projection operators read in
  non local Contribution for L=           0  read in
    real space projection operators read in
  non local Contribution for L=           1  read in
    real space projection operators read in
    PAW grid and wavefunctions read in
 
   number of l-projection  operators is LMAX  =           3
   number of lm-projection operators is LMMAX =           5
 
 Optimization of the real space projectors (new method)

 maximal supplied QI-value         = 25.13
 optimisation between [QCUT,QGAM] = [ 11.31, 22.87] = [ 35.82,146.48] Ry 
 Optimized for a Real-space Cutoff    1.03 Angstroem

   l    n(q)    QCUT    max X(q) W(low)/X(q) W(high)/X(q)  e(spline) 
   0      7    11.310   115.676    0.20E-03    0.90E-03    0.20E-06
   0      7    11.310    87.132    0.20E-03    0.89E-03    0.19E-06
   1      6    11.310     4.429    0.16E-03    0.28E-03    0.12E-06
   1      6    11.310     2.733    0.12E-03    0.21E-03    0.99E-07
 Optimization of the real space projectors (new method)

 maximal supplied QI-value         = 24.76
 optimisation between [QCUT,QGAM] = [ 11.39, 22.77] = [ 36.31,145.25] Ry 
 Optimized for a Real-space Cutoff    1.10 Angstroem

   l    n(q)    QCUT    max X(q) W(low)/X(q) W(high)/X(q)  e(spline) 
   0      7    11.387    20.381    0.22E-03    0.48E-03    0.18E-06
   0      7    11.387    15.268    0.22E-03    0.52E-03    0.19E-06
   1      7    11.387     5.964    0.22E-03    0.73E-03    0.24E-06
   1      7    11.387     5.382    0.19E-03    0.60E-03    0.21E-06
 Optimization of the real space projectors (new method)

 maximal supplied QI-value         = 34.20
 optimisation between [QCUT,QGAM] = [ 11.29, 22.57] = [ 35.68,142.71] Ry 
 Optimized for a Real-space Cutoff    1.20 Angstroem

   l    n(q)    QCUT    max X(q) W(low)/X(q) W(high)/X(q)  e(spline) 
   0      8    11.287    19.460    0.22E-03    0.50E-03    0.19E-06
   0      8    11.287    12.209    0.21E-03    0.48E-03    0.18E-06
   1      8    11.287     4.655    0.21E-03    0.11E-04    0.26E-06
  PAW_PBE C 08Apr2002                   :
 energy of atom  1       EATOM= -147.1560
 kinetic energy error for atom=    0.0076 (will be added to EATOM!!)
  PAW_PBE O 08Apr2002                   :
 energy of atom  2       EATOM= -432.3788
 kinetic energy error for atom=    0.0224 (will be added to EATOM!!)
  PAW_PBE H 15Jun2001                   :
 energy of atom  3       EATOM=  -12.4884
 kinetic energy error for atom=    0.0020 (will be added to EATOM!!)
 
 
 POSCAR: C O H
  positions in direct lattice
  velocities in cartesian coordinates

 METAGGA = R2SCA    LMAXTAU =  6    LMIXTAU =  F

 exchange correlation table for  LEXCH =        8
   RHO(1)=    0.500       N(1)  =     2000
   RHO(2)=  100.500       N(2)  =     4000
 
 POSCAR: C O H
  positions in direct lattice
  velocities in cartesian coordinates
 
 POSCAR: C O H
  positions in direct lattice
  velocities in cartesian coordinates
 


--------------------------------------------------------------------------------------------------------


 ion  position               nearest neighbor table
   1  0.517  0.461  0.500-  15 1.08   6 1.36   2 1.42
   2  0.548  0.478  0.500-  14 1.08   3 1.41   1 1.42
   3  0.549  0.513  0.500-  13 1.08   4 1.38   2 1.41
   4  0.521  0.533  0.500-  12 1.08   3 1.38   5 1.42
   5  0.489  0.516  0.500-   8 1.39   6 1.42   4 1.42
   6  0.489  0.480  0.500-   1 1.36   9 1.39   5 1.42
   7  0.437  0.497  0.500-  11 1.08   9 1.33   8 1.41
   8  0.456  0.526  0.500-  10 1.08   5 1.39   7 1.41
   9  0.456  0.469  0.500-   7 1.33   6 1.39
  10  0.446  0.551  0.500-   8 1.08
  11  0.410  0.493  0.500-   7 1.08
  12  0.522  0.560  0.500-   4 1.08
  13  0.574  0.525  0.500-   3 1.08
  14  0.571  0.464  0.500-   2 1.08
  15  0.516  0.434  0.500-   1 1.08
 
  LATTYP: Found a simple cubic cell.
 ALAT       =    40.0000000000
  
  Lattice vectors:
  
 A1 = (  40.0000000000,   0.0000000000,   0.0000000000)
 A2 = (   0.0000000000,  40.0000000000,   0.0000000000)
 A3 = (   0.0000000000,   0.0000000000,  40.0000000000)


Analysis of symmetry for initial positions (statically):
=====================================================================
 Subroutine PRICEL returns:
 Original cell was already a primitive cell.
 

 Routine SETGRP: Setting up the symmetry group for a 
 simple cubic supercell.


 Subroutine GETGRP returns: Found  2 space group operations
 (whereof  2 operations were pure point group operations)
 out of a pool of 48 trial point group operations.


The static configuration has the point symmetry C_1h.


Analysis of symmetry for dynamics (positions and initial velocities):
=====================================================================
 Subroutine PRICEL returns:
 Original cell was already a primitive cell.
 

 Routine SETGRP: Setting up the symmetry group for a 
 simple cubic supercell.


 Subroutine GETGRP returns: Found  2 space group operations
 (whereof  2 operations were pure point group operations)
 out of a pool of 48 trial point group operations.


The dynamic configuration has the point symmetry C_1h.


Analysis of constrained symmetry for selective dynamics:
=====================================================================
 Subroutine PRICEL returns:
 Original cell was already a primitive cell.
 

 Routine SETGRP: Setting up the symmetry group for a 
 simple cubic supercell.


 Subroutine GETGRP returns: Found  2 space group operations
 (whereof  2 operations were pure point group operations)
 out of a pool of 48 trial point group operations.


The constrained configuration has the point symmetry C_1h.


Analysis of structural, dynamic, and magnetic symmetry:
=====================================================================
 Subroutine PRICEL returns:
 Original cell was already a primitive cell.
 

 Routine SETGRP: Setting up the symmetry group for a 
 simple cubic supercell.


 Subroutine GETGRP returns: Found  2 space group operations
 (whereof  2 operations were pure point group operations)
 out of a pool of 48 trial point group operations.


The overall configuration has the point symmetry C_1h.


 Subroutine INISYM returns: Found  2 space group operations
 (whereof  2 operations are pure point group operations),
 and found     1 'primitive' translations


----------------------------------------------------------------------------------------

                                     Primitive cell                                     

  volume of cell :   64000.0000

  direct lattice vectors                    reciprocal lattice vectors
    40.000000000  0.000000000  0.000000000     0.025000000  0.000000000  0.000000000
     0.000000000 40.000000000  0.000000000     0.000000000  0.025000000  0.000000000
     0.000000000  0.000000000 40.000000000     0.000000000  0.000000000  0.025000000

  length of vectors
    40.000000000 40.000000000 40.000000000     0.025000000  0.025000000  0.025000000

  position of ions in fractional coordinates (direct lattice)
     0.516809046  0.460786121  0.500000000
     0.547561662  0.478330854  0.500000000
     0.549305824  0.513477926  0.500000000
     0.520695115  0.532725477  0.500000000
     0.489430005  0.515828131  0.500000000
     0.489045018  0.480380716  0.500000000
     0.436993054  0.496558198  0.500000000
     0.456117373  0.526074742  0.500000000
     0.456062493  0.469246534  0.500000000
     0.446056393  0.551075649  0.500000000
     0.410342854  0.492637031  0.500001000
     0.521695361  0.559758329  0.500000000
     0.573609369  0.525359087  0.500000000
     0.570505485  0.463986509  0.500000000
     0.515769947  0.433773696  0.500000000

  ion indices of the primitive-cell ions
   primitive index   ion index
                 1           1
                 2           2
                 3           3
                 4           4
                 5           5
                 6           6
                 7           7
                 8           8
                 9           9
                10          10
                11          11
                12          12
                13          13
                14          14
                15          15

----------------------------------------------------------------------------------------

 
 
 KPOINTS: K-Point Grid                            

Automatic generation of k-mesh.
 Grid dimensions read from file:
 generate k-points for:    1    1    1

 Generating k-lattice:

  Cartesian coordinates                     Fractional coordinates (reciprocal lattice)
     0.025000000  0.000000000  0.000000000     1.000000000  0.000000000  0.000000000
     0.000000000  0.025000000  0.000000000     0.000000000  1.000000000  0.000000000
     0.000000000  0.000000000  0.025000000     0.000000000  0.000000000  1.000000000

  Length of vectors
     0.025000000  0.025000000  0.025000000

  Shift w.r.t. Gamma in fractional coordinates (k-lattice)
     0.000000000  0.000000000  0.000000000

 
 Subroutine IBZKPT returns following result:
 ===========================================
 
 Found      1 irreducible k-points:
 
 Following reciprocal coordinates:
            Coordinates               Weight
  0.000000  0.000000  0.000000      1.000000
 
 Following cartesian coordinates:
            Coordinates               Weight
  0.000000  0.000000  0.000000      1.000000
 


--------------------------------------------------------------------------------------------------------




 Dimension of arrays:
   k-points           NKPTS =      1   k-points in BZ     NKDIM =      1   number of bands    NBANDS=     40
   number of dos      NEDOS =    301   number of ions     NIONS =     15
   non local maximal  LDIM  =      4   non local SUM 2l+1 LMDIM =      8
   total plane-waves  NPLWV = ******
   max r-space proj   IRMAX =   2915   max aug-charges    IRDMAX=   5350
   dimension x,y,z NGX =   294 NGY =  294 NGZ =  294
   dimension x,y,z NGXF=   588 NGYF=  588 NGZF=  588
   support grid    NGXF=   588 NGYF=  588 NGZF=  588
   ions per type =               8   1   6
   NGX,Y,Z   is equivalent  to a cutoff of  12.22, 12.22, 12.22 a.u.
   NGXF,Y,Z  is equivalent  to a cutoff of  24.44, 24.44, 24.44 a.u.

 SYSTEM =  103_red                                 
 POSCAR =  C O H                                   

 Startparameter for this run:
   NWRITE =      2    write-flag & timer
   PREC   = accura    normal or accurate (medium, high low for compatibility)
   ISTART =      1    job   : 0-new  1-cont  2-samecut
   ICHARG =      2    charge: 1-file 2-atom 10-const
   ISPIN  =      2    spin polarized calculation?
   LNONCOLLINEAR =      F non collinear calculations
   LSORBIT =      F    spin-orbit coupling
   INIWAV =      1    electr: 0-lowe 1-rand  2-diag
   LASPH  =      T    aspherical Exc in radial PAW
 Electronic Relaxation 1
   ENCUT  =  500.0 eV  36.75 Ry    6.06 a.u.  72.93 72.93 72.93*2*pi/ulx,y,z
   ENINI  =  500.0     initial cutoff
   ENAUG  =  644.9 eV  augmentation charge cutoff
   NELM   =    100;   NELMIN=  2; NELMDL=  0     # of ELM steps 
   EDIFF  = 0.1E-04   stopping-criterion for ELM
   LREAL  =      T    real-space projection
   NLSPLINE    = F    spline interpolate recip. space projectors
   LCOMPAT=      F    compatible to vasp.4.4
   GGA_COMPAT  = T    GGA compatible to vasp.4.4-vasp.4.6
   LMAXPAW     = -100 max onsite density
   LMAXMIX     =    2 max onsite mixed and CHGCAR
   VOSKOWN=      0    Vosko Wilk Nusair interpolation
   ROPT   =   -0.00025  -0.00025  -0.00025
 Ionic relaxation
   EDIFFG = -.2E-01   stopping-criterion for IOM
   NSW    =    500    number of steps for IOM
   NBLOCK =      1;   KBLOCK =    500    inner block; outer block 
   IBRION =      2    ionic relax: 0-MD 1-quasi-New 2-CG
   NFREE  =      1    steps in history (QN), initial steepest desc. (CG)
   ISIF   =      2    stress and relaxation
   IWAVPR =     11    prediction:  0-non 1-charg 2-wave 3-comb
   ISYM   =      2    0-nonsym 1-usesym 2-fastsym
   LCORR  =      T    Harris-Foulkes like correction to forces

   POTIM  = 0.5000    time-step for ionic-motion
   TEIN   =    0.0    initial temperature
   TEBEG  =    0.0;   TEEND  =   0.0 temperature during run
   SMASS  =  -3.00    Nose mass-parameter (am)
   estimated Nose-frequenzy (Omega)   =  0.10E-29 period in steps = 0.13E+47 mass=  -0.366E-25a.u.
   SCALEE = 1.0000    scale energy and forces
   NPACO  =    256;   APACO  = 10.0  distance and # of slots for P.C.
   PSTRESS=    0.0 pullay stress

  Mass of Ions in am
   POMASS =  12.01 16.00  1.00
  Ionic Valenz
   ZVAL   =   4.00  6.00  1.00
  Atomic Wigner-Seitz radii
   RWIGS  =  -1.00 -1.00 -1.00
  virtual crystal weights 
   VCA    =   1.00  1.00  1.00
   NELECT =      43.0000    total number of electrons
   NUPDOWN=      -1.0000    fix difference up-down

 DOS related values:
   EMIN   =  10.00;   EMAX   =-10.00  energy-range for DOS
   EFERMI =   0.00
   ISMEAR =     0;   SIGMA  =   0.05  broadening in eV -4-tet -1-fermi 0-gaus

 Electronic relaxation 2 (details)
   IALGO  =     68    algorithm
   LDIAG  =      T    sub-space diagonalisation (order eigenvalues)
   LSUBROT=      F    optimize rotation matrix (better conditioning)
   TURBO    =      0    0=normal 1=particle mesh
   IRESTART =      0    0=no restart 2=restart with 2 vectors
   NREBOOT  =      0    no. of reboots
   NMIN     =      0    reboot dimension
   EREF     =   0.00    reference energy to select bands
   IMIX   =      4    mixing-type and parameters
     AMIX     =   0.40;   BMIX     =  1.00
     AMIX_MAG =   1.60;   BMIX_MAG =  1.00
     AMIN     =   0.10
     WC   =   100.;   INIMIX=   1;  MIXPRE=   1;  MAXMIX= -45

 Intra band minimization:
   WEIMIN = 0.0010     energy-eigenvalue tresh-hold
   EBREAK =  0.63E-07  absolut break condition
   DEPER  =   0.30     relativ break condition  

   TIME   =   0.40     timestep for ELM

  volume/ion in A,a.u.               =    4266.67     28792.89
  Fermi-wavevector in a.u.,A,eV,Ry     =   0.143385  0.270959  0.279726  0.020559
  Thomas-Fermi vector in A             =   0.807432
 
 Write flags
   LWAVE        =      T    write WAVECAR
   LDOWNSAMPLE  =      F    k-point downsampling of WAVECAR
   LCHARG       =      F    write CHGCAR
   LVTOT        =      F    write LOCPOT, total local potential
   LVHAR        =      F    write LOCPOT, Hartree potential only
   LELF         =      F    write electronic localiz. function (ELF)
   LORBIT       =      0    0 simple, 1 ext, 2 COOP (PROOUT), +10 PAW based schemes


 Dipole corrections
   LMONO  =      F    monopole corrections only (constant potential shift)
   LDIPOL =      F    correct potential (dipole corrections)
   IDIPOL =      0    1-x, 2-y, 3-z, 4-all directions 
   EPSILON=  1.0000000 bulk dielectric constant

 Exchange correlation treatment:
   GGA     =    --    GGA type
   LEXCH   =     8    internal setting for exchange type
   LIBXC   =     F    Libxc                    
   VOSKOWN =     0    Vosko Wilk Nusair interpolation
   LHFCALC =     F    Hartree Fock is set to
   LHFONE  =     F    Hartree Fock one center treatment
   AEXX    =    0.0000 exact exchange contribution

 Linear response parameters
   LEPSILON=     F    determine dielectric tensor
   LRPA    =     F    only Hartree local field effects (RPA)
   LNABLA  =     F    use nabla operator in PAW spheres
   LVEL    =     F    velocity operator in full k-point grid
   CSHIFT  =0.1000    complex shift for real part using Kramers Kronig
   OMEGAMAX=  -1.0    maximum frequency
   DEG_THRESHOLD= 0.2000000E-02 threshold for treating states as degnerate
   RTIME   =   -0.100 relaxation time in fs
  (WPLASMAI=    0.000 imaginary part of plasma frequency in eV, 0.658/RTIME)
   DFIELD  = 0.0000000 0.0000000 0.0000000 field for delta impulse in time
 
  Optional k-point grid parameters
   LKPOINTS_OPT  =     F    use optional k-point grid
   KPOINTS_OPT_MODE=     1    mode for optional k-point grid
 
 Orbital magnetization related:
   ORBITALMAG=     F  switch on orbital magnetization
   LCHIMAG   =     F  perturbation theory with respect to B field
   DQ        =  0.001000  dq finite difference perturbation B field
   LLRAUG    =     F  two centre corrections for induced B field

 Solvation model:
   LSOL             =     T         switch on solvation model
   LSOL_SCF         =     T         include solvation in SCF
   ISOL             =     2         solvation model type
   EFERMI_ref       =  0.000000         reference Fermi level
   capacitance_init =  1.000000         initial capacitance
 Nonlinear solvation model:
   LNLDIEL     =     T         switch on non-linear dielectric mode
   LNLION      =     T         switch on non-linear ionic mode
   LNLTEST     =     F         test non-linear model in linear regime
   I_NLOC_SOL  =     1         type of nonlocal dielectric response
   NC_K        =  0.015000     cutoff charge density for cavities (1/Angstrom**3)
   TAU         =  0.000879     cavity formation energy (eV/Angstrom**2)
   SIGMA_K     =  0.600000     cavity width
   A_K         =  0.125000     smoothing length (Angstrom)
   R_SOLV      =  2.190000     solvent radius (Angstrom)
   R_CAV       =  0.000000     cavity radius (Angstrom)
   R_DIEL      =  1.000000     dielectric radius (Angstrom)
   R_ION       =  0.000000     ionic radius (Angstrom)
   R_B         =  0.000000     bound charge radius (Angstrom)
   SOLTEMP     =298.000000     solvent temperature (K)
   EB_K        = 35.688000     relative permittivity of the bulk solvent
   EPSILON_INF =  1.806900     optical relative permittivity of bulk solvent
   N_MOL       =  0.011500     molar density of solvent (1/Angstrom**3)
   P_MOL       =  0.820000     solvent dipole moment (e*Angstrom)
   C_MOLAR     =  0.000000     electrolyte concentration (mol/L)
   LAMBDA_D_K  =  0.000000     Debye length (Angstrom)
   ZION        =  1.000000     charge of ions in electrolyte (e)
   D_ION       = -1.000000     minimum ion packing diameter (Angstrom)



--------------------------------------------------------------------------------------------------------


 conjugate gradient relaxation of ions
   using selective dynamics as specified on POSCAR
 charge density and potential will be updated during run
 spin polarized calculation
 RMM-DIIS sequential band-by-band and
  variant of blocked Davidson during initial phase
 perform sub-space diagonalisation
    before iterative eigenvector-optimisation
 modified Broyden-mixing scheme, WC =      100.0
 initial mixing is a Kerker type mixing with AMIX =  0.4000 and BMIX =      1.0000
 Hartree-type preconditioning will be used
 using additional bands           18
 real space projection scheme for non local part
 use partial core corrections
 calculate Harris-corrections to forces 
   (improved forces if not selfconsistent)
 use gradient corrections 
 use of overlap-Matrix (Vanderbilt PP)
 Gauss-broadening in eV      SIGMA  =   0.05


--------------------------------------------------------------------------------------------------------


  energy-cutoff  :      500.00
  volume of cell :    64000.00
      direct lattice vectors                 reciprocal lattice vectors
    40.000000000  0.000000000  0.000000000     0.025000000  0.000000000  0.000000000
     0.000000000 40.000000000  0.000000000     0.000000000  0.025000000  0.000000000
     0.000000000  0.000000000 40.000000000     0.000000000  0.000000000  0.025000000

  length of vectors
    40.000000000 40.000000000 40.000000000     0.025000000  0.025000000  0.025000000


 
 old parameters found on file WAVECAR:
  energy-cutoff  :      500.00
  volume of cell :    64000.00
      direct lattice vectors                 reciprocal lattice vectors
    40.000000000  0.000000000  0.000000000     0.025000000  0.000000000  0.000000000
     0.000000000 40.000000000  0.000000000     0.000000000  0.025000000  0.000000000
     0.000000000  0.000000000 40.000000000     0.000000000  0.000000000  0.025000000

  length of vectors

 
 k-points in units of 2pi/SCALE and weight: K-Point Grid                            
   0.00000000  0.00000000  0.00000000       1.000
 
 k-points in reciprocal lattice and weights: K-Point Grid                            
   0.00000000  0.00000000  0.00000000       1.000
 
 position of ions in fractional coordinates (direct lattice) 
   0.51680905  0.46078612  0.50000000
   0.54756166  0.47833085  0.50000000
   0.54930582  0.51347793  0.50000000
   0.52069511  0.53272548  0.50000000
   0.48943000  0.51582813  0.50000000
   0.48904502  0.48038072  0.50000000
   0.43699305  0.49655820  0.50000000
   0.45611737  0.52607474  0.50000000
   0.45606249  0.46924653  0.50000000
   0.44605639  0.55107565  0.50000000
   0.41034285  0.49263703  0.50000100
   0.52169536  0.55975833  0.50000000
   0.57360937  0.52535909  0.50000000
   0.57050549  0.46398651  0.50000000
   0.51576995  0.43377370  0.50000000
 
 position of ions in cartesian coordinates  (Angst):
  20.67236183 18.43144483 20.00000000
  21.90246648 19.13323417 20.00000000
  21.97223296 20.53911704 20.00000000
  20.82780459 21.30901910 20.00000000
  19.57720020 20.63312523 20.00000000
  19.56180074 19.21522864 20.00000000
  17.47972216 19.86232793 20.00000000
  18.24469494 21.04298967 20.00000000
  18.24249972 18.76986135 20.00000000
  17.84225570 22.04302597 20.00000000
  16.41371418 19.70548122 20.00004000
  20.86781446 22.39033316 20.00000000
  22.94437476 21.01436349 20.00000000
  22.82021941 18.55946036 20.00000000
  20.63079786 17.35094785 20.00000000
 


--------------------------------------------------------------------------------------------------------


 k-point   1 :   0.0000 0.0000 0.0000  plane waves: 1624525

 maximum and minimum number of plane-waves per node :    162473   162437

 maximum number of plane-waves:   1624525
 maximum index in each direction: 
   IXMAX=   72   IYMAX=   72   IZMAX=   72
   IXMIN=  -72   IYMIN=  -72   IZMIN=  -72


 real space projection operators:
  total allocation   :       1677.96 KBytes
  max/ min on nodes  :        174.52        160.09


 parallel 3D FFT for wavefunctions:
    minimum data exchange during FFTs selected (reduces bandwidth)
 parallel 3D FFT for charge:
    minimum data exchange during FFTs selected (reduces bandwidth)


 total amount of memory used by VASP MPI-rank0   886812. kBytes
=======================================================================

   base      :      30000. kBytes
   nonlr-proj:        941. kBytes
   fftplans  :     167689. kBytes
   grid      :     662171. kBytes
   one-center:         12. kBytes
   wavefun   :      25999. kBytes
 
     INWAV:  cpu time      7.8053: real time      7.8253
 Broyden mixing: mesh for mixing (old mesh)
   NGX =145   NGY =145   NGZ =145
  (NGX  =588   NGY  =588   NGZ  =588)
  gives a total of ****** points

 initial charge density was supplied:
 charge density of overlapping atoms calculated
 number of electron      44.0000000 magnetization      15.0000000
 keeping initial charge density in first step


--------------------------------------------------------------------------------------------------------


 Maximum index for non-local projection operator          306
 Maximum index for augmentation-charges          322 (set IRDMAX)


--------------------------------------------------------------------------------------------------------


 First call to EWALD:  gamma=   0.044
 Maximum number of real-space cells 3x 3x 3
 Maximum number of reciprocal cells 3x 3x 3

    FEWALD:  cpu time      0.0053: real time      0.0053


--------------------------------------- Iteration      1(   1)  ---------------------------------------


    POTLOK:  cpu time     13.3572: real time     13.3696
    SETDIJ:  cpu time      0.4306: real time      0.4312
     EDDAV:  cpu time     80.7498: real time     80.9176
       DOS:  cpu time      0.0171: real time      0.0171
    CHARGE:  cpu time     58.4742: real time     58.6264
    MIXING:  cpu time      0.4222: real time      0.4211
    --------------------------------------------
      LOOP:  cpu time    153.4512: real time    153.7831

 eigenvalue-minimisations  :   208
 total energy-change (2. order) :-0.9970297E+02  (-0.4369826E+01)
 number of electron      42.9999996 magnetization      14.4606110
 augmentation part        1.5050234 magnetization      13.5533681

 Broyden mixing:
  rms(total) = 0.23626E+01    rms(broyden)= 0.23623E+01
  rms(prec ) = 0.23814E+01
  weight for this iteration     100.00

 Free energy of the ion-electron system (eV)
  ---------------------------------------------------
  alpha Z        PSCENC =         0.13892279
  Ewald energy   TEWEN  =      4458.87408054
  -Hartree energ DENC   =     -5615.28928280
  -exchange      EXHF   =         0.00000000
  -V(xc)+E(xc)   XCENC  =       176.42631898
  PAW double counting   =      1197.20214700    -1216.78604868
  entropy T*S    EENTRO =        -0.00000000
  eigenvalues    EBANDS =      -784.73149562
  atomic energy  EATOM  =      1684.46238724
  Solvation  Ecorr_sol  =         0.00000000
  ---------------------------------------------------
  free energy    TOTEN  =       -99.70297053 eV

  energy without entropy =      -99.70297053  energy(sigma->0) =      -99.70297053


--------------------------------------------------------------------------------------------------------




--------------------------------------- Iteration      1(   2)  ---------------------------------------


    --------------------------------------------
      INIT:  cpu time      0.2663: real time      0.2660
  FINALIZE:  cpu time     24.6704: real time     24.6872
    --------------------------------------------
    POTLOK:  cpu time     35.4429: real time     35.4850
    SETDIJ:  cpu time      0.4299: real time      0.4308
    EDDIAG:  cpu time     10.4030: real time     10.4249
  RMM-DIIS:  cpu time     55.4050: real time     55.5338
    ORTHCH:  cpu time      0.1895: real time      0.1900
       DOS:  cpu time      0.0025: real time      0.0025
    CHARGE:  cpu time     50.5909: real time     50.7642
    MIXING:  cpu time      0.2271: real time      0.2274
    --------------------------------------------
      LOOP:  cpu time    152.6907: real time    153.0585

 eigenvalue-minimisations  :   164
 total energy-change (2. order) : 0.9131790E+01  (-0.4409890E+01)
 number of electron      42.9999996 magnetization      13.8928110
 augmentation part        1.5198190 magnetization      12.9192757

 Broyden mixing:
  rms(total) = 0.11637E+01    rms(broyden)= 0.11636E+01
  rms(prec ) = 0.11778E+01
  weight for this iteration     100.00

 eigenvalues of (default mixing * dielectric matrix)
  average eigenvalue GAMMA=   0.9300
  0.9300

 Free energy of the ion-electron system (eV)
  ---------------------------------------------------
  alpha Z        PSCENC =         0.13892279
  Ewald energy   TEWEN  =      4458.87408054
  -Hartree energ DENC   =     -5659.74679299
  -exchange      EXHF   =         0.00000000
  -V(xc)+E(xc)   XCENC  =       186.46320273
  PAW double counting   =      1985.96089494    -2006.29872813
  entropy T*S    EENTRO =        -0.00000000
  eigenvalues    EBANDS =      -727.62842635
  atomic energy  EATOM  =      1684.46238724
  Solvation  Ecorr_sol  =       -12.79672146
  ---------------------------------------------------
  free energy    TOTEN  =       -90.57118069 eV

  energy without entropy =      -90.57118069  energy(sigma->0) =      -90.57118069


--------------------------------------------------------------------------------------------------------




--------------------------------------- Iteration      1(   3)  ---------------------------------------


    --------------------------------------------
      INIT:  cpu time      0.2584: real time      0.2587
  FINALIZE:  cpu time     27.3559: real time     27.3702
    --------------------------------------------
    POTLOK:  cpu time     37.3023: real time     37.3438
    SETDIJ:  cpu time      0.4233: real time      0.4242
    EDDIAG:  cpu time      9.5504: real time      9.5701
  RMM-DIIS:  cpu time     61.6664: real time     61.7963
    ORTHCH:  cpu time      0.2169: real time      0.2174
       DOS:  cpu time      0.0002: real time      0.0002
    CHARGE:  cpu time     50.6833: real time     50.8294
    MIXING:  cpu time      0.2205: real time      0.2206
    --------------------------------------------
      LOOP:  cpu time    160.0633: real time    160.4021

 eigenvalue-minimisations  :   189
 total energy-change (2. order) :-0.1241159E+02  (-0.1466404E+01)
 number of electron      42.9999995 magnetization      13.0875673
 augmentation part        1.5078757 magnetization      12.1083777

 Broyden mixing:
  rms(total) = 0.70073E+00    rms(broyden)= 0.70070E+00
  rms(prec ) = 0.70811E+00
  weight for this iteration     100.00

 eigenvalues of (default mixing * dielectric matrix)
  average eigenvalue GAMMA=   1.1586
  0.7900  1.5273

 Free energy of the ion-electron system (eV)
  ---------------------------------------------------
  alpha Z        PSCENC =         0.13892279
  Ewald energy   TEWEN  =      4458.87408054
  -Hartree energ DENC   =     -5689.23927866
  -exchange      EXHF   =         0.00000000
  -V(xc)+E(xc)   XCENC  =       178.56476683
  PAW double counting   =      2689.02446633    -2709.81219158
  entropy T*S    EENTRO =        -0.00000000
  eigenvalues    EBANDS =      -690.57857736
  atomic energy  EATOM  =      1684.46238724
  Solvation  Ecorr_sol  =       -24.41734691
  ---------------------------------------------------
  free energy    TOTEN  =      -102.98277077 eV

  energy without entropy =     -102.98277077  energy(sigma->0) =     -102.98277077


--------------------------------------------------------------------------------------------------------




--------------------------------------- Iteration      1(   4)  ---------------------------------------


    --------------------------------------------
      INIT:  cpu time      0.2454: real time      0.2452
  FINALIZE:  cpu time     27.2563: real time     27.2630
    --------------------------------------------
    POTLOK:  cpu time     37.1928: real time     37.2234
    SETDIJ:  cpu time      0.4240: real time      0.4249
    EDDIAG:  cpu time      9.5293: real time      9.5490
  RMM-DIIS:  cpu time     71.6327: real time     71.7844
    ORTHCH:  cpu time      0.2154: real time      0.2160
       DOS:  cpu time      0.0024: real time      0.0024
    CHARGE:  cpu time     50.3588: real time     50.5014
    MIXING:  cpu time      0.2134: real time      0.2137
    --------------------------------------------
      LOOP:  cpu time    169.5688: real time    169.9150

 eigenvalue-minimisations  :   227
 total energy-change (2. order) :-0.4642134E+01  (-0.7182263E+00)
 number of electron      42.9999995 magnetization      12.4307608
 augmentation part        1.4878014 magnetization      11.4586778

 Broyden mixing:
  rms(total) = 0.38572E+00    rms(broyden)= 0.38569E+00
  rms(prec ) = 0.39014E+00
  weight for this iteration     100.00

 eigenvalues of (default mixing * dielectric matrix)
  average eigenvalue GAMMA=   1.2747
  2.1260  1.0113  0.6867

 Free energy of the ion-electron system (eV)
  ---------------------------------------------------
  alpha Z        PSCENC =         0.13892279
  Ewald energy   TEWEN  =      4458.87408054
  -Hartree energ DENC   =     -5707.76628089
  -exchange      EXHF   =         0.00000000
  -V(xc)+E(xc)   XCENC  =       176.59214698
  PAW double counting   =      3470.78055527    -3491.71377842
  entropy T*S    EENTRO =        -0.00000000
  eigenvalues    EBANDS =      -658.90052806
  atomic energy  EATOM  =      1684.46238724
  Solvation  Ecorr_sol  =       -40.09241014
  ---------------------------------------------------
  free energy    TOTEN  =      -107.62490469 eV

  energy without entropy =     -107.62490469  energy(sigma->0) =     -107.62490469


--------------------------------------------------------------------------------------------------------




--------------------------------------- Iteration      1(   5)  ---------------------------------------


    --------------------------------------------
      INIT:  cpu time      0.2428: real time      0.2422
  FINALIZE:  cpu time     27.0742: real time     27.0818
    --------------------------------------------
    POTLOK:  cpu time     37.0030: real time     37.0337
    SETDIJ:  cpu time      0.4269: real time      0.4278
    EDDIAG:  cpu time      9.5060: real time      9.5271
  RMM-DIIS:  cpu time     75.1208: real time     75.2806
    ORTHCH:  cpu time      0.2064: real time      0.2069
       DOS:  cpu time      0.0021: real time      0.0021
    CHARGE:  cpu time     50.4626: real time     50.5955
    MIXING:  cpu time      0.1975: real time      0.1973
    --------------------------------------------
      LOOP:  cpu time    172.9251: real time    173.2709

 eigenvalue-minimisations  :   245
 total energy-change (2. order) :-0.8531793E+00  (-0.1687553E+00)
 number of electron      42.9999995 magnetization      11.5710654
 augmentation part        1.4799397 magnetization      10.6027961

 Broyden mixing:
  rms(total) = 0.25640E+00    rms(broyden)= 0.25638E+00
  rms(prec ) = 0.26076E+00
  weight for this iteration     100.00

 eigenvalues of (default mixing * dielectric matrix)
  average eigenvalue GAMMA=   1.3449
  2.4365  1.4305  0.8553  0.6571

 Free energy of the ion-electron system (eV)
  ---------------------------------------------------
  alpha Z        PSCENC =         0.13892279
  Ewald energy   TEWEN  =      4458.87408054
  -Hartree energ DENC   =     -5702.20152705
  -exchange      EXHF   =         0.00000000
  -V(xc)+E(xc)   XCENC  =       176.36391089
  PAW double counting   =      3792.35289202    -3813.24994078
  entropy T*S    EENTRO =        -0.00000000
  eigenvalues    EBANDS =      -654.17428349
  atomic energy  EATOM  =      1684.46238724
  Solvation  Ecorr_sol  =       -51.04452612
  ---------------------------------------------------
  free energy    TOTEN  =      -108.47808396 eV

  energy without entropy =     -108.47808396  energy(sigma->0) =     -108.47808396


--------------------------------------------------------------------------------------------------------




--------------------------------------- Iteration      1(   6)  ---------------------------------------


    --------------------------------------------
      INIT:  cpu time      0.2423: real time      0.2423
  FINALIZE:  cpu time     25.6411: real time     25.6442
    --------------------------------------------
    POTLOK:  cpu time     35.6243: real time     35.6506
    SETDIJ:  cpu time      0.4294: real time      0.4303
    EDDIAG:  cpu time      9.5186: real time      9.5387
  RMM-DIIS:  cpu time     74.3836: real time     74.5443
    ORTHCH:  cpu time      0.2086: real time      0.2091
       DOS:  cpu time      0.0016: real time      0.0016
    CHARGE:  cpu time     50.5826: real time     50.7469
    MIXING:  cpu time      0.1980: real time      0.1984
    --------------------------------------------
      LOOP:  cpu time    170.9468: real time    171.3199

 eigenvalue-minimisations  :   241
 total energy-change (2. order) :-0.4183678E-02  (-0.6625753E-01)
 number of electron      42.9999995 magnetization      10.8357746
 augmentation part        1.4761692 magnetization       9.8714154

 Broyden mixing:
  rms(total) = 0.16102E+00    rms(broyden)= 0.16101E+00
  rms(prec ) = 0.16492E+00
  weight for this iteration     100.00

 eigenvalues of (default mixing * dielectric matrix)
  average eigenvalue GAMMA=   1.4278
  2.8769  1.8498  1.0325  0.7510  0.6287

 Free energy of the ion-electron system (eV)
  ---------------------------------------------------
  alpha Z        PSCENC =         0.13892279
  Ewald energy   TEWEN  =      4458.87408054
  -Hartree energ DENC   =     -5686.65444679
  -exchange      EXHF   =         0.00000000
  -V(xc)+E(xc)   XCENC  =       176.48637121
  PAW double counting   =      3985.18281232    -4005.91794839
  entropy T*S    EENTRO =        -0.00000000
  eigenvalues    EBANDS =      -658.41834442
  atomic energy  EATOM  =      1684.46238724
  Solvation  Ecorr_sol  =       -62.63610214
  ---------------------------------------------------
  free energy    TOTEN  =      -108.48226763 eV

  energy without entropy =     -108.48226763  energy(sigma->0) =     -108.48226763


--------------------------------------------------------------------------------------------------------




--------------------------------------- Iteration      1(   7)  ---------------------------------------


    --------------------------------------------
      INIT:  cpu time      0.2416: real time      0.2421
  FINALIZE:  cpu time     27.1448: real time     27.1655
    --------------------------------------------
    POTLOK:  cpu time     37.0801: real time     37.1265
    SETDIJ:  cpu time      0.4290: real time      0.4299
    EDDIAG:  cpu time      9.5164: real time      9.5369
  RMM-DIIS:  cpu time     75.5805: real time     75.7403
    ORTHCH:  cpu time      0.1944: real time      0.1949
       DOS:  cpu time      0.0029: real time      0.0029
    CHARGE:  cpu time     50.5119: real time     50.6481
    MIXING:  cpu time      0.2015: real time      0.2017
    --------------------------------------------
      LOOP:  cpu time    173.5168: real time    173.8813

 eigenvalue-minimisations  :   246
 total energy-change (2. order) : 0.5115302E+00  (-0.3408434E-01)
 number of electron      42.9999995 magnetization      10.0894463
 augmentation part        1.4742333 magnetization       9.1275365

 Broyden mixing:
  rms(total) = 0.11872E+00    rms(broyden)= 0.11872E+00
  rms(prec ) = 0.12195E+00
  weight for this iteration     100.00

 eigenvalues of (default mixing * dielectric matrix)
  average eigenvalue GAMMA=   1.4235
  3.1083  2.0407  1.1001  0.9490  0.7154  0.6276

 Free energy of the ion-electron system (eV)
  ---------------------------------------------------
  alpha Z        PSCENC =         0.13892279
  Ewald energy   TEWEN  =      4458.87408054
  -Hartree energ DENC   =     -5674.05523669
  -exchange      EXHF   =         0.00000000
  -V(xc)+E(xc)   XCENC  =       176.93583322
  PAW double counting   =      4040.10199145    -4060.76205534
  entropy T*S    EENTRO =        -0.00000000
  eigenvalues    EBANDS =      -662.71064232
  atomic energy  EATOM  =      1684.46238724
  Solvation  Ecorr_sol  =       -70.95601831
  ---------------------------------------------------
  free energy    TOTEN  =      -107.97073741 eV

  energy without entropy =     -107.97073741  energy(sigma->0) =     -107.97073741


--------------------------------------------------------------------------------------------------------




--------------------------------------- Iteration      1(   8)  ---------------------------------------


    --------------------------------------------
      INIT:  cpu time      0.2427: real time      0.2428
  FINALIZE:  cpu time     28.8300: real time     28.8760
    --------------------------------------------
    POTLOK:  cpu time     38.7480: real time     38.8292
    SETDIJ:  cpu time      0.4277: real time      0.4296
    EDDIAG:  cpu time      9.5469: real time      9.5657
  RMM-DIIS:  cpu time     75.6261: real time     75.7898
    ORTHCH:  cpu time      0.1939: real time      0.1945
       DOS:  cpu time      0.0030: real time      0.0030
    CHARGE:  cpu time     50.7094: real time     50.8693
    MIXING:  cpu time      0.2004: real time      0.2006
    --------------------------------------------
      LOOP:  cpu time    175.4555: real time    175.8816

 eigenvalue-minimisations  :   246
 total energy-change (2. order) : 0.9653658E+00  (-0.2073535E-01)
 number of electron      42.9999995 magnetization       8.7708159
 augmentation part        1.4727500 magnetization       7.8120005

 Broyden mixing:
  rms(total) = 0.92472E-01    rms(broyden)= 0.92468E-01
  rms(prec ) = 0.95049E-01
  weight for this iteration     100.00

 eigenvalues of (default mixing * dielectric matrix)
  average eigenvalue GAMMA=   1.5761
  3.7313  2.3504  1.5835  1.2048  0.8275  0.7148  0.6206

 Free energy of the ion-electron system (eV)
  ---------------------------------------------------
  alpha Z        PSCENC =         0.13892279
  Ewald energy   TEWEN  =      4458.87408054
  -Hartree energ DENC   =     -5663.24294449
  -exchange      EXHF   =         0.00000000
  -V(xc)+E(xc)   XCENC  =       177.76956314
  PAW double counting   =      4031.95637299    -4052.59004907
  entropy T*S    EENTRO =        -0.00000000
  eigenvalues    EBANDS =      -666.61305709
  atomic energy  EATOM  =      1684.46238724
  Solvation  Ecorr_sol  =       -77.76064771
  ---------------------------------------------------
  free energy    TOTEN  =      -107.00537165 eV

  energy without entropy =     -107.00537165  energy(sigma->0) =     -107.00537165


--------------------------------------------------------------------------------------------------------




--------------------------------------- Iteration      1(   9)  ---------------------------------------


    --------------------------------------------
      INIT:  cpu time      0.2498: real time      0.2498
  FINALIZE:  cpu time     27.2913: real time     27.3000
    --------------------------------------------
    POTLOK:  cpu time     37.2166: real time     37.2528
    SETDIJ:  cpu time      0.4219: real time      0.4227
    EDDIAG:  cpu time      9.5200: real time      9.5393
  RMM-DIIS:  cpu time     74.6022: real time     74.7714
    ORTHCH:  cpu time      0.1941: real time      0.1947
       DOS:  cpu time      0.0032: real time      0.0032
    CHARGE:  cpu time     50.5047: real time     50.6427
    MIXING:  cpu time      0.2012: real time      0.2012
    --------------------------------------------
      LOOP:  cpu time    172.6640: real time    173.0280

 eigenvalue-minimisations  :   242
 total energy-change (2. order) : 0.1311436E+01  (-0.2071783E-01)
 number of electron      42.9999995 magnetization       7.7851685
 augmentation part        1.4726472 magnetization       6.8293932

 Broyden mixing:
  rms(total) = 0.59655E-01    rms(broyden)= 0.59652E-01
  rms(prec ) = 0.61066E-01
  weight for this iteration     100.00

 eigenvalues of (default mixing * dielectric matrix)
  average eigenvalue GAMMA=   1.6655
  4.7086  2.5406  1.8833  1.0535  1.0535  0.7422  0.7249  0.6178

 Free energy of the ion-electron system (eV)
  ---------------------------------------------------
  alpha Z        PSCENC =         0.13892279
  Ewald energy   TEWEN  =      4458.87408054
  -Hartree energ DENC   =     -5647.47926306
  -exchange      EXHF   =         0.00000000
  -V(xc)+E(xc)   XCENC  =       178.92821697
  PAW double counting   =      4018.87610678    -4039.49653682
  entropy T*S    EENTRO =        -0.00000000
  eigenvalues    EBANDS =      -671.44589724
  atomic energy  EATOM  =      1684.46238724
  Solvation  Ecorr_sol  =       -88.55195284
  ---------------------------------------------------
  free energy    TOTEN  =      -105.69393563 eV

  energy without entropy =     -105.69393563  energy(sigma->0) =     -105.69393563


--------------------------------------------------------------------------------------------------------




--------------------------------------- Iteration      1(  10)  ---------------------------------------


    --------------------------------------------
      INIT:  cpu time      0.2487: real time      0.2490
  FINALIZE:  cpu time     27.1670: real time     27.2108
    --------------------------------------------
    POTLOK:  cpu time     37.0666: real time     37.1357
    SETDIJ:  cpu time      0.4288: real time      0.4297
    EDDIAG:  cpu time      9.5586: real time      9.5782
  RMM-DIIS:  cpu time     75.5934: real time     75.7521
    ORTHCH:  cpu time      0.2032: real time      0.2037
       DOS:  cpu time      0.0008: real time      0.0008
    CHARGE:  cpu time     50.7814: real time     50.9275
    MIXING:  cpu time      0.2148: real time      0.2151
    --------------------------------------------
      LOOP:  cpu time    173.8477: real time    174.2427

 eigenvalue-minimisations  :   246
 total energy-change (2. order) : 0.9342356E+00  (-0.1029750E-01)
 number of electron      42.9999995 magnetization       7.1467948
 augmentation part        1.4715954 magnetization       6.1928736

 Broyden mixing:
  rms(total) = 0.40786E-01    rms(broyden)= 0.40783E-01
  rms(prec ) = 0.41468E-01
  weight for this iteration     100.00

 eigenvalues of (default mixing * dielectric matrix)
  average eigenvalue GAMMA=   1.7952
  6.1957  2.6554  2.0633  1.1417  1.1417  0.9195  0.6194  0.7102  0.7102

 Free energy of the ion-electron system (eV)
  ---------------------------------------------------
  alpha Z        PSCENC =         0.13892279
  Ewald energy   TEWEN  =      4458.87408054
  -Hartree energ DENC   =     -5639.02840656
  -exchange      EXHF   =         0.00000000
  -V(xc)+E(xc)   XCENC  =       179.82061891
  PAW double counting   =      4010.73841329    -4031.37645604
  entropy T*S    EENTRO =        -0.00000000
  eigenvalues    EBANDS =      -673.27220541
  atomic energy  EATOM  =      1684.46238724
  Solvation  Ecorr_sol  =       -95.11705478
  ---------------------------------------------------
  free energy    TOTEN  =      -104.75970002 eV

  energy without entropy =     -104.75970002  energy(sigma->0) =     -104.75970002


--------------------------------------------------------------------------------------------------------




--------------------------------------- Iteration      1(  11)  ---------------------------------------


    --------------------------------------------
      INIT:  cpu time      0.2517: real time      0.2520
  FINALIZE:  cpu time     27.2199: real time     27.2283
    --------------------------------------------
    POTLOK:  cpu time     37.1170: real time     37.1534
    SETDIJ:  cpu time      0.4284: real time      0.4293
    EDDIAG:  cpu time      9.5269: real time      9.5515
  RMM-DIIS:  cpu time     75.7155: real time     75.8830
    ORTHCH:  cpu time      0.1932: real time      0.1937
       DOS:  cpu time      0.0018: real time      0.0018
    CHARGE:  cpu time     50.5234: real time     50.6341
    MIXING:  cpu time      0.2190: real time      0.2192
    --------------------------------------------
      LOOP:  cpu time    173.7251: real time    174.0660

 eigenvalue-minimisations  :   246
 total energy-change (2. order) : 0.6102517E+00  (-0.6090592E-02)
 number of electron      42.9999995 magnetization       6.5025480
 augmentation part        1.4712020 magnetization       5.5498829

 Broyden mixing:
  rms(total) = 0.32246E-01    rms(broyden)= 0.32244E-01
  rms(prec ) = 0.32569E-01
  weight for this iteration     100.00

 eigenvalues of (default mixing * dielectric matrix)
  average eigenvalue GAMMA=   1.8982
  7.5584  2.7590  2.1482  1.2351  1.2351  1.2116  0.8024  0.7408  0.6197  0.6715

 Free energy of the ion-electron system (eV)
  ---------------------------------------------------
  alpha Z        PSCENC =         0.13892279
  Ewald energy   TEWEN  =      4458.87408054
  -Hartree energ DENC   =     -5634.68633089
  -exchange      EXHF   =         0.00000000
  -V(xc)+E(xc)   XCENC  =       180.41025105
  PAW double counting   =      4003.90286902    -4024.54802027
  entropy T*S    EENTRO =        -0.00000000
  eigenvalues    EBANDS =      -674.20561416
  atomic energy  EATOM  =      1684.46238724
  Solvation  Ecorr_sol  =       -98.49799363
  ---------------------------------------------------
  free energy    TOTEN  =      -104.14944831 eV

  energy without entropy =     -104.14944831  energy(sigma->0) =     -104.14944831


--------------------------------------------------------------------------------------------------------




--------------------------------------- Iteration      1(  12)  ---------------------------------------


    --------------------------------------------
      INIT:  cpu time      0.2484: real time      0.2484
  FINALIZE:  cpu time     28.8725: real time     28.8760
    --------------------------------------------
    POTLOK:  cpu time     38.7517: real time     38.7803
    SETDIJ:  cpu time      0.4283: real time      0.4292
    EDDIAG:  cpu time      9.5773: real time      9.5968
  RMM-DIIS:  cpu time     75.6214: real time     75.7822
    ORTHCH:  cpu time      0.1970: real time      0.1975
       DOS:  cpu time      0.0013: real time      0.0013
    CHARGE:  cpu time     50.5259: real time     50.6783
    MIXING:  cpu time      0.2254: real time      0.2256
    --------------------------------------------
      LOOP:  cpu time    175.3284: real time    175.6912

 eigenvalue-minimisations  :   246
 total energy-change (2. order) : 0.6126975E+00  (-0.1404082E-02)
 number of electron      42.9999995 magnetization       5.8742550
 augmentation part        1.4717023 magnetization       4.9226735

 Broyden mixing:
  rms(total) = 0.26151E-01    rms(broyden)= 0.26150E-01
  rms(prec ) = 0.26251E-01
  weight for this iteration     100.00

 eigenvalues of (default mixing * dielectric matrix)
  average eigenvalue GAMMA=   1.8975
  8.0377  2.7645  2.3898  1.4564  1.2139  1.2139  1.0067  0.7566  0.7566  0.6199
  0.6567

 Free energy of the ion-electron system (eV)
  ---------------------------------------------------
  alpha Z        PSCENC =         0.13892279
  Ewald energy   TEWEN  =      4458.87408054
  -Hartree energ DENC   =     -5631.72815018
  -exchange      EXHF   =         0.00000000
  -V(xc)+E(xc)   XCENC  =       181.01147813
  PAW double counting   =      4003.57243188    -4024.21925303
  entropy T*S    EENTRO =        -0.00000000
  eigenvalues    EBANDS =      -674.79245992
  atomic energy  EATOM  =      1684.46238724
  Solvation  Ecorr_sol  =      -100.85618822
  ---------------------------------------------------
  free energy    TOTEN  =      -103.53675077 eV

  energy without entropy =     -103.53675077  energy(sigma->0) =     -103.53675077


--------------------------------------------------------------------------------------------------------




--------------------------------------- Iteration      1(  13)  ---------------------------------------


    --------------------------------------------
      INIT:  cpu time      0.2513: real time      0.2513
  FINALIZE:  cpu time     27.2871: real time     27.2954
    --------------------------------------------
    POTLOK:  cpu time     37.1793: real time     37.2127
    SETDIJ:  cpu time      0.4283: real time      0.4292
    EDDIAG:  cpu time      9.5461: real time      9.5662
  RMM-DIIS:  cpu time     75.9018: real time     76.0731
    ORTHCH:  cpu time      0.2016: real time      0.2021
       DOS:  cpu time      0.0004: real time      0.0004
    CHARGE:  cpu time     50.4375: real time     50.5797
    MIXING:  cpu time      0.2337: real time      0.2340
    --------------------------------------------
      LOOP:  cpu time    173.9286: real time    174.2973

 eigenvalue-minimisations  :   246
 total energy-change (2. order) : 0.5339628E+00  ( 0.4610066E-02)
 number of electron      42.9999995 magnetization       5.2017287
 augmentation part        1.4715413 magnetization       4.2507128

 Broyden mixing:
  rms(total) = 0.21635E-01    rms(broyden)= 0.21634E-01
  rms(prec ) = 0.21691E-01
  weight for this iteration     100.00

 eigenvalues of (default mixing * dielectric matrix)
  average eigenvalue GAMMA=   1.9753
  8.6862  3.1953  2.7026  1.9444  1.2722  1.2722  1.0877  0.8223  0.7274  0.7274
  0.6216  0.6442

 Free energy of the ion-electron system (eV)
  ---------------------------------------------------
  alpha Z        PSCENC =         0.13892279
  Ewald energy   TEWEN  =      4458.87408054
  -Hartree energ DENC   =     -5630.42833556
  -exchange      EXHF   =         0.00000000
  -V(xc)+E(xc)   XCENC  =       181.56311625
  PAW double counting   =      4008.97707546    -4029.62922813
  entropy T*S    EENTRO =        -0.00000000
  eigenvalues    EBANDS =      -674.60362703
  atomic energy  EATOM  =      1684.46238724
  Solvation  Ecorr_sol  =      -102.35717957
  ---------------------------------------------------
  free energy    TOTEN  =      -103.00278801 eV

  energy without entropy =     -103.00278801  energy(sigma->0) =     -103.00278801


--------------------------------------------------------------------------------------------------------




--------------------------------------- Iteration      1(  14)  ---------------------------------------


    --------------------------------------------
      INIT:  cpu time      0.2480: real time      0.2482
  FINALIZE:  cpu time     27.2416: real time     27.2865
    --------------------------------------------
    POTLOK:  cpu time     37.1127: real time     37.1872
    SETDIJ:  cpu time      0.4267: real time      0.4276
    EDDIAG:  cpu time      9.5599: real time      9.5795
  RMM-DIIS:  cpu time     76.2526: real time     76.4152
    ORTHCH:  cpu time      0.1949: real time      0.1953
       DOS:  cpu time      0.0040: real time      0.0040
    CHARGE:  cpu time     50.5733: real time     50.7078
    MIXING:  cpu time      0.2460: real time      0.2463
    --------------------------------------------
      LOOP:  cpu time    174.3701: real time    174.7629

 eigenvalue-minimisations  :   246
 total energy-change (2. order) : 0.4574635E+00  ( 0.2129932E-02)
 number of electron      42.9999995 magnetization       4.5138980
 augmentation part        1.4715072 magnetization       3.5633942

 Broyden mixing:
  rms(total) = 0.17808E-01    rms(broyden)= 0.17808E-01
  rms(prec ) = 0.17830E-01
  weight for this iteration     100.00

 eigenvalues of (default mixing * dielectric matrix)
  average eigenvalue GAMMA=   2.0397
  9.3103  4.0371  2.7303  2.2603  1.2315  1.2315  1.1287  1.0003  0.7946  0.7946
  0.7357  0.6304  0.6304

 Free energy of the ion-electron system (eV)
  ---------------------------------------------------
  alpha Z        PSCENC =         0.13892279
  Ewald energy   TEWEN  =      4458.87408054
  -Hartree energ DENC   =     -5629.16020096
  -exchange      EXHF   =         0.00000000
  -V(xc)+E(xc)   XCENC  =       182.02120759
  PAW double counting   =      4010.57116970    -4031.22277777
  entropy T*S    EENTRO =        -0.00000000
  eigenvalues    EBANDS =      -674.69907042
  atomic energy  EATOM  =      1684.46238724
  Solvation  Ecorr_sol  =      -103.53104321
  ---------------------------------------------------
  free energy    TOTEN  =      -102.54532450 eV

  energy without entropy =     -102.54532450  energy(sigma->0) =     -102.54532450


--------------------------------------------------------------------------------------------------------




--------------------------------------- Iteration      1(  15)  ---------------------------------------


    --------------------------------------------
      INIT:  cpu time      0.2486: real time      0.2490
  FINALIZE:  cpu time     44.0253: real time     44.0637
    --------------------------------------------
    POTLOK:  cpu time     53.9018: real time     53.9672
    SETDIJ:  cpu time      0.4322: real time      0.4332
    EDDIAG:  cpu time      9.5515: real time      9.5729
  RMM-DIIS:  cpu time     75.6978: real time     75.8565
    ORTHCH:  cpu time      0.1950: real time      0.1955
       DOS:  cpu time      0.0013: real time      0.0013
    CHARGE:  cpu time     50.5438: real time     50.6715
    MIXING:  cpu time      0.2520: real time      0.2524
    --------------------------------------------
      LOOP:  cpu time    190.5755: real time    190.9506

 eigenvalue-minimisations  :   246
 total energy-change (2. order) : 0.4146635E+00  ( 0.1525160E-02)
 number of electron      42.9999995 magnetization       4.0197373
 augmentation part        1.4712656 magnetization       3.0697766

 Broyden mixing:
  rms(total) = 0.14797E-01    rms(broyden)= 0.14796E-01
  rms(prec ) = 0.14828E-01
  weight for this iteration     100.00

 eigenvalues of (default mixing * dielectric matrix)
  average eigenvalue GAMMA=   2.1025
  9.9335  4.9753  2.7488  2.4461  1.2788  1.2788  1.3540  1.0649  0.9054  0.7365
  0.7365  0.7170  0.6299  0.6299

 Free energy of the ion-electron system (eV)
  ---------------------------------------------------
  alpha Z        PSCENC =         0.13892279
  Ewald energy   TEWEN  =      4458.87408054
  -Hartree energ DENC   =     -5628.10238204
  -exchange      EXHF   =         0.00000000
  -V(xc)+E(xc)   XCENC  =       182.42202571
  PAW double counting   =      4013.93922477    -4034.58386080
  entropy T*S    EENTRO =        -0.00000000
  eigenvalues    EBANDS =      -674.99465634
  atomic energy  EATOM  =      1684.46238724
  Solvation  Ecorr_sol  =      -104.28640291
  ---------------------------------------------------
  free energy    TOTEN  =      -102.13066103 eV

  energy without entropy =     -102.13066103  energy(sigma->0) =     -102.13066103


--------------------------------------------------------------------------------------------------------




--------------------------------------- Iteration      1(  16)  ---------------------------------------


    --------------------------------------------
      INIT:  cpu time      0.2505: real time      0.2507
  FINALIZE:  cpu time     27.2429: real time     27.2536
    --------------------------------------------
    POTLOK:  cpu time     37.1249: real time     37.1623
    SETDIJ:  cpu time      0.4278: real time      0.4287
    EDDIAG:  cpu time      9.5685: real time      9.5889
  RMM-DIIS:  cpu time     75.6188: real time     75.7860
    ORTHCH:  cpu time      0.1934: real time      0.1938
       DOS:  cpu time      0.0039: real time      0.0039
    CHARGE:  cpu time     50.5261: real time     50.6813
    MIXING:  cpu time      0.2630: real time      0.2632
    --------------------------------------------
      LOOP:  cpu time    173.7263: real time    174.1082

 eigenvalue-minimisations  :   246
 total energy-change (2. order) : 0.2664018E+00  (-0.1677899E-02)
 number of electron      42.9999995 magnetization       3.2190744
 augmentation part        1.4712059 magnetization       2.2696583

 Broyden mixing:
  rms(total) = 0.13031E-01    rms(broyden)= 0.13031E-01
  rms(prec ) = 0.13070E-01
  weight for this iteration     100.00

 eigenvalues of (default mixing * dielectric matrix)
  average eigenvalue GAMMA=   2.1579
 10.5576  5.6903  2.9819  2.3091  1.7451  1.2909  1.2909  1.3028  1.0289  0.7721
  0.7345  0.7345  0.6850  0.6189  0.6267

 Free energy of the ion-electron system (eV)
  ---------------------------------------------------
  alpha Z        PSCENC =         0.13892279
  Ewald energy   TEWEN  =      4458.87408054
  -Hartree energ DENC   =     -5627.71220012
  -exchange      EXHF   =         0.00000000
  -V(xc)+E(xc)   XCENC  =       182.68307874
  PAW double counting   =      4016.05906503    -4036.70175251
  entropy T*S    EENTRO =        -0.00000000
  eigenvalues    EBANDS =      -675.16465227
  atomic energy  EATOM  =      1684.46238724
  Solvation  Ecorr_sol  =      -104.50318870
  ---------------------------------------------------
  free energy    TOTEN  =      -101.86425926 eV

  energy without entropy =     -101.86425926  energy(sigma->0) =     -101.86425926


--------------------------------------------------------------------------------------------------------




--------------------------------------- Iteration      1(  17)  ---------------------------------------


    --------------------------------------------
      INIT:  cpu time      0.2504: real time      0.2505
  FINALIZE:  cpu time     28.8265: real time     28.8357
    --------------------------------------------
    POTLOK:  cpu time     38.7248: real time     38.7610
    SETDIJ:  cpu time      0.4316: real time      0.4325
    EDDIAG:  cpu time      9.5249: real time      9.5428
  RMM-DIIS:  cpu time     75.7879: real time     75.9468
    ORTHCH:  cpu time      0.1893: real time      0.1898
       DOS:  cpu time      0.0003: real time      0.0003
    CHARGE:  cpu time     50.6311: real time     50.7692
    MIXING:  cpu time      0.2716: real time      0.2717
    --------------------------------------------
      LOOP:  cpu time    175.5617: real time    175.9141

 eigenvalue-minimisations  :   246
 total energy-change (2. order) : 0.4245458E+00  ( 0.9747138E-04)
 number of electron      42.9999995 magnetization       2.5227669
 augmentation part        1.4710335 magnetization       1.5737164

 Broyden mixing:
  rms(total) = 0.10442E-01    rms(broyden)= 0.10441E-01
  rms(prec ) = 0.10487E-01
  weight for this iteration     100.00

 eigenvalues of (default mixing * dielectric matrix)
  average eigenvalue GAMMA=   2.1898
 11.0426  6.2840  2.9205  2.5320  2.2481  1.2682  1.2682  1.3043  1.1093  0.9632
  0.7220  0.7220  0.7495  0.6659  0.6087  0.6284

 Free energy of the ion-electron system (eV)
  ---------------------------------------------------
  alpha Z        PSCENC =         0.13892279
  Ewald energy   TEWEN  =      4458.87408054
  -Hartree energ DENC   =     -5627.62026361
  -exchange      EXHF   =         0.00000000
  -V(xc)+E(xc)   XCENC  =       183.10461049
  PAW double counting   =      4020.98695186    -4041.62924009
  entropy T*S    EENTRO =        -0.00000000
  eigenvalues    EBANDS =      -675.24181473
  atomic energy  EATOM  =      1684.46238724
  Solvation  Ecorr_sol  =      -104.51534796
  ---------------------------------------------------
  free energy    TOTEN  =      -101.43971348 eV

  energy without entropy =     -101.43971348  energy(sigma->0) =     -101.43971348


--------------------------------------------------------------------------------------------------------




--------------------------------------- Iteration      1(  18)  ---------------------------------------


    --------------------------------------------
      INIT:  cpu time      0.2504: real time      0.2505
  FINALIZE:  cpu time     27.2609: real time     27.3010
    --------------------------------------------
    POTLOK:  cpu time     37.1824: real time     37.2465
    SETDIJ:  cpu time      0.4288: real time      0.4296
    EDDIAG:  cpu time      9.5775: real time      9.5959
  RMM-DIIS:  cpu time     75.8816: real time     76.0444
    ORTHCH:  cpu time      0.1831: real time      0.1836
       DOS:  cpu time      0.0038: real time      0.0038
    CHARGE:  cpu time     50.4283: real time     50.5366
    MIXING:  cpu time      0.2849: real time      0.2850
    --------------------------------------------
      LOOP:  cpu time    173.9704: real time    174.3255

 eigenvalue-minimisations  :   246
 total energy-change (2. order) : 0.3347353E+00  (-0.2341706E-03)
 number of electron      42.9999995 magnetization       1.7929210
 augmentation part        1.4708655 magnetization       0.8441296

 Broyden mixing:
  rms(total) = 0.75408E-02    rms(broyden)= 0.75403E-02
  rms(prec ) = 0.75900E-02
  weight for this iteration     100.00

 eigenvalues of (default mixing * dielectric matrix)
  average eigenvalue GAMMA=   2.3697
 12.5911  7.5357  3.9518  2.7739  2.2812  1.2961  1.2961  1.2963  1.2963  1.0737
  0.8385  0.7279  0.7279  0.7290  0.6478  0.6281  0.5924

 Free energy of the ion-electron system (eV)
  ---------------------------------------------------
  alpha Z        PSCENC =         0.13892279
  Ewald energy   TEWEN  =      4458.87408054
  -Hartree energ DENC   =     -5627.71796891
  -exchange      EXHF   =         0.00000000
  -V(xc)+E(xc)   XCENC  =       183.43278363
  PAW double counting   =      4019.21737995    -4039.86125209
  entropy T*S    EENTRO =        -0.00000000
  eigenvalues    EBANDS =      -675.36605943
  atomic energy  EATOM  =      1684.46238724
  Solvation  Ecorr_sol  =      -104.28525194
  ---------------------------------------------------
  free energy    TOTEN  =      -101.10497822 eV

[...]
  eigenvalues    EBANDS =      -675.37706870
  atomic energy  EATOM  =      1684.46238724
  Solvation  Ecorr_sol  =      -103.36434392
  ---------------------------------------------------
  free energy    TOTEN  =      -100.49337525 eV

  energy without entropy =     -100.49337525  energy(sigma->0) =     -100.49337525


--------------------------------------------------------------------------------------------------------




--------------------------------------- Iteration     10(   2)  ---------------------------------------


    --------------------------------------------
      INIT:  cpu time      0.2523: real time      0.2526
  FINALIZE:  cpu time     28.7057: real time     28.7035
    --------------------------------------------
    POTLOK:  cpu time     38.6848: real time     38.7067
    SETDIJ:  cpu time      0.4282: real time      0.4291
    EDDIAG:  cpu time      9.5590: real time      9.5781
  RMM-DIIS:  cpu time     52.9204: real time     53.0373
    ORTHCH:  cpu time      0.1662: real time      0.1666
       DOS:  cpu time      0.0045: real time      0.0045
    CHARGE:  cpu time     50.4796: real time     50.5933
    MIXING:  cpu time      0.1776: real time      0.1775
    --------------------------------------------
      LOOP:  cpu time    152.4203: real time    152.6931

 eigenvalue-minimisations  :   159
 total energy-change (2. order) :-0.1208917E-04  (-0.7384415E-05)
 number of electron      42.9999995 magnetization       1.0000384
 augmentation part        1.4712756 magnetization       0.0539588

 Broyden mixing:
  rms(total) = 0.66674E-03    rms(broyden)= 0.66619E-03
  rms(prec ) = 0.67657E-03
  weight for this iteration     100.00

 eigenvalues of (default mixing * dielectric matrix)
  average eigenvalue GAMMA=   0.9798
  0.9798

 Free energy of the ion-electron system (eV)
  ---------------------------------------------------
  alpha Z        PSCENC =         0.13892279
  Ewald energy   TEWEN  =      4459.90156154
  -Hartree energ DENC   =     -5629.69111595
  -exchange      EXHF   =         0.00000000
  -V(xc)+E(xc)   XCENC  =       184.07522440
  PAW double counting   =      4031.23376849    -4051.87719132
  entropy T*S    EENTRO =        -0.00000000
  eigenvalues    EBANDS =      -675.37219343
  atomic energy  EATOM  =      1684.46238724
  Solvation  Ecorr_sol  =      -103.36475110
  ---------------------------------------------------
  free energy    TOTEN  =      -100.49338734 eV

  energy without entropy =     -100.49338734  energy(sigma->0) =     -100.49338734


--------------------------------------------------------------------------------------------------------




--------------------------------------- Iteration     10(   3)  ---------------------------------------


    --------------------------------------------
      INIT:  cpu time      0.2508: real time      0.2507
  FINALIZE:  cpu time     27.2238: real time     27.2378
    --------------------------------------------
    POTLOK:  cpu time     37.2230: real time     37.2638
    SETDIJ:  cpu time      0.4265: real time      0.4274
    EDDIAG:  cpu time      9.5283: real time      9.5488
  RMM-DIIS:  cpu time     47.4627: real time     47.5649
    ORTHCH:  cpu time      0.1705: real time      0.1709
       DOS:  cpu time      0.0016: real time      0.0016
    --------------------------------------------
      LOOP:  cpu time     94.8126: real time     94.9774

 eigenvalue-minimisations  :   125
 total energy-change (2. order) :-0.5204568E-05  (-0.2060634E-05)
 number of electron      42.9999995 magnetization       1.0000384
 augmentation part        1.4712756 magnetization       0.0539588

 Free energy of the ion-electron system (eV)
  ---------------------------------------------------
  alpha Z        PSCENC =         0.13892279
  Ewald energy   TEWEN  =      4459.90156154
  -Hartree energ DENC   =     -5629.68697977
  -exchange      EXHF   =         0.00000000
  -V(xc)+E(xc)   XCENC  =       184.07487883
  PAW double counting   =      4031.20475819    -4051.84811475
  entropy T*S    EENTRO =        -0.00000000
  eigenvalues    EBANDS =      -675.37581563
  atomic energy  EATOM  =      1684.46238724
  Solvation  Ecorr_sol  =      -103.36499098
  ---------------------------------------------------
  free energy    TOTEN  =      -100.49339255 eV

  energy without entropy =     -100.49339255  energy(sigma->0) =     -100.49339255


--------------------------------------------------------------------------------------------------------




 average (electrostatic) potential at core
  the test charge radii are     0.6991  0.7215  0.5201
  (the norm of the test charge is              1.0000)
       1 -63.1614       2 -63.2038       3 -62.6076       4 -63.1172       5 -63.5125
       6 -64.4984       7 -65.0690       8 -63.5457       9 -88.2219      10 -46.6198
      11 -47.0857      12 -46.0553      13 -45.6993      14 -46.0087      15 -46.2361
 
 
 
 E-fermi :  -7.7951     XC(G=0):  -0.0274     alpha+bet : -0.0162

 Fermi energy:        -7.7950667213

 spin component 1

 k-point     1 :       0.0000    0.0000    0.0000
  band No.  band energies     occupation 
      1     -31.8212      1.00000
      2     -24.7088      1.00000
      3     -23.2729      1.00000
      4     -21.7729      1.00000
      5     -21.1871      1.00000
      6     -18.5849      1.00000
      7     -17.6277      1.00000
      8     -17.2402      1.00000
      9     -15.3533      1.00000
     10     -14.7996      1.00000
     11     -14.1592      1.00000
     12     -14.1134      1.00000
     13     -13.1149      1.00000
     14     -12.7417      1.00000
     15     -12.4211      1.00000
     16     -11.6284      1.00000
     17     -11.2508      1.00000
     18     -10.9526      1.00000
     19     -10.4412      1.00000
     20      -9.9182      1.00000
     21      -8.3532      1.00000
     22      -8.0241      1.00000
     23      -3.9522      0.00000
     24      -2.5034      0.00000
     25      -1.8859      0.00000
     26      -0.1651      0.00000
     27       0.0220      0.00000
     28       0.0595      0.00000
     29       0.0989      0.00000
     30       0.1012      0.00000
     31       0.1073      0.00000
     32       0.1081      0.00000
     33       0.1233      0.00000
     34       0.1408      0.00000
     35       0.1824      0.00000
     36       0.1872      0.00000
     37       0.1957      0.00000
     38       0.1971      0.00000
     39       0.2005      0.00000
     40       0.2017      0.00000
 Fermi energy:        -7.7950667213

 spin component 2

 k-point     1 :       0.0000    0.0000    0.0000
  band No.  band energies     occupation 
      1     -31.7353      1.00000
      2     -24.5563      1.00000
      3     -23.0285      1.00000
      4     -21.6842      1.00000
      5     -20.7732      1.00000
      6     -18.4427      1.00000
      7     -17.4800      1.00000
      8     -17.0986      1.00000
      9     -15.3107      1.00000
     10     -14.6806      1.00000
     11     -14.1228      1.00000
     12     -13.6672      1.00000
     13     -13.0867      1.00000
     14     -12.6860      1.00000
     15     -12.3908      1.00000
     16     -11.5799      1.00000
     17     -10.9243      1.00000
     18     -10.7872      1.00000
     19     -10.4165      1.00000
     20      -9.2762      1.00000
     21      -8.1607      1.00000
     22      -6.8059      0.00000
     23      -2.9093      0.00000
     24      -2.1713      0.00000
     25      -1.0929      0.00000
     26      -0.1248      0.00000
     27       0.0267      0.00000
     28       0.0845      0.00000
     29       0.1018      0.00000
     30       0.1030      0.00000
     31       0.1083      0.00000
     32       0.1093      0.00000
     33       0.1369      0.00000
     34       0.1518      0.00000
     35       0.1867      0.00000
     36       0.1896      0.00000
     37       0.1982      0.00000
     38       0.1986      0.00000
     39       0.2010      0.00000
     40       0.2030      0.00000


--------------------------------------------------------------------------------------------------------


 soft charge-density along one line, spin component           1
         0         1         2         3         4         5         6         7         8         9
 total charge-density along one line
 
 soft charge-density along one line, spin component           2
         0         1         2         3         4         5         6         7         8         9
 total charge-density along one line
 
 pseudopotential strength for first ion, spin component:           1
 10.583  14.075   0.003   0.000  -0.001  -0.011  -0.000   0.005
 14.075  18.718   0.004   0.000  -0.001  -0.015  -0.000   0.006
  0.003   0.004  -4.491  -0.000   0.004   8.711   0.000  -0.007
  0.000   0.000  -0.000  -4.423   0.000   0.000   8.608  -0.000
 -0.001  -0.001   0.004   0.000  -4.488  -0.007  -0.000   8.706
 -0.011  -0.015   8.711   0.000  -0.007 -19.168  -0.000   0.010
 -0.000  -0.000   0.000   8.608  -0.000  -0.000 -19.034   0.000
  0.005   0.006  -0.007  -0.000   8.706   0.010   0.000 -19.162
 pseudopotential strength for first ion, spin component:           2
 10.593  14.088   0.003   0.000  -0.000  -0.013  -0.000   0.003
 14.088  18.737   0.005   0.000  -0.001  -0.017  -0.000   0.004
  0.003   0.005  -4.494  -0.000   0.004   8.716   0.000  -0.006
  0.000   0.000  -0.000  -4.426   0.000   0.000   8.611  -0.000
 -0.000  -0.001   0.004   0.000  -4.492  -0.006  -0.000   8.712
 -0.013  -0.017   8.716   0.000  -0.006 -19.176  -0.000   0.011
 -0.000  -0.000   0.000   8.611  -0.000  -0.000 -19.035   0.000
  0.003   0.004  -0.006  -0.000   8.712   0.011   0.000 -19.169
 total augmentation occupancy for first ion, spin component:           1
  8.906  -4.026   0.380   0.000  -0.158   0.076   0.000  -0.025
 -4.026   1.862  -0.274   0.000   0.108  -0.047   0.000   0.014
  0.380  -0.274   1.862   0.000  -0.031   0.172   0.000  -0.006
  0.000   0.000   0.000   1.133   0.000   0.000   0.075   0.000
 -0.158   0.108  -0.031   0.000   1.873  -0.006   0.000   0.185
  0.076  -0.047   0.172   0.000  -0.006   0.017   0.000  -0.001
  0.000   0.000   0.000   0.075   0.000   0.000   0.005   0.000
 -0.025   0.014  -0.006   0.000   0.185  -0.001   0.000   0.019
 total augmentation occupancy for first ion, spin component:           2
  0.001  -0.005  -0.000   0.000   0.015   0.000   0.000   0.003
 -0.005   0.005  -0.002   0.000  -0.014  -0.000   0.000  -0.002
 -0.000  -0.002  -0.004   0.000  -0.003  -0.000   0.000   0.000
  0.000   0.000   0.000  -0.013   0.000   0.000   0.001   0.000
  0.015  -0.014  -0.003   0.000  -0.010   0.000   0.000   0.000
  0.000  -0.000  -0.000   0.000   0.000   0.000   0.000   0.000
  0.000   0.000   0.000   0.001   0.000   0.000   0.000   0.000
  0.003  -0.002   0.000   0.000   0.000   0.000   0.000   0.000


------------------------ aborting loop because EDIFF is reached ----------------------------------------


    CHARGE:  cpu time      6.0925: real time      6.1074
    FORLOC:  cpu time      0.3071: real time      0.3076
    FORNL :  cpu time      3.9625: real time      3.9706
    STRESS:  cpu time    140.9650: real time    141.2951
    FORCOR:  cpu time      7.6598: real time      7.6726
    FORHAR:  cpu time      0.8207: real time      0.8210
    MIXING:  cpu time      0.1050: real time      0.1052
    OFIELD:  cpu time      0.0001: real time      0.0001

 ---------------------------------------------------------------------------------------------

         DFTD3 V3.0 Rev 1        
 Edisp (eV)   -0.12484

 E6    (eV) :    -0.0969
 E8    (eV) :    -0.0279
 % E8        : 22.37
    FORVDW:  cpu time      0.0054: real time      0.0054

  FORCE on cell =-STRESS in cart. coord.  units (eV):
  Direction    XX          YY          ZZ          XY          YZ          ZX
  --------------------------------------------------------------------------------------
  Alpha Z     0.13892     0.13892     0.13892
  Ewald    2787.97527  2003.41129  -331.48606   -34.78979    -0.00027    -0.00393
  Hartree  2789.01079  2169.37752   774.64166     2.22818    -0.00006    -0.00080
  E(xc)    -167.20379  -166.90729  -169.52592     0.14259    -0.00000     0.00000
  Local   -5997.71083 -4608.39356  -960.56171    24.06699     0.00020     0.00370
  n-local   -62.21541   -65.30916   -56.56837     0.11346     0.00003     0.00005
  augment     3.13838     4.21330     5.07713     0.48604    -0.00000     0.00001
  Kinetic   646.45902   663.04027   737.88011     7.78582    -0.00004     0.00020
  Fock        0.00000     0.00000     0.00000     0.00000     0.00000     0.00000
  vdW         0.02266     0.00567    -0.00000    -0.00590     0.00000     0.00000
  -------------------------------------------------------------------------------------
  Total      -0.38498    -0.42304    -0.40423     0.02739     0.00000     0.00000
  in kB      -0.00964    -0.01059    -0.01012     0.00069     0.00000     0.00000
  external pressure =       -0.01 kB  Pullay stress =        0.00 kB


 VOLUME and BASIS-vectors are now :
 -----------------------------------------------------------------------------
  energy-cutoff  :      500.00
  volume of cell :    64000.00
      direct lattice vectors                 reciprocal lattice vectors
    40.000000000  0.000000000  0.000000000     0.025000000  0.000000000  0.000000000
     0.000000000 40.000000000  0.000000000     0.000000000  0.025000000  0.000000000
     0.000000000  0.000000000 40.000000000     0.000000000  0.000000000  0.025000000

  length of vectors
    40.000000000 40.000000000 40.000000000     0.025000000  0.025000000  0.025000000


 FORCES acting on ions
    electron-ion (+dipol)            ewald-force                    non-local-force                 convergence-correction
 -----------------------------------------------------------------------------------------------
   -.738E+02 0.209E+03 0.186E-04   0.751E+02 -.213E+03 -.261E-04   -.129E+01 0.356E+01 0.000E+00   -.319E-02 0.170E-02 0.460E-09
   -.189E+03 0.990E+02 0.111E-04   0.191E+03 -.992E+02 -.136E-04   -.234E+01 0.253E+00 0.000E+00   -.398E-04 -.737E-04 0.676E-09
   -.199E+03 -.831E+02 0.105E-04   0.202E+03 0.845E+02 -.128E-04   -.240E+01 -.139E+01 0.000E+00   -.184E-02 -.262E-03 0.521E-09
   -.614E+02 -.203E+03 0.160E-04   0.634E+02 0.206E+03 -.221E-04   -.194E+01 -.271E+01 0.000E+00   0.124E-02 -.155E-02 0.240E-09
   -.975E+01 -.135E+03 0.311E-04   0.110E+02 0.137E+03 -.642E-04   -.127E+01 -.205E+01 0.000E+00   -.178E-02 -.188E-02 -.932E-09
   -.343E+02 0.851E+02 0.334E-04   0.418E+02 -.828E+02 -.713E-04   -.748E+01 -.234E+01 0.000E+00   -.383E-03 -.158E-02 -.199E-08
   0.275E+03 -.512E+02 0.120E-03   -.282E+03 0.578E+02 -.184E-02   0.685E+01 -.652E+01 0.000E+00   0.189E-02 -.242E-02 -.208E-07
   0.135E+03 -.211E+03 0.539E-04   -.135E+03 0.216E+03 -.198E-03   0.435E+00 -.446E+01 0.000E+00   0.477E-03 -.217E-02 -.599E-09
   0.202E+03 0.324E+03 0.971E-04   -.215E+03 -.375E+03 -.400E-03   0.130E+02 0.508E+02 0.000E+00   -.640E-02 0.336E-03 -.268E-07
   0.406E+02 -.794E+02 0.121E-04   -.430E+02 0.853E+02 -.279E-04   0.236E+01 -.593E+01 0.000E+00   0.210E-03 -.839E-04 0.423E-09
   0.919E+02 0.594E+01 -.459E-02   -.984E+02 -.686E+01 0.268E-02   0.654E+01 0.925E+00 0.000E+00   0.462E-03 -.202E-03 -.166E-08
   -.136E+02 -.875E+02 0.327E-05   0.139E+02 0.938E+02 -.406E-05   -.280E+00 -.628E+01 0.000E+00   0.222E-03 0.183E-03 0.392E-10
   -.793E+02 -.375E+02 0.171E-05   0.849E+02 0.403E+02 -.192E-05   -.560E+01 -.276E+01 0.000E+00   0.217E-03 0.189E-03 0.100E-09
   -.755E+02 0.444E+02 0.180E-05   0.809E+02 -.478E+02 -.206E-05   -.536E+01 0.333E+01 0.000E+00   -.271E-03 0.261E-03 0.144E-09
   -.939E+01 0.896E+02 0.406E-05   0.916E+01 -.959E+02 -.508E-05   0.227E+00 0.628E+01 0.000E+00   -.492E-03 0.191E-03 0.145E-09
 -----------------------------------------------------------------------------------------------
   -.151E+01 -.307E+02 -.418E-02   0.782E-13 -.114E-12 0.169E-17   0.148E+01 0.307E+02 0.000E+00   -.968E-02 -.736E-02 -.500E-07
 
 
 POSITION                                       TOTAL-FORCE (eV/Angst)
 -----------------------------------------------------------------------------------
     20.67024     18.43204     20.00000         0.006038     -0.015017      0.000000
     21.90198     19.13447     20.00000        -0.002889      0.007644      0.000000
     21.97295     20.53930     20.00000         0.004123      0.000189      0.000000
     20.82940     21.30819     20.00000        -0.008780      0.002339      0.000000
     19.57751     20.63237     20.00000        -0.001664     -0.004671      0.000000
     19.55960     19.21407     20.00000         0.000200     -0.002171      0.000000
     17.48164     19.86253     20.00000        -0.003681     -0.000432      0.000000
     18.24479     21.04251     20.00000         0.002078      0.004564      0.000000
     18.24121     18.76956     20.00000         0.002923      0.007755      0.000000
     17.84329     22.04352     20.00000         0.011422     -0.001019      0.000000
     16.41457     19.70459     20.00004        -0.003770     -0.000934      0.000000
     20.86861     22.38963     20.00000         0.005116     -0.005436      0.000000
     22.94434     21.01484     20.00000        -0.000505     -0.000382      0.000000
     22.82000     18.56083     20.00000        -0.003065      0.003886      0.000000
     20.62983     17.35152     20.00000        -0.007546      0.003684      0.000000
 -----------------------------------------------------------------------------------
    total drift:                               -0.033325     -0.061734     -0.004176


--------------------------------------------------------------------------------------------------------



  FREE ENERGIE OF THE ION-ELECTRON SYSTEM (eV)
  ---------------------------------------------------
  free  energy   TOTEN  =      -100.61823468 eV

  energy  without entropy=     -100.61823468  energy(sigma->0) =     -100.61823468
 
 d Force = 0.2697347E-04[-0.303E-05, 0.570E-04]  d Energy = 0.4493223E-04-0.180E-04
 d Force = 0.1359742E+00[ 0.136E+00, 0.136E+00]  d Ewald  = 0.1359742E+00-0.263E-08


--------------------------------------------------------------------------------------------------------


    --------------------------------------------
      INIT:  cpu time      0.2458: real time      0.2458
  FINALIZE:  cpu time     30.1067: real time     30.1445
    --------------------------------------------
    POTLOK:  cpu time     40.5552: real time     40.6138


--------------------------------------------------------------------------------------------------------




--------------------------------------------------------------------------------------------------------


  
 reached required accuracy - stopping structural energy minimisation
 writing wavefunctions
     LOOP+:  cpu time    607.4563: real time    609.3931
    4ORBIT:  cpu time      0.0000: real time      0.0000

 total amount of memory used by VASP MPI-rank0   886812. kBytes
=======================================================================

   base      :      30000. kBytes
   nonlr-proj:        941. kBytes
   fftplans  :     167689. kBytes
   grid      :     662171. kBytes
   one-center:         12. kBytes
   wavefun   :      25999. kBytes
 
  
  
 General timing and accounting informations for this job:
 ========================================================
  
                  Total CPU time used (sec):    14097.915
                            User time (sec):    12452.919
                          System time (sec):     1644.995
                         Elapsed time (sec):    14127.123
  
                   Maximum memory used (kb):     6588104.
                   Average memory used (kb):          N/A
  
                          Minor page faults:    315394186
                          Major page faults:            0
                 Voluntary context switches:       358442
