
                                 *****************
                                 * O   R   C   A *
                                 *****************

                                            #,                                       
                                            ###                                      
                                            ####                                     
                                            #####                                    
                                            ######                                   
                                           ########,                                 
                                     ,,################,,,,,                         
                               ,,#################################,,                 
                          ,,##########################################,,             
                       ,#########################################, ''#####,          
                    ,#############################################,,   '####,        
                  ,##################################################,,,,####,       
                ,###########''''           ''''###############################       
              ,#####''   ,,,,##########,,,,          '''####'''          '####       
            ,##' ,,,,###########################,,,                        '##       
           ' ,,###''''                  '''############,,,                           
         ,,##''                                '''############,,,,        ,,,,,,###''
      ,#''                                            '''#######################'''  
     '                                                          ''''####''''         
             ,#######,   #######,   ,#######,      ##                                
            ,#'     '#,  ##    ##  ,#'     '#,    #''#        ,####,   ,####,        
            ##       ##  ##   ,#'  ##            #'  '#       #'       #'  '#        
            ##       ##  #######   ##           ,######,      #####,   #    #        
            '#,     ,#'  ##    ##  '#,     ,#' ,#      #,     #,   #   #,  ,#        
             '#######'   ##     ##  '#######'  #'      '#     '####' # '####'        



                #########################################################
                #                        -***-                          #
                #          Department of theory and spectroscopy        #
                #                                                       #
                #                      Frank Neese                      #
                #                                                       #
                #     Directorship, Architecture, Infrastructure        #
                #                    SHARK, DRIVERS                     #
                #        Core code/Algorithms in most modules           #
                #                                                       #
                #        Max Planck Institute fuer Kohlenforschung      #
                #                Kaiser Wilhelm Platz 1                 #
                #                 D-45470 Muelheim/Ruhr                 #
                #                      Germany                          #
                #                                                       #
                #                  All rights reserved                  #
                #                        -***-                          #
                #########################################################


                         Program Version 6.0.0  -   RELEASE  -


 With contributions from (in alphabetic order):
   Daniel Aravena         : Magnetic Suceptibility
   Michael Atanasov       : Ab Initio Ligand Field Theory (pilot matlab implementation)
   Alexander A. Auer      : GIAO ZORA, VPT2 properties, NMR spectrum
   Ute Becker             : All parallelization in ORCA, NUMFREQ, NUMCALC
   Giovanni Bistoni       : ED, misc. LED, open-shell LED, HFLD
   Martin Brehm           : Molecular dynamics
   Dmytro Bykov           : pre 5.0 version of the SCF Hessian
   Marcos Casanova-Páez   : Triplet and SCS-CIS(D). UHF-(DLPNO)-IP/EA/STEOM-CCSD. UHF-CVS-IP/STEOM-CCSD
   Vijay G. Chilkuri      : MRCI spin determinant printing, contributions to CSF-ICE
   Pauline Colinet        : FMM embedding
   Dipayan Datta          : RHF DLPNO-CCSD density
   Achintya Kumar Dutta   : EOM-CC, STEOM-CC
   Nicolas Foglia         : Exact transition moments, OPA infrastructure, MCD improvements
   Dmitry Ganyushin       : Spin-Orbit,Spin-Spin,Magnetic field MRCI
   Miquel Garcia          : C-PCM and meta-GGA Hessian, CCSD/C-PCM, Gaussian charge scheme
   Tiago L. C. Gouveia    : GS-ROHF, GS-ROCIS
   Yang Guo               : DLPNO-NEVPT2, F12-NEVPT2, CIM, IAO-localization
   Andreas Hansen         : Spin unrestricted coupled pair/coupled cluster methods
   Ingolf Harden          : AUTO-CI MPn and infrastructure 
   Benjamin Helmich-Paris : MC-RPA, TRAH-(SCF,CASSCF), AVAS, COSX integrals, SCF dyn. polar.
   Lee Huntington         : MR-EOM, pCC
   Robert Izsak           : Overlap fitted RIJCOSX, COSX-SCS-MP3, EOM
   Riya Kayal             : Wick's Theorem for AUTO-CI, AUTO-CI UHF-CCSDT
   Emily Kempfer          : AUTO-CI, RHF CISDT and CCSDT
   Christian Kollmar      : KDIIS, OOCD, Brueckner-CCSD(T), CCSD density, CASPT2, CASPT2-K, improved NEVPT2
   Axel Koslowski         : Symmetry handling
   Simone Kossmann        : Meta GGA functionals, TD-DFT gradient, OOMP2, (MP2 Hessian; deprecated post 5.0)
   Lucas Lang             : DCDCAS
   Marvin Lechner         : AUTO-CI (C++ implementation), FIC-MRCC
   Spencer Leger          : CASSCF response
   Dagmar Lenk            : GEPOL surface, SMD, ORCA-2-JSON
   Dimitrios Liakos       : Extrapolation schemes; Compound Job, initial MDCI parallelization
   Dimitrios Manganas     : Further ROCIS development; embedding schemes. LFT, Crystal Embedding
   Dimitrios Pantazis     : SARC Basis sets
   Anastasios Papadopoulos: AUTO-CI, single reference methods and gradients
   Taras Petrenko         : pre 6.0 DFT Hessian and TD-DFT gradient, (ASA, deprecated), ECA, 1-Electron XAS/XES, NRVS
   Peter Pinski           : DLPNO-MP2, DLPNO-MP2 Gradient
   Christoph Reimann      : Effective Core Potentials
   Marius Retegan         : Local ZFS, SOC
   Christoph Riplinger    : Optimizer, TS searches, QM/MM, DLPNO-CCSD(T), (RO)-DLPNO pert. Triples
   Michael Roemelt        : Original ROCIS implementation
   Masaaki Saitow         : Open-shell DLPNO-CCSD energy and density
   Barbara Sandhoefer     : DKH picture change effects
   Kantharuban Sivalingam : CASSCF convergence/infrastructure, NEVPT2 and variants, FIC-MRCI
   Bernardo de Souza      : ESD, SOC TD-DFT
   Georgi Stoychev        : AutoAux, RI-MP2 NMR, DLPNO-MP2 response, X2C
   Van Anh Tran           : RI-MP2 g-tensors
   Willem Van den Heuvel  : Paramagnetic NMR
   Zikuan Wang            : NOTCH, Electric field optimization 
   Frank Wennmohs         : Technical directorship and infrastructure
   Hang Xu                : AUTO-CI-Response properties 


 We gratefully acknowledge several colleagues who have allowed us to
 interface, adapt or use parts of their codes:
   Stefan Grimme, W. Hujo, H. Kruse, P. Pracht,  : VdW corrections, initial TS optimization,
                  C. Bannwarth, S. Ehlert,         DFT functionals, gCP, sTDA/sTD-DF
                  L. Wittmann, M. Mueller
   Ed Valeev, F. Pavosevic, A. Kumar             : LibInt (2-el integral package), F12 methods
   Garnet Chan, S. Sharma, J. Yang, R. Olivares  : DMRG
   Ulf Ekstrom                                   : XCFun DFT Library
   Mihaly Kallay                                 : mrcc  (arbitrary order and MRCC methods)
   Frank Weinhold                                : gennbo (NPA and NBO analysis)
   Simon Mueller                                 : openCOSMO-RS
   Christopher J. Cramer and Donald G. Truhlar   : smd solvation model
   Lars Goerigk                                  : TD-DFT with DH, B97 family of functionals
   V. Asgeirsson, H. Jonsson                     : NEB implementation
   FAccTs GmbH                                   : IRC, NEB, NEB-TS, DLPNO-Multilevel, CI-OPT
                                                   MM, QMMM, 2- and 3-layer-ONIOM, Crystal-QMMM,
                                                   LR-CPCM, SF, NACMEs, symmetry and pop. for TD-DFT,
                                                   nearIR, NL-DFT gradient (VV10), updates on ESD,
                                                   ML-optimized integration grids, MBIS, APM,
                                                   GOAT, DOCKER, SOLVATOR, interface openCOSMO-RS
   S Lehtola, MJT Oliveira, MAL Marques          : LibXC Library
   Liviu Ungur et al                             : ANISO software


 Your calculation uses the libint2 library for the computation of 2-el integrals
 For citations please refer to: http://libint.valeyev.net

 Your ORCA version has been built with support for libXC version: 6.2.2
 For citations please refer to: https://libxc.gitlab.io

 This ORCA versions uses:
   CBLAS   interface :  Fast vector & matrix operations
   LAPACKE interface :  Fast linear algebra routines
   SCALAPACK package :  Parallel linear algebra routines
   Shared memory     :  Shared parallel matrices
   BLAS/LAPACK       :  OpenBLAS 0.3.27  USE64BITINT DYNAMIC_ARCH NO_AFFINITY Haswell SINGLE_THREADED
        Core in use  :  Haswell
   Copyright (c) 2011-2014, The OpenBLAS Project


NOTE: MaxCore=3000 MB was set to SCF,MP2,MDCI,CIPSI,MRCI and CIS
      => If you want to overwrite this, your respective input block should be placed after the MaxCore statement
Your calculation utilizes the atom-pairwise dispersion correction
with the Becke-Johnson damping scheme (D3BJ)


Your calculation utilizes the SMD solvation module
Please cite in your paper:
A.V. Marenich, C.J. Cramer, D.G. Truhlar J. Phys. Chem. B, 113, (2009), 6378 

Warning: RI is on but no J-basis has been assigned. Assigning Def2/J (nothing to worry about!)
================================================================================

----- Orbital basis set information -----
Your calculation utilizes the basis: aug-cc-pVTZ 
    H, B-Ne : Obtained from the ccRepo (grant-hill.group.shef.ac.uk/ccrepo) Feb. 2017
              R. A. Kendall, T. H. Dunning, Jr., R. J. Harrison, J. Chem. Phys. 96, 6796 (1992)
         He : Obtained from the ccRepo (grant-hill.group.shef.ac.uk/ccrepo) Feb. 2017
              D. E. Woon, T. H. Dunning, Jr., J. Chem. Phys. 100, 2975 (1994)
  Li-Be, Na : Obtained from the ccRepo (grant-hill.group.shef.ac.uk/ccrepo) Feb. 2017
              B. P. Prascher, D. E. Woon, K. A. Peterson, T. H. Dunning, Jr., A. K. Wilson, Theor. Chem. Acc. 128, 69 (2011)
         Mg : Obtained from the Peterson Research Group Website (tyr0.chem.wsu.edu/~kipeters) Feb. 2017
              B. P. Prascher, D. E. Woon, K. A. Peterson, T. H. Dunning, Jr., A. K. Wilson, Theor. Chem. Acc. 128, 69 (2011)
      Al-Ar : Obtained from the ccRepo (grant-hill.group.shef.ac.uk/ccrepo) Feb. 2017
              D. E. Woon, T. H. Dunning, Jr., J. Chem. Phys. 98, 1358 (1993)
      Sc-Zn : Obtained from the ccRepo (grant-hill.group.shef.ac.uk/ccrepo) Feb. 2017
              N. B. Balabanov, K. A. Peterson, J. Chem. Phys. 123, 064107 (2005)
              N. B. Balabanov, K. A. Peterson, J. Chem. Phys. 125, 074110 (2006)
      Ga-Kr : Obtained from the ccRepo (grant-hill.group.shef.ac.uk/ccrepo) Feb. 2017
              A. K. Wilson, D. E. Woon, K. A. Peterson, T. H. Dunning, Jr., J. Chem. Phys. 110, 7667 (1999)
     Ag, Au : Obtained from the Peterson Research Group Website (tyr0.chem.wsu.edu/~kipeters) Feb. 2017
              K. A. Peterson, C. Puzzarini, Theor. Chem. Acc. 114, 283 (2005)

----- AuxJ basis set information -----
Your calculation utilizes the auxiliary basis: def2/J
   F. Weigend, Phys. Chem. Chem. Phys. 8, 1057 (2006).

================================================================================
                                        WARNINGS
                       Please study these warnings very carefully!
================================================================================


================================================================================
                                       INPUT FILE
================================================================================
NAME = cs_rporg_007_red_solv_02.inp
|  1> !B3LYP aug-cc-pVTZ d3 TightSCF SlowConv RIJCOSX defgrid2
|  2>  
|  3> %pal
|  4> nprocs 4
|  5> end
|  6>  
|  7> %scf
|  8> MaxIter 1500
|  9> end
| 10>  
| 11> %maxcore 3000
| 12>  
| 13> !CPCM
| 14> %cpcm smd true
| 15> SMDsolvent "MeCN"
| 16> surfacetype gepol_ses
| 17> rsolv 2.19
| 18> end 
| 19>  
| 20> * xyz 0 1
| 21> C           1.53272654443288     -1.20734713575059      0.00001134953925
| 22> C           2.23205656040314      0.00003376074589      0.00002131461898
| 23> C           1.53261692111977      1.20735327461293      0.00000329748612
| 24> C           0.14128323670377      1.21145943804893     -0.00003641879993
| 25> C          -0.57083167401632     -0.00009614629977     -0.00005172301107
| 26> C           0.14138939561012     -1.21158285716611     -0.00002530102841
| 27> H          -0.41093083938214     -2.15464364427352     -0.00004270609566
| 28> C          -2.00037464606059     -0.00010505901986     -0.00009934791315
| 29> C          -3.21371752895327      0.00086010309321     -0.00022829616000
| 30> H          -4.28895933598145     -0.00028893327027      0.00071781614810
| 31> H          -0.41113044461304      2.15446486831874     -0.00006102811420
| 32> H           2.07747601296685      2.15600861535335      0.00001063551847
| 33> H           3.32604809148087      0.00008333329139      0.00003835626390
| 34> H           2.07768150628941     -2.15594681768433      0.00002525154760
| 35> *
| 36> 
| 37>                          ****END OF INPUT****
================================================================================

                       ****************************
                       * Single Point Calculation *
                       ****************************

---------------------------------
CARTESIAN COORDINATES (ANGSTROEM)
---------------------------------
  C      1.532727   -1.207347    0.000011
  C      2.232057    0.000034    0.000021
  C      1.532617    1.207353    0.000003
  C      0.141283    1.211459   -0.000036
  C     -0.570832   -0.000096   -0.000052
  C      0.141389   -1.211583   -0.000025
  H     -0.410931   -2.154644   -0.000043
  C     -2.000375   -0.000105   -0.000099
  C     -3.213718    0.000860   -0.000228
  H     -4.288959   -0.000289    0.000718
  H     -0.411130    2.154465   -0.000061
  H      2.077476    2.156009    0.000011
  H      3.326048    0.000083    0.000038
  H      2.077682   -2.155947    0.000025

----------------------------
CARTESIAN COORDINATES (A.U.)
----------------------------
  NO LB      ZA    FRAG     MASS         X           Y           Z
   0 C     6.0000    0    12.011    2.896433   -2.281555    0.000021
   1 C     6.0000    0    12.011    4.217976    0.000064    0.000040
   2 C     6.0000    0    12.011    2.896226    2.281567    0.000006
   3 C     6.0000    0    12.011    0.266987    2.289327   -0.000069
   4 C     6.0000    0    12.011   -1.078716   -0.000182   -0.000098
   5 C     6.0000    0    12.011    0.267187   -2.289560   -0.000048
   6 H     1.0000    0     1.008   -0.776547   -4.071686   -0.000081
   7 C     6.0000    0    12.011   -3.780160   -0.000199   -0.000188
   8 C     6.0000    0    12.011   -6.073046    0.001625   -0.000431
   9 H     1.0000    0     1.008   -8.104959   -0.000546    0.001356
  10 H     1.0000    0     1.008   -0.776924    4.071349   -0.000115
  11 H     1.0000    0     1.008    3.925861    4.074266    0.000020
  12 H     1.0000    0     1.008    6.285320    0.000157    0.000072
  13 H     1.0000    0     1.008    3.926249   -4.074149    0.000048

--------------------------------
INTERNAL COORDINATES (ANGSTROEM)
--------------------------------
 C      0   0   0     0.000000000000     0.00000000     0.00000000
 C      1   0   0     1.395288895018     0.00000000     0.00000000
 C      2   1   0     1.395290728805   119.83492996     0.00000000
 C      3   2   1     1.391339744112   120.25420761     0.00000000
 C      4   3   2     1.405337888293   120.27660237     0.00000000
 C      1   2   3     1.391343596806   120.25438373     0.00000000
 H      6   1   2     1.092895827819   120.53055577   179.99942416
 C      5   4   3     1.429542972865   120.44605285   180.00031778
 C      8   5   4     1.213343273617   179.95387663     5.19965553
 H      9   8   5     1.075242837221   179.87917010   202.68069920
 H      4   3   2     1.092895291156   120.53091500   180.00063070
 H      3   2   1     1.093991949485   120.04403032   180.00002419
 H      2   1   3     1.093991532334   120.08255197   180.00029316
 H      1   2   3     1.093991438362   120.04338317   179.99999019

---------------------------
INTERNAL COORDINATES (A.U.)
---------------------------
 C      0   0   0     0.000000000000     0.00000000     0.00000000
 C      1   0   0     2.636713889286     0.00000000     0.00000000
 C      2   1   0     2.636717354641   119.83492996     0.00000000
 C      3   2   1     2.629251075612   120.25420761     0.00000000
 C      4   3   2     2.655703734496   120.27660237     0.00000000
 C      1   2   3     2.629258356149   120.25438373     0.00000000
 H      6   1   2     2.065273807483   120.53055577   179.99942416
 C      5   4   3     2.701444715387   120.44605285   180.00031778
 C      8   5   4     2.292886493572   179.95387663     5.19965553
 H      9   8   5     2.031914489807   179.87917010   202.68069920
 H      4   3   2     2.065272793336   120.53091500   180.00063070
 H      3   2   1     2.067345177241   120.04403032   180.00002419
 H      2   1   3     2.067344388939   120.08255197   180.00029316
 H      1   2   3     2.067344211359   120.04338317   179.99999019

---------------------
BASIS SET INFORMATION
---------------------
There are 2 groups of distinct atoms

 Group   1 Type C   : 19s6p3d2f contracted to 5s4p3d2f pattern {88111/3111/111/11}
 Group   2 Type H   : 6s3p2d contracted to 4s3p2d pattern {3111/111/11}

Atom   0C    basis set group =>   1
Atom   1C    basis set group =>   1
Atom   2C    basis set group =>   1
Atom   3C    basis set group =>   1
Atom   4C    basis set group =>   1
Atom   5C    basis set group =>   1
Atom   6H    basis set group =>   2
Atom   7C    basis set group =>   1
Atom   8C    basis set group =>   1
Atom   9H    basis set group =>   2
Atom  10H    basis set group =>   2
Atom  11H    basis set group =>   2
Atom  12H    basis set group =>   2
Atom  13H    basis set group =>   2
---------------------------------
AUXILIARY/J BASIS SET INFORMATION
---------------------------------
There are 2 groups of distinct atoms

 Group   1 Type C   : 12s5p4d2f1g contracted to 6s4p3d1f1g pattern {711111/2111/211/2/1}
 Group   2 Type H   : 5s2p1d contracted to 3s1p1d pattern {311/2/1}

Atom   0C    basis set group =>   1
Atom   1C    basis set group =>   1
Atom   2C    basis set group =>   1
Atom   3C    basis set group =>   1
Atom   4C    basis set group =>   1
Atom   5C    basis set group =>   1
Atom   6H    basis set group =>   2
Atom   7C    basis set group =>   1
Atom   8C    basis set group =>   1
Atom   9H    basis set group =>   2
Atom  10H    basis set group =>   2
Atom  11H    basis set group =>   2
Atom  12H    basis set group =>   2
Atom  13H    basis set group =>   2


           ************************************************************
           *        Program running with 4 parallel MPI-processes     *
           *              working on a common directory               *
           ************************************************************
------------------------------------------------------------------------------
                             ORCA STARTUP CALCULATIONS
                           -- RI-GTO INTEGRALS CHOSEN --
------------------------------------------------------------------------------
------------------------------------------------------------------------------
                   ___                                                        
                  /   \      - P O W E R E D   B Y -                         
                 /     \                                                     
                 |  |  |   _    _      __       _____    __    __             
                 |  |  |  | |  | |    /  \     |  _  \  |  |  /  |          
                  \  \/   | |  | |   /    \    | | | |  |  | /  /          
                 / \  \   | |__| |  /  /\  \   | |_| |  |  |/  /          
                |  |  |   |  __  | /  /__\  \  |    /   |      \           
                |  |  |   | |  | | |   __   |  |    \   |  |\   \          
                \     /   | |  | | |  |  |  |  | |\  \  |  | \   \       
                 \___/    |_|  |_| |__|  |__|  |_| \__\ |__|  \__/        
                                                                              
                      - O R C A' S   B I G   F R I E N D -                    
                                      &                                       
                       - I N T E G R A L  F E E D E R -                       
                                                                              
 v1 FN, 2020, v2 2021, v3 2022-2024                                           
------------------------------------------------------------------------------


----------------------
SHARK INTEGRAL PACKAGE
----------------------

Number of atoms                             ...     14
Number of basis functions                   ...    554
Number of shells                            ...    214
Maximum angular momentum                    ...      3
Integral batch strategy                     ... SHARK/LIBINT Hybrid
RI-J (if used) integral strategy            ... SPLIT-RIJ (Revised 2003 algorithm where possible)
Printlevel                                  ...      1
Contraction scheme used                     ... PARTIAL GENERAL contraction
Prescreening option                         ... SCHWARTZ
   Thresh                                   ... 2.500e-11
   Tcut                                     ... 2.500e-12
   Tpresel                                  ... 2.500e-12 
Coulomb Range Separation                    ... NOT USED
Exchange Range Separation                   ... NOT USED
Multipole approximations                    ... NOT USED
Finite Nucleus Model                        ... NOT USED
CABS basis                                  ... NOT available
Auxiliary Coulomb fitting basis             ... AVAILABLE
   # of basis functions in Aux-J            ...    458
   # of shells in Aux-J                     ...    150
   Maximum angular momentum in Aux-J        ...      4
Auxiliary J/K fitting basis                 ... NOT available
Auxiliary Correlation fitting basis         ... NOT available
Auxiliary 'external' fitting basis          ... NOT available

Checking pre-screening integrals            ... done (  0.0 sec) Dimension = 214
Save PGC pre-screening integrals            ... done (  0.0 sec) Dimension = 214
Calculate PGC overlap integrals             ... done (  0.1 sec) Dimension = 166
Calculating pre-screening integrals (ORCA)  ... done (  0.2 sec) Dimension = 166
Check shell pair data                       ... done (  0.0 sec)
Shell pair information
Shell pair cut-off parameter TPreSel        ...   2.5e-12
Total number of shell pairs                 ...     23005
Shell pairs after pre-screening             ...     19813
Total number of primitive shell pairs       ...     29445
Primitive shell pairs kept                  ...     23772
          la=0 lb=0:   4556 shell pairs
          la=1 lb=0:   4999 shell pairs
          la=1 lb=1:   1219 shell pairs
          la=2 lb=0:   3550 shell pairs
          la=2 lb=1:   1715 shell pairs
          la=2 lb=2:    632 shell pairs
          la=3 lb=0:   1665 shell pairs
          la=3 lb=1:    779 shell pairs
          la=3 lb=2:    563 shell pairs
          la=3 lb=3:    135 shell pairs

Calculating one electron integrals          ... done (  0.0 sec)
Calculating RI/J V-Matrix + Cholesky decomp.... done (  0.1 sec)
Calculating Nuclear repulsion               ... done (  0.0 sec) ENN=    298.365325191273 Eh

Diagonalization of the overlap matrix:
Smallest eigenvalue                        ... 6.141e-07
Time for diagonalization                   ...    0.047 sec
Threshold for overlap eigenvalues          ... 1.000e-07
Number of eigenvalues below threshold      ... 0

IMPORTANT:
Smallest eigenvalue of S below the DiffSThresh (1.000e-06) while
Thresh>1e-12 and/or TCut>1e-13! In order to avoid SCF convergence issues,
Thresh will be set to at least 1e-12 and TCut to at least 1e-13.
This can be turned off by adding %SCF DiffSThresh -1 END to the input.

Time for construction of square roots      ...    0.040 sec
Total time needed                          ...    0.109 sec

-------------------
DFT GRID GENERATION
-------------------

General Integration Accuracy     IntAcc      ... 4.388
Radial Grid Type                 RadialGrid  ... OptM3 with GC (2021)
Angular Grid (max. ang.)         AngularGrid ... 4 (Lebedev-302)
Angular grid pruning method      GridPruning ... 4 (adaptive)
Weight generation scheme         WeightScheme... mBecke (2022)
Basis function cutoff            BFCut       ... 1.0000e-11
Integration weight cutoff        WCut        ... 1.0000e-14
Partially contracted basis set               ... off
Rotationally invariant grid construction     ... off
Angular grids for H and He will be reduced by one unit
Diffuse basis detected: some atoms will have their outermost
                        angular grid increased by 1.

Total number of grid points                  ...    70930
Total number of batches                      ...     1115
Average number of points per batch           ...       63
Average number of grid points per atom       ...     5066

---------------------
SHARK GRID GENERATION
---------------------

General Integration Accuracy     IntAcc      ... 4.388
Radial Grid Type                 RadialGrid  ... OptM3 with GC (2021)
Angular Grid (max. ang.)         AngularGrid ... 4 (Lebedev-302)
Angular grid pruning method      GridPruning ... 4 (adaptive)
Weight generation scheme         WeightScheme... mBecke (2022)
Basis function cutoff            BFCut       ... 1.0000e-11
Integration weight cutoff        WCut        ... 1.0000e-14
Partially contracted basis set               ... off
Rotationally invariant grid construction     ... off
Angular grids for H and He will be reduced by one unit
Diffuse basis detected: some atoms will have their outermost
                        angular grid increased by 1.
Steep s-basis detected: some atoms will have their radial
                        grid points doubled.

Total number of grid points                  ...   121631
Total number of batches                      ...     1906
Average number of points per batch           ...       63
Average number of grid points per atom       ...     8688

--------------------
COSX GRID GENERATION
--------------------

GRIDX 1
-------
General Integration Accuracy     IntAcc      ... 3.816
Radial Grid Type                 RadialGrid  ... OptM3 with GC (2021)
Angular Grid (max. ang.)         AngularGrid ... 1 (Lebedev-50)
Angular grid pruning method      GridPruning ... 4 (adaptive)
Weight generation scheme         WeightScheme... mBecke (2022)
Basis function cutoff            BFCut       ... 1.0000e-11
Integration weight cutoff        WCut        ... 1.0000e-14
Partially contracted basis set               ... on
Rotationally invariant grid construction     ... off
Angular grids for H and He will be reduced by one unit
Diffuse basis detected: some atoms will have their outermost
                        angular grid increased by 1.

Total number of grid points                  ...     8914
Total number of batches                      ...       74
Average number of points per batch           ...      120
Average number of grid points per atom       ...      637
UseSFitting                                  ... on

GRIDX 2
-------
General Integration Accuracy     IntAcc      ... 4.020
Radial Grid Type                 RadialGrid  ... OptM3 with GC (2021)
Angular Grid (max. ang.)         AngularGrid ... 2 (Lebedev-110)
Angular grid pruning method      GridPruning ... 4 (adaptive)
Weight generation scheme         WeightScheme... mBecke (2022)
Basis function cutoff            BFCut       ... 1.0000e-11
Integration weight cutoff        WCut        ... 1.0000e-14
Partially contracted basis set               ... on
Rotationally invariant grid construction     ... off
Angular grids for H and He will be reduced by one unit
Diffuse basis detected: some atoms will have their outermost
                        angular grid increased by 1.

Total number of grid points                  ...    22075
Total number of batches                      ...      181
Average number of points per batch           ...      121
Average number of grid points per atom       ...     1577
UseSFitting                                  ... on

GRIDX 3
-------
General Integration Accuracy     IntAcc      ... 4.338
Radial Grid Type                 RadialGrid  ... OptM3 with GC (2021)
Angular Grid (max. ang.)         AngularGrid ... 3 (Lebedev-194)
Angular grid pruning method      GridPruning ... 4 (adaptive)
Weight generation scheme         WeightScheme... mBecke (2022)
Basis function cutoff            BFCut       ... 1.0000e-11
Integration weight cutoff        WCut        ... 1.0000e-14
Partially contracted basis set               ... on
Rotationally invariant grid construction     ... off
Angular grids for H and He will be reduced by one unit
Diffuse basis detected: some atoms will have their outermost
                        angular grid increased by 1.

Total number of grid points                  ...    49126
Total number of batches                      ...      392
Average number of points per batch           ...      125
Average number of grid points per atom       ...     3509
UseSFitting                                  ... on
Initializing property integral containers    ... done (  0.0 sec)

SHARK setup successfully completed in   7.0 seconds

Maximum memory used throughout the entire STARTUP-calculation: 55.3 MB


           ************************************************************
           *        Program running with 4 parallel MPI-processes     *
           *              working on a common directory               *
           ************************************************************
-------------------------------------------------------------------------------
                                 ORCA GUESS
                   Start orbitals & Density for SCF / CASSCF
-------------------------------------------------------------------------------

------------
SCF SETTINGS
------------
Hamiltonian:
 Density Functional     Method          .... DFT(GTOs)
 Exchange Functional    Exchange        .... B88
   X-Alpha parameter    XAlpha          ....  0.666667
   Becke's b parameter  XBeta           ....  0.004200
 Correlation Functional Correlation     .... LYP
 LDA part of GGA corr.  LDAOpt          .... VWN-5
 Gradients option       PostSCFGGA      .... off
 Hybrid DFT is turned on
   Fraction HF Exchange ScalHFX         ....  0.200000
   Scaling of DF-GGA-X  ScalDFX         ....  0.720000
   Scaling of DF-GGA-C  ScalDFC         ....  0.810000
   Scaling of DF-LDA-C  ScalLDAC        ....  1.000000
   Perturbative correction              ....  0.000000
   NL short-range parameter             ....  4.800000
 RI-approximation to the Coulomb term is turned on
   Number of AuxJ basis functions       .... 458
   RIJ-COSX (HFX calculated with COS-X)).... on


General Settings:
 Integral files         IntName         .... cs_rporg_007_red_solv_02
 Hartree-Fock type      HFTyp           .... RHF
 Total Charge           Charge          ....    0
 Multiplicity           Mult            ....    1
 Number of Electrons    NEL             ....   54
 Basis Dimension        Dim             ....  506
 Nuclear Repulsion      ENuc            ....    298.3653251913 Eh

Convergence Acceleration:
 AO-DIIS                CNVDIIS         .... on
   Start iteration      DIISMaxIt       ....     0
   Startup error        DIISStart       ....  0.200000
   # of expansion vecs  DIISMaxEq       ....     5
   Bias factor          DIISBfac        ....   1.050
   Max. coefficient     DIISMaxC        ....  10.000
 MO-DIIS                CNVKDIIS        .... off
 Trust-Rad. Augm. Hess. CNVTRAH         .... auto
   Auto Start mean grad. ratio tolernc. ....  1.125000
   Auto Start start iteration           ....    50
   Auto Start num. interpolation iter.  ....    10
   Max. Number of Micro iterations      ....    24
   Max. Number of Macro iterations      .... Maxiter - #DIIS iter
   Number of Davidson start vectors     ....     2
   Converg. threshold    (grad. norm)   ....   1.000e-05
   Grad. Scal. Fac. for Micro threshold ....   0.100
   Minimum threshold for Micro iter.    ....   1.000e-02
   NR start threshold (gradient norm)   ....   1.000e-04
   Initial trust radius                 ....   0.400
   Minimum AH scaling param. (alpha)    ....   1.000
   Maximum AH scaling param. (alpha)    .... 1000.000
   Quad. conv. algorithm                .... NR
   White noise on init. David. guess    .... on
   Maximum white noise                  ....   0.010
   Pseudo random numbers                .... off
   Inactive MOs                         .... canonical
   Orbital update algorithm             .... Taylor
   Preconditioner                       .... Diag
   Full preconditioner red. dimension   ....   250
 SOSCF                  CNVSOSCF        .... on
   Start iteration      SOSCFMaxIt      ....   150
   Startup grad/error   SOSCFStart      ....  0.001000
   Hessian update       SOSCFHessUp     .... L-BFGS
 Level Shifting         CNVShift        .... on
   Level shift para.    LevelShift      ....    0.2500
   Turn off err/grad.   ShiftErr        ....    0.0000
 Zerner damping         CNVZerner       .... off
 Static damping         CNVDamp         .... on
   Fraction old density DampFac         ....    0.8500
   Max. Damping (<1)    DampMax         ....    0.9800
   Min. Damping (>=0)   DampMin         ....    0.0000
   Turn off err/grad.   DampErr         ....    0.0300

SCF Procedure:
 Maximum # iterations   MaxIter         ....  1500
 SCF integral mode      SCFMode         .... Direct
   Integral package                     .... SHARK and LIBINT hybrid scheme
 Reset frequency        DirectResetFreq ....    20
 Integral Threshold     Thresh          ....  1.000e-12 Eh
 Primitive CutOff       TCut            ....  1.000e-13 Eh

Convergence Tolerance:
 Convergence Check Mode ConvCheckMode   .... Total+1el-Energy
 Convergence forced     ConvForced      .... 0
 Energy Change          TolE            ....  1.000e-08 Eh
 1-El. energy change                    ....  1.000e-05 Eh
 Orbital Gradient       TolG            ....  1.000e-05
 Orbital Rotation angle TolX            ....  1.000e-05
 DIIS Error             TolErr          ....  5.000e-07

------------------------------
INITIAL GUESS: MODEL POTENTIAL
------------------------------
Loading Hartree-Fock densities                     ... done
Calculating cut-offs                               ... done
Initializing the effective Hamiltonian             ... done
Setting up the integral package (SHARK)            ... done
Starting the Coulomb interaction                   ... done (   0.4 sec)
Making the grid                                    ... done (   0.3 sec)
Mapping shells                                     ... done
Starting the XC term evaluation                    ... done (   0.5 sec)
  promolecular density results
     # of electrons  =     53.998523223
     EX              =    -42.833972248
     EC              =     -1.782929941
     EX+EC           =    -44.616902189
Transforming the Hamiltonian                       ... done (   0.0 sec)
Diagonalizing the Hamiltonian                      ... done (   0.1 sec)
Back transforming the eigenvectors                 ... done (   0.0 sec)
Now organizing SCF variables                       ... done
                      ------------------
                      INITIAL GUESS DONE (   1.5 sec)
                      ------------------
             **** ENERGY FILE WAS UPDATED (cs_rporg_007_red_solv_02.en.tmp) ****
Finished Guess after   2.3 sec
Maximum memory used throughout the entire GUESS-calculation: 38.3 MB


           ************************************************************
           *        Program running with 4 parallel MPI-processes     *
           *              working on a common directory               *
           ************************************************************

-------------------------------------------------------------------------------------------
                                      ORCA LEAN-SCF
                              memory conserving SCF solver
-------------------------------------------------------------------------------------------

--------------------
CPCM SOLVATION MODEL
--------------------
CPCM parameters:
  Epsilon                                         ...      35.6880
  Refrac                                          ...       1.3442
  Rsolv                                           ...       2.1900
  Surface type                                    ...    GEPOL SES
  Discretization scheme                           ... Constant num. charges
  Epsilon function type                           ...         CPCM
Solvent:                                          ... ACETONITRILE
SMD-CDS solvent descriptors:
  Soln                                            ...       1.3442
  Soln25                                          ...       1.3416
  Sola                                            ...       0.0700
  Solb                                            ...       0.3200
  Solg                                            ...      41.2500
  Solc                                            ...       0.0000
  Solh                                            ...       0.0000
Radii:
  Scheme                                          ... Element-dependent radii
  Radius for C  used is    3.4960 Bohr (=   1.8500 Ang.)
  Radius for H  used is    2.2677 Bohr (=   1.2000 Ang.)
Calculating surface                               ...        done! (  0.0s)
Cavity surface points                             ...          454
Cavity Volume                                     ...     823.2495
Cavity Surface-area                               ...     506.3040
Calculating surface distance matrix               ...        done! (  0.0s)
Performing Cholesky decomposition & store         ...        done! (  0.0s)
Overall time for CPCM initialization              ...                 0.1s

----------------------------------------D-I-I-S--------------------------------------------
Iteration    Energy (Eh)           Delta-E    RMSDP     MaxDP     DIISErr   Damp  Time(sec)
-------------------------------------------------------------------------------------------
               ***  Starting incremental Fock matrix formation  ***
    1    -308.1302332186361355     0.00e+00  3.80e-03  2.34e-01  1.38e-01  0.850  12.8
    2    -308.1750435602947391    -4.48e-02  3.02e-03  1.82e-01  1.10e-01  0.850   7.2
                               ***Turning on AO-DIIS***
    3    -308.2071933023397605    -3.21e-02  1.52e-03  8.79e-02  8.18e-02  0.850   7.2
    4    -308.2289507383430873    -2.18e-02  1.09e-03  6.22e-02  6.59e-02  0.850   7.2
    5    -308.2449699122438460    -1.60e-02  8.49e-04  4.84e-02  5.47e-02  0.850   7.1
    6    -308.2575456295287495    -1.26e-02  6.92e-04  3.92e-02  4.60e-02  0.850   7.1
    7    -308.2677738115638704    -1.02e-02  5.79e-04  3.26e-02  3.89e-02  0.850   7.4
    8    -308.2761901385872534    -8.42e-03  4.94e-04  2.79e-02  3.29e-02  0.850   7.1
    9    -308.2831219352100334    -6.93e-03  4.19e-04  2.36e-02  2.79e-02  0.850   7.1
   10    -308.2888441431631463    -5.72e-03  2.33e-03  1.31e-01  2.35e-02  0.000   7.0
   11    -308.3185179963035125    -2.97e-02  2.41e-04  1.52e-02  1.79e-03  0.000   7.3
                              *** Initializing SOSCF ***
---------------------------------------S-O-S-C-F--------------------------------------
Iteration    Energy (Eh)           Delta-E    RMSDP     MaxDP     MaxGrad    Time(sec)
--------------------------------------------------------------------------------------
   12    -308.3185380359217334    -2.00e-05  1.53e-05  1.86e-03  4.18e-04     7.1
               *** Restarting incremental Fock matrix formation ***
   13    -308.3185459906878805    -7.95e-06  3.80e-04  2.89e-02  5.76e-05    12.5
   14    -308.3185459262379027     6.44e-08  7.22e-05  5.51e-03  9.24e-05    11.4
   15    -308.3185461123106279    -1.86e-07  8.77e-05  6.91e-03  1.83e-05    10.9
   16    -308.3185461156485871    -3.34e-09  7.26e-06  5.65e-04  2.25e-05    11.2
                 **** Energy Check signals convergence ****

               *****************************************************
               *                     SUCCESS                       *
               *           SCF CONVERGED AFTER  16 CYCLES          *
               *****************************************************

Recomputing exchange energy using gridx3       ... done (   19.681 sec)
Old exchange energy                            :     -8.700095991 Eh
New exchange energy                            :     -8.700125445 Eh
Exchange energy change after final integration :     -0.000029454 Eh
Total energy after final integration           :   -308.318575570 Eh

SMD CDS free energy correction energy :                -0.92234     Kcal/mol
Total Energy after SMD CDS correction =              -308.320045417 Eh
             **** ENERGY FILE WAS UPDATED (cs_rporg_007_red_solv_02.en.tmp) ****

----------------
TOTAL SCF ENERGY
----------------

Total Energy       :       -308.32004541733204 Eh           -8389.81497 eV

Components:
Nuclear Repulsion  :        298.36532519127297 Eh            8118.93326 eV
Electronic Energy  :       -606.67366531239009 Eh          -16508.42971 eV
One Electron Energy:      -1005.28825909333170 Eh          -27355.28425 eV
Two Electron Energy:        398.61459378094162 Eh           10846.85454 eV
CPCM Dielectric    :         -0.01020599453150 Eh              -0.27772 eV
SMD CDS (Gcds)     :         -0.00146984719268 Eh              -0.04000 eV

Virial components:
Potential Energy   :       -614.68828062623493 Eh          -16726.51848 eV
Kinetic Energy     :        306.36823520890289 Eh            8336.70351 eV
Virial Ratio       :          2.00637079822292

DFT components:
N(Alpha)           :       27.000007198280 electrons
N(Beta)            :       27.000007198280 electrons
N(Total)           :       54.000014396560 electrons
E(X)               :      -34.565714044626 Eh       
E(C)               :       -2.116385219033 Eh       
E(XC)              :      -36.682099263659 Eh       

CPCM Solvation Model Properties:
Surface-charge          :         -0.04796816918598
Corrected charge        :         -0.00000000000000
Outlying charge corr.   :          0.00017836656997 Eh               0.00485 eV
Free-energy (cav+disp)  :         -0.00146984719268 Eh              -0.04000 eV

---------------
SCF CONVERGENCE
---------------

  Last Energy change         ...    3.3380e-09  Tolerance :   1.0000e-08
  Last MAX-Density change    ...    5.6512e-04  Tolerance :   1.0000e-07
  Last RMS-Density change    ...    7.2568e-06  Tolerance :   5.0000e-09
  Last DIIS Error            ...    4.1794e-04  Tolerance :   5.0000e-07
  Last Orbital Gradient      ...    2.2464e-05  Tolerance :   1.0000e-05
  Last Orbital Rotation      ...    5.1357e-05  Tolerance :   1.0000e-05


----------------
ORBITAL ENERGIES
----------------

  NO   OCC          E(Eh)            E(eV) 
   0   2.0000     -10.208150      -277.7779 
   1   2.0000     -10.187392      -277.2130 
   2   2.0000     -10.185892      -277.1722 
   3   2.0000     -10.185892      -277.1722 
   4   2.0000     -10.182224      -277.0724 
   5   2.0000     -10.181424      -277.0506 
   6   2.0000     -10.181207      -277.0447 
   7   2.0000     -10.176847      -276.9261 
   8   2.0000      -0.868106       -23.6224 
   9   2.0000      -0.788263       -21.4497 
  10   2.0000      -0.751895       -20.4601 
  11   2.0000      -0.732178       -19.9236 
  12   2.0000      -0.626928       -17.0596 
  13   2.0000      -0.609769       -16.5926 
  14   2.0000      -0.548333       -14.9209 
  15   2.0000      -0.512728       -13.9520 
  16   2.0000      -0.475327       -12.9343 
  17   2.0000      -0.462095       -12.5742 
  18   2.0000      -0.434338       -11.8189 
  19   2.0000      -0.423176       -11.5152 
  20   2.0000      -0.389587       -10.6012 
  21   2.0000      -0.359546        -9.7837 
  22   2.0000      -0.350186        -9.5291 
  23   2.0000      -0.319725        -8.7002 
  24   2.0000      -0.288618        -7.8537 
  25   2.0000      -0.263943        -7.1822 
  26   2.0000      -0.243489        -6.6257 
  27   0.0000      -0.044326        -1.2062 
  28   0.0000      -0.019983        -0.5438 
  29   0.0000      -0.003680        -0.1001 
  30   0.0000       0.010296         0.2802 
  31   0.0000       0.013757         0.3743 
  32   0.0000       0.025636         0.6976 
  33   0.0000       0.027553         0.7497 
  34   0.0000       0.036804         1.0015 
  35   0.0000       0.038388         1.0446 
  36   0.0000       0.041895         1.1400 
  37   0.0000       0.046776         1.2728 
*Only the first 10 virtual orbitals were printed.

                    ********************************
                    * MULLIKEN POPULATION ANALYSIS *
                    ********************************

-----------------------
MULLIKEN ATOMIC CHARGES
-----------------------
   0 C :   -0.479996
   1 C :   -0.044271
   2 C :   -0.483746
   3 C :   -1.231263
   4 C :    1.493399
   5 C :   -1.234018
   6 H :   -0.376366
   7 C :    1.318847
   8 C :   -0.437878
   9 H :    0.363422
  10 H :   -0.373208
  11 H :    0.549864
  12 H :    0.384463
  13 H :    0.550751
Sum of atomic charges:   -0.0000000

--------------------------------
MULLIKEN REDUCED ORBITAL CHARGES
--------------------------------
  0 C s       :     3.486038  s :     3.486038
      pz      :     0.956159  p :     2.855387
      px      :     0.981648
      py      :     0.917580
      dz2     :     0.013309  d :     0.148118
      dxz     :     0.017546
      dyz     :     0.013385
      dx2y2   :    -0.060642
      dxy     :     0.164520
      f0      :     0.000765  f :    -0.009546
      f+1     :     0.000546
      f-1     :     0.000020
      f+2     :     0.000699
      f-2     :     0.000150
      f+3     :    -0.000190
      f-3     :    -0.011535

  1 C s       :     3.463390  s :     3.463390
      pz      :     0.940415  p :     2.744530
      px      :     0.952026
      py      :     0.852089
      dz2     :    -0.027239  d :    -0.154291
      dxz     :     0.003540
      dyz     :     0.019779
      dx2y2   :    -0.152143
      dxy     :     0.001773
      f0      :     0.000659  f :    -0.009358
      f+1     :     0.000095
      f-1     :     0.000373
      f+2     :     0.000391
      f-2     :     0.000589
      f+3     :    -0.001542
      f-3     :    -0.009924

  2 C s       :     3.486591  s :     3.486591
      pz      :     0.956139  p :     2.857836
      px      :     0.983681
      py      :     0.918015
      dz2     :     0.013284  d :     0.148777
      dxz     :     0.017537
      dyz     :     0.013388
      dx2y2   :    -0.060249
      dxy     :     0.164817
      f0      :     0.000765  f :    -0.009458
      f+1     :     0.000540
      f-1     :     0.000022
      f+2     :     0.000699
      f-2     :     0.000153
      f+3     :    -0.000208
      f-3     :    -0.011430

  3 C s       :     4.015532  s :     4.015532
      pz      :     0.943033  p :     2.851293
      px      :     0.861759
      py      :     1.046501
      dz2     :    -0.032167  d :     0.383096
      dxz     :     0.012469
      dyz     :     0.003874
      dx2y2   :    -0.018107
      dxy     :     0.417028
      f0      :     0.000612  f :    -0.018658
      f+1     :    -0.000201
      f-1     :     0.000139
      f+2     :     0.000714
      f-2     :    -0.000192
      f+3     :    -0.000966
      f-3     :    -0.018764

  4 C s       :     2.628464  s :     2.628464
      pz      :     1.006219  p :     1.738472
      px      :     0.137689
      py      :     0.594564
      dz2     :     0.029418  d :     0.207927
      dxz     :    -0.034208
      dyz     :     0.002884
      dx2y2   :     0.315061
      dxy     :    -0.105228
      f0      :     0.001046  f :    -0.068261
      f+1     :    -0.006392
      f-1     :    -0.001248
      f+2     :     0.001140
      f-2     :    -0.001201
      f+3     :    -0.027563
      f-3     :    -0.034044

  5 C s       :     4.018546  s :     4.018546
      pz      :     0.942956  p :     2.851547
      px      :     0.861103
      py      :     1.047489
      dz2     :    -0.032181  d :     0.382648
      dxz     :     0.012464
      dyz     :     0.003863
      dx2y2   :    -0.018591
      dxy     :     0.417092
      f0      :     0.000612  f :    -0.018723
      f+1     :    -0.000197
      f-1     :     0.000137
      f+2     :     0.000714
      f-2     :    -0.000192
      f+3     :    -0.000977
      f-3     :    -0.018820

  6 H s       :     1.257141  s :     1.257141
      pz      :     0.011239  p :     0.114353
      px      :    -0.009566
      py      :     0.112679
      dz2     :    -0.000640  d :     0.004872
      dxz     :     0.001085
      dyz     :     0.002769
      dx2y2   :     0.001973
      dxy     :    -0.000315

  7 C s       :     2.466856  s :     2.466856
      pz      :     1.076295  p :     2.279254
      px      :     0.074541
      py      :     1.128417
      dz2     :     0.018711  d :    -0.050213
      dxz     :    -0.017179
      dyz     :     0.001973
      dx2y2   :     0.003001
      dxy     :    -0.056719
      f0      :     0.001401  f :    -0.014744
      f+1     :    -0.003619
      f-1     :    -0.000711
      f+2     :     0.001312
      f-2     :    -0.000080
      f+3     :    -0.001765
      f-3     :    -0.011282

  8 C s       :     3.713341  s :     3.713341
      pz      :     0.991048  p :     2.668497
      px      :     0.614085
      py      :     1.063364
      dz2     :     0.006360  d :     0.054722
      dxz     :     0.000794
      dyz     :    -0.000080
      dx2y2   :     0.019389
      dxy     :     0.028259
      f0      :    -0.000632  f :     0.001317
      f+1     :     0.000891
      f-1     :     0.000011
      f+2     :    -0.000970
      f-2     :     0.000002
      f+3     :     0.002138
      f-3     :    -0.000122

  9 H s       :     0.594178  s :     0.594178
      pz      :     0.015419  p :     0.043722
      px      :     0.003908
      py      :     0.024395
      dz2     :    -0.001525  d :    -0.001322
      dxz     :     0.001687
      dyz     :     0.000000
      dx2y2   :    -0.003528
      dxy     :     0.002043

 10 H s       :     1.253841  s :     1.253841
      pz      :     0.011235  p :     0.114491
      px      :    -0.009569
      py      :     0.112825
      dz2     :    -0.000641  d :     0.004875
      dxz     :     0.001085
      dyz     :     0.002769
      dx2y2   :     0.001979
      dxy     :    -0.000316

 11 H s       :     0.455367  s :     0.455367
      pz      :     0.016901  p :    -0.011262
      px      :    -0.011706
      py      :    -0.016458
      dz2     :    -0.000465  d :     0.006031
      dxz     :     0.000934
      dyz     :     0.003244
      dx2y2   :     0.000837
      dxy     :     0.001481

 12 H s       :     0.614127  s :     0.614127
      pz      :     0.013256  p :    -0.004064
      px      :    -0.014994
      py      :    -0.002326
      dz2     :    -0.000683  d :     0.005474
      dxz     :     0.003984
      dyz     :    -0.000134
      dx2y2   :     0.001121
      dxy     :     0.001186

 13 H s       :     0.454697  s :     0.454697
      pz      :     0.016899  p :    -0.011465
      px      :    -0.011968
      py      :    -0.016397
      dz2     :    -0.000464  d :     0.006017
      dxz     :     0.000934
      dyz     :     0.003243
      dx2y2   :     0.000828
      dxy     :     0.001476



                     *******************************
                     * LOEWDIN POPULATION ANALYSIS *
                     *******************************

----------------------
LOEWDIN ATOMIC CHARGES
----------------------
   0 C :    0.192236
   1 C :    0.189608
   2 C :    0.192241
   3 C :    0.189752
   4 C :   -0.232929
   5 C :    0.189759
   6 H :   -0.161314
   7 C :   -0.021365
   8 C :    0.399588
   9 H :   -0.279538
  10 H :   -0.161313
  11 H :   -0.165502
  12 H :   -0.165721
  13 H :   -0.165503

-------------------------------
LOEWDIN REDUCED ORBITAL CHARGES
-------------------------------
  0 C s       :     2.492359  s :     2.492359
      pz      :     0.601758  p :     2.298202
      px      :     0.853086
      py      :     0.843358
      dz2     :     0.067932  d :     0.688064
      dxz     :     0.098374
      dyz     :     0.059768
      dx2y2   :     0.202173
      dxy     :     0.259817
      f0      :     0.018727  f :     0.329139
      f+1     :     0.028157
      f-1     :     0.022571
      f+2     :     0.045526
      f-2     :     0.022360
      f+3     :     0.056625
      f-3     :     0.135174

  1 C s       :     2.493710  s :     2.493710
      pz      :     0.596849  p :     2.295559
      px      :     0.837287
      py      :     0.861424
      dz2     :     0.067758  d :     0.691522
      dxz     :     0.038293
      dyz     :     0.121709
      dx2y2   :     0.291219
      dxy     :     0.172543
      f0      :     0.018892  f :     0.329601
      f+1     :     0.019850
      f-1     :     0.030737
      f+2     :     0.010843
      f-2     :     0.057613
      f+3     :     0.055925
      f-3     :     0.135741

  2 C s       :     2.492359  s :     2.492359
      pz      :     0.601757  p :     2.298202
      px      :     0.853089
      py      :     0.843356
      dz2     :     0.067931  d :     0.688061
      dxz     :     0.098379
      dyz     :     0.059762
      dx2y2   :     0.202191
      dxy     :     0.259797
      f0      :     0.018727  f :     0.329138
      f+1     :     0.028158
      f-1     :     0.022570
      f+2     :     0.045519
      f-2     :     0.022367
      f+3     :     0.056624
      f-3     :     0.135174

  3 C s       :     2.486623  s :     2.486623
      pz      :     0.595300  p :     2.285579
      px      :     0.859305
      py      :     0.830973
      dz2     :     0.069182  d :     0.700807
      dxz     :     0.108450
      dyz     :     0.060207
      dx2y2   :     0.205872
      dxy     :     0.257096
      f0      :     0.020067  f :     0.337239
      f+1     :     0.029338
      f-1     :     0.022299
      f+2     :     0.045673
      f-2     :     0.027183
      f+3     :     0.058928
      f-3     :     0.133752

  4 C s       :     2.473947  s :     2.473947
      pz      :     0.635871  p :     2.331814
      px      :     0.830569
      py      :     0.865374
      dz2     :     0.084518  d :     0.941975
      dxz     :     0.138549
      dyz     :     0.122015
      dx2y2   :     0.338685
      dxy     :     0.258209
      f0      :     0.031318  f :     0.485194
      f+1     :     0.033154
      f-1     :     0.032945
      f+2     :     0.049307
      f-2     :     0.060579
      f+3     :     0.079896
      f-3     :     0.197996

  5 C s       :     2.486630  s :     2.486630
      pz      :     0.595303  p :     2.285586
      px      :     0.859301
      py      :     0.830981
      dz2     :     0.069180  d :     0.700792
      dxz     :     0.108456
      dyz     :     0.060200
      dx2y2   :     0.205880
      dxy     :     0.257076
      f0      :     0.020066  f :     0.337232
      f+1     :     0.029338
      f-1     :     0.022298
      f+2     :     0.045664
      f-2     :     0.027190
      f+3     :     0.058927
      f-3     :     0.133748

  6 H s       :     0.654252  s :     0.654252
      pz      :     0.078066  p :     0.295893
      px      :     0.094826
      py      :     0.123001
      dz2     :     0.023295  d :     0.211170
      dxz     :     0.017991
      dyz     :     0.043262
      dx2y2   :     0.071333
      dxy     :     0.055288

  7 C s       :     2.596167  s :     2.596167
      pz      :     0.722912  p :     2.496603
      px      :     1.061470
      py      :     0.712221
      dz2     :     0.066065  d :     0.669857
      dxz     :     0.212552
      dyz     :     0.005276
      dx2y2   :     0.163591
      dxy     :     0.222373
      f0      :     0.024448  f :     0.258737
      f+1     :     0.039769
      f-1     :     0.006375
      f+2     :     0.042222
      f-2     :     0.003278
      f+3     :     0.062933
      f-3     :     0.079713

  8 C s       :     2.666492  s :     2.666492
      pz      :     0.729207  p :     2.519043
      px      :     1.064005
      py      :     0.725831
      dz2     :     0.032038  d :     0.274794
      dxz     :     0.074871
      dyz     :     0.000104
      dx2y2   :     0.099274
      dxy     :     0.068506
      f0      :     0.014269  f :     0.140083
      f+1     :     0.024207
      f-1     :     0.002154
      f+2     :     0.023935
      f-2     :     0.000057
      f+3     :     0.042167
      f-3     :     0.033294

  9 H s       :     0.738757  s :     0.738757
      pz      :     0.088975  p :     0.336663
      px      :     0.162492
      py      :     0.085196
      dz2     :     0.017582  d :     0.204118
      dxz     :     0.066907
      dyz     :     0.000001
      dx2y2   :     0.052835
      dxy     :     0.066793

 10 H s       :     0.654244  s :     0.654244
      pz      :     0.078063  p :     0.295896
      px      :     0.094838
      py      :     0.122995
      dz2     :     0.023295  d :     0.211172
      dxz     :     0.017997
      dyz     :     0.043256
      dx2y2   :     0.071340
      dxy     :     0.055284

 11 H s       :     0.662397  s :     0.662397
      pz      :     0.080544  p :     0.294598
      px      :     0.090739
      py      :     0.123314
      dz2     :     0.022481  d :     0.208507
      dxz     :     0.017108
      dyz     :     0.044037
      dx2y2   :     0.071272
      dxy     :     0.053609

 12 H s       :     0.663792  s :     0.663792
      pz      :     0.080068  p :     0.294520
      px      :     0.139139
      py      :     0.075312
      dz2     :     0.022423  d :     0.207409
      dxz     :     0.057029
      dyz     :     0.003255
      dx2y2   :     0.044560
      dxy     :     0.080143

 13 H s       :     0.662397  s :     0.662397
      pz      :     0.080545  p :     0.294598
      px      :     0.090745
      py      :     0.123309
      dz2     :     0.022481  d :     0.208508
      dxz     :     0.017112
      dyz     :     0.044033
      dx2y2   :     0.071278
      dxy     :     0.053604



                      *****************************
                      * MAYER POPULATION ANALYSIS *
                      *****************************

  NA   - Mulliken gross atomic population
  ZA   - Total nuclear charge
  QA   - Mulliken gross atomic charge
  VA   - Mayer's total valence
  BVA  - Mayer's bonded valence
  FA   - Mayer's free valence

  ATOM       NA         ZA         QA         VA         BVA        FA
  0 C      6.4800     6.0000    -0.4800     2.9457     2.9457     0.0000
  1 C      6.0443     6.0000    -0.0443     2.6330     2.6330    -0.0000
  2 C      6.4837     6.0000    -0.4837     2.9530     2.9530     0.0000
  3 C      7.2313     6.0000    -1.2313     3.4934     3.4934    -0.0000
  4 C      4.5066     6.0000     1.4934     2.1353     2.1353     0.0000
  5 C      7.2340     6.0000    -1.2340     3.4890     3.4890    -0.0000
  6 H      1.3764     1.0000    -0.3764     1.5703     1.5703    -0.0000
  7 C      4.6812     6.0000     1.3188     2.3223     2.3223     0.0000
  8 C      6.4379     6.0000    -0.4379     3.0531     3.0531    -0.0000
  9 H      0.6366     1.0000     0.3634     0.8880     0.8880    -0.0000
 10 H      1.3732     1.0000    -0.3732     1.5717     1.5717    -0.0000
 11 H      0.4501     1.0000     0.5499     0.4773     0.4773     0.0000
 12 H      0.6155     1.0000     0.3845     0.7447     0.7447    -0.0000
 13 H      0.4492     1.0000     0.5508     0.4757     0.4757     0.0000

  Mayer bond orders larger than 0.100000
B(  0-C ,  1-C ) :   1.1199 B(  0-C ,  2-C ) :   0.1071 B(  0-C ,  3-C ) :   0.1915 
B(  0-C ,  4-C ) :   0.4874 B(  0-C ,  5-C ) :   1.2488 B(  0-C ,  6-H ) :  -0.1638 
B(  0-C ,  7-C ) :  -0.1812 B(  0-C ,  8-C ) :  -0.1648 B(  0-C , 12-H ) :  -0.1194 
B(  0-C , 13-H ) :   0.5376 B(  1-C ,  2-C ) :   1.1198 B(  1-C ,  3-C ) :  -0.3371 
B(  1-C ,  4-C ) :  -0.3817 B(  1-C ,  5-C ) :  -0.3387 B(  1-C ,  6-H ) :  -0.1136 
B(  1-C ,  7-C ) :   0.4307 B(  1-C ,  8-C ) :   0.2649 B(  1-C , 10-H ) :  -0.1141 
B(  1-C , 12-H ) :   0.7882 B(  2-C ,  3-C ) :   1.2528 B(  2-C ,  4-C ) :   0.4855 
B(  2-C ,  5-C ) :   0.1933 B(  2-C ,  7-C ) :  -0.1842 B(  2-C ,  8-C ) :  -0.1641 
B(  2-C , 10-H ) :  -0.1601 B(  2-C , 11-H ) :   0.5374 B(  2-C , 12-H ) :  -0.1189 
B(  3-C ,  4-C ) :   0.2918 B(  3-C ,  5-C ) :  -0.5048 B(  3-C ,  6-H ) :   0.3819 
B(  3-C ,  7-C ) :   0.3590 B(  3-C ,  8-C ) :  -0.2909 B(  3-C , 10-H ) :   2.3964 
B(  3-C , 11-H ) :  -0.2403 B(  4-C ,  5-C ) :   0.2952 B(  4-C ,  7-C ) :  -0.2917 
B(  4-C ,  8-C ) :   1.0775 B(  4-C ,  9-H ) :   0.1295 B(  5-C ,  6-H ) :   2.4008 
B(  5-C ,  7-C ) :   0.3592 B(  5-C ,  8-C ) :  -0.2946 B(  5-C , 10-H ) :   0.3790 
B(  5-C , 13-H ) :  -0.2417 B(  6-H ,  7-C ) :  -0.4449 B(  6-H ,  8-C ) :  -0.7275 
B(  6-H , 10-H ) :   0.6141 B(  6-H , 11-H ) :  -0.1339 B(  6-H , 13-H ) :  -0.1302 
B(  7-C ,  8-C ) :   2.6500 B(  7-C ,  9-H ) :  -0.1081 B(  7-C , 10-H ) :  -0.4405 
B(  7-C , 11-H ) :   0.1376 B(  7-C , 12-H ) :  -0.1046 B(  7-C , 13-H ) :   0.1410 
B(  8-C ,  9-H ) :   1.0239 B(  8-C , 10-H ) :  -0.7248 B(  8-C , 11-H ) :   0.2246 
B(  8-C , 13-H ) :   0.2254 B( 10-H , 11-H ) :  -0.1290 B( 10-H , 13-H ) :  -0.1351 


-------
TIMINGS
-------

Total SCF time: 0 days 0 hours 2 min 38 sec 

Total time                  ....     158.859 sec
Sum of individual times     ....     158.193 sec  ( 99.6%)

SCF preparation             ....       1.012 sec  (  0.6%)
Fock matrix formation       ....     150.064 sec  ( 94.5%)
  Startup                   ....       0.745 sec  (  0.5% of F)
  Split-RI-J                ....       9.980 sec  (  6.7% of F)
  Chain of spheres X        ....     104.386 sec  ( 69.6% of F)
  XC integration            ....      28.944 sec  ( 19.3% of F)
    XC Preparation          ....       0.000 sec  (  0.0% of XC)
    Basis function eval.    ....       5.635 sec  ( 19.5% of XC)
    Density eval.           ....       7.278 sec  ( 25.1% of XC)
    XC-Functional eval.     ....       0.344 sec  (  1.2% of XC)
    XC-Potential eval.      ....      14.013 sec  ( 48.4% of XC)
  CPCM terms                ....       4.298 sec  (  2.9% of F)
Diagonalization             ....       0.000 sec  (  0.0%)
Density matrix formation    ....       1.347 sec  (  0.8%)
Total Energy calculation    ....       0.686 sec  (  0.4%)
Population analysis         ....       0.252 sec  (  0.2%)
Orbital Transformation      ....       0.396 sec  (  0.2%)
Orbital Orthonormalization  ....       0.000 sec  (  0.0%)
DIIS solution               ....       3.687 sec  (  2.3%)
SOSCF solution              ....       0.750 sec  (  0.5%)
Finished LeanSCF after 159.0 sec

Maximum memory used throughout the entire LEANSCF-calculation: 64.9 MB


-------------------------------------------------------------------------------
                          DFT DISPERSION CORRECTION                            
                                                                               
                              DFTD3 V3.1  Rev 1                                
                          USING Becke-Johnson damping                          
-------------------------------------------------------------------------------
The B3LYP functional is recognized
Active option DFTDOPT                   ...         4   

molecular C6(AA) [au] = 2656.488808 


            DFT-D V3
 parameters
 s6 scaling factor         :     1.0000 
 a1 scaling factor         :     0.3981 
 s8 scaling factor         :     1.9889 
 a2 scaling factor         :     4.4211 
 ad hoc parameters k1-k3   :    16.0000     1.3333    -4.0000 

 Edisp/kcal,au: -15.376062366983  -0.024503312479 
 E6   /kcal   :  -7.002572997 
 E8   /kcal   :  -8.373489370 
 % E8         :  54.457956599 

-------------------------   ----------------
Dispersion correction           -0.024503312
-------------------------   ----------------


-------------------------   --------------------
FINAL SINGLE POINT ENERGY      -308.344548729812
-------------------------   --------------------



           ************************************************************
           *        Program running with 4 parallel MPI-processes     *
           *              working on a common directory               *
           ************************************************************

------------------------------------------------------------------------------
                              ORCA PROPERTY CALCULATIONS
------------------------------------------------------------------------------

GBWName                                 ... cs_rporg_007_red_solv_02.gbw
Number of atoms                         ...     14
Number of basis functions               ...    554
Max core memory                         ...   3000 MB

Electric properties:
Dipole moment                           ... YES
Quadrupole moment                       ...  NO
Static polarizability (Dipole/Dipole)   ...  NO
Static polarizability (Dipole/Quad.)    ...  NO
Static polarizability (Quad./Quad.)     ...  NO
Static polarizability (Velocity)        ...  NO

Atomic electric properties:
Dipole moment                           ...  NO
Quadrupole moment                       ...  NO
Static polarizability                   ...  NO

Choice of electric origin               ... Center of mass
Position of electric origin             ...    -0.001320     0.000122    -0.000077

General magnetic properties:
Magnetizability                         ...  NO

EPR properties:
g-Tensor (aka g-matrix)                 ...  NO
Zero-Field splitting spin-orbit         ...  NO
Zero-field splitting spin-spin          ...  NO
Hyperfine couplings                     ...  NO (   0 nuclei)
Quadrupole couplings                    ...  NO (   0 nuclei)
Contact density                         ...  NO (   0 nuclei)

NMR properties:
Chemical shifts                         ...  NO (   0 nuclei)
Spin-rotation constants                 ...  NO (   0 nuclei)
Spin-spin couplings                     ...  NO (   0 nuclei,    0 pairs)

Choice of magnetic origin               ... GIAO
Position of magnetic origin             ...     0.000000     0.000000     0.000000

Properties with geometric perturbations:
SCF Hessian                             ...  NO
IR spectrum                             ...  NO
VCD spectrum                            ...  NO
X-ray spectroscopy properties:
SCF XES/XAS/RIXS spectra                ...  NO


-------------
DIPOLE MOMENT
-------------

Method             : SCF
Type of density    : Electron Density
Multiplicity       :   1
Irrep              :   0
Energy             :  -308.3200454173320395 Eh
Relativity type    : 
Basis              : AO
                                X                 Y                 Z
Electronic contribution:     -1.770645144       0.000062409      -0.000472278
Nuclear contribution   :      2.227582411      -0.000665596       0.000875711
                        -----------------------------------------
Total Dipole Moment    :      0.456937267      -0.000603187       0.000403432
                        -----------------------------------------
Magnitude (a.u.)       :      0.456937843
Magnitude (Debye)      :      1.161443696



--------------------
Rotational spectrum 
--------------------
 
Rotational constants in cm-1:             0.189401             0.050851             0.040088 
Rotational constants in MHz :          5678.091161          1524.476874          1201.810057 

Dipole components along the rotational axes: 
x,y,z [a.u.] :    -0.456937    -0.000544     0.000390 
x,y,z [Debye]:    -1.161442    -0.001382     0.000992 

 

Dipole moment calculation done in   0.1 sec 

Maximum memory used throughout the entire PROP-calculation: 37.8 MB

--------------------------------
SUGGESTED CITATIONS FOR THIS RUN
--------------------------------

Below you find a list of papers that are relevant to this ORCA run
We neither can nor want to force you to cite these papers, but we appreciate if you do
You receive ORCA, which is the product of decades of hard work by many enthusiastic individuals, for free
The only thing we kindly ask in return is that you cite our papers,
We deeply appreciate it, if you show your appreciation for ORCA by not just citing the generic ORCA reference.

Please note that relegating all ORCA citations to the supporting information does *not* help us.
SI sections are not indexed - citations you put there will not count into any citation statistics
But we need these citations in order to attract the funding resources that allow us to do what we are doing

Therefore, if you are a happy ORCA user, please consider citing a few of the papers listed below in the main body of your paper

In addition to the list printed below, the program has created the file cs_rporg_007_red_solv_02.bibtex that contains the list in bibtex format
You can import this file easily into all common literature databanks and citation aid programs


List of essential papers. We consider these as the minimum necessary citations

  1. Neese,F.
     Software update: the ORCA program system, version 5.0
     WIRES Comput. Molec. Sci., 2022 12(1)e1606
     doi.org/10.1002/wcms.1606

List of papers to cite with high priority. The work reported in these papers was absolutely
necessary for this run to complete.
Our perspective: the developers of density functionals and basis sets usually get cited in chemistry papers
Good! But without the algorithms to do something with them, the functionals or basis sets would not do anything.
Hence, in our opinion, the algorithm design and method developments papers are equally worthy of getting cited

  1. Neese,F.
     An improvement of the resolution of the identity approximation for the formation of the Coulomb matrix
     J. Comp. Chem., 2003 24(14)1740-1747
     doi.org/10.1002/jcc.10318
  2. Neese,F.; Wennmohs,F.; Hansen,A.; Becker,U.
     Efficient, approximate and parallel Hartree-Fock and hybrid DFT calculations. A 'chain-of-spheres' algorithm for the Hartree-Fock exchange
     Chem. Phys., 2009 356(1-3)98-109
     doi.org/10.1016/j.chemphys.2008.10.036
  3. Garcia-Rates,M.; Neese,F.
     Effect of the Solute Cavity on the Solvation Energy and its Derivatives within the Framework of the Gaussian Charge Scheme
     J. Comput. Chem., 2020 41 922-939
     doi.org/10.1002/jcc.26139
  4. Helmich-Paris,B.; de Souza,B.; Neese,F.; Izsák,R.
     An improved chain of spheres for exchange algorithm
     J. Chem. Phys., 2021 155 104109
     doi.org/doi: 10.1063/5.0058766.
  5. Neese,F.
     The SHARK Integral Generation and Digestion System
     J. Comp. Chem., 2022  1-16
     doi.org/10.1002/jcc.26942
  6. Grimme,S.; Antony,J.; Ehrlich,S.; Krieg,H.
     A consistent and accurate ab initio parametrization of density functional dispersion correction (DFT-D) for the 94 elements H-Pu
     J. Chem. Phys., 2010 132 154104-XXXX
     doi.org/10.1063/1.3382344
  7. Grimme,S.; Ehrlich,S.; Goerigk,L.
     Effect of the damping function in dispersion corrected density functional theory
     J. Comput. Chem., 2011 32(7)1456-1465
     doi.org/10.1002/jcc.21759

List of suggested additional citations. These are papers that are important in the 'surrounding' of 
of this run, or papers that preceded the highly important papers. If you like your results we are grateful for a citation.

  1. Izsak,R.; Neese,F.
     An overlap fitted chain of spheres exchange method
     J. Chem. Phys., 2011 135 144105
     doi.org/10.1063/1.3646921
  2. Izsak,R.; Hansen,A.; Neese,F.
     The resolution of identity and chain of spheres approximations for the LPNO-CCSD singles Fock term
     Molec. Phys., 2012 110 2413-2417
     doi.org/10.1080/00268976.2012.687466
  3. Neese,F.
     The ORCA program system
     WIRES Comput. Molec. Sci., 2012 2(1)73-78
     doi.org/10.1002/wcms.81
  4. Izsak,R.; Neese,F.; Klopper,W.
     Robust fitting techniques in the chain of spheres approximation to the Fock exchange: The role of the complementary space
     J. Chem. Phys., 2013 139 
     doi.org/10.1063/1.4819264
  5. Neese,F.
     Software update: the ORCA program system, version 4.0
     WIRES Comput. Molec. Sci., 2018 8(1)1-6
     doi.org/10.1002/wcms.1327
  6. Neese,F.; Wennmohs,F.; Becker,U.; Riplinger,C.
     The ORCA quantum chemistry program package
     J. Chem. Phys., 2020 152 Art. No. L224108
     doi.org/10.1063/5.0004608

List of optional additional citations

  1. Neese,F.
     Approximate second-order SCF convergence for spin unrestricted wavefunctions
     Chem. Phys. Lett., 2000 325(1-3)93-98
     doi.org/10.1016/s0009-2614(00)00662-x

Timings for individual modules:

Sum of individual times          ...      175.608 sec (=   2.927 min)
Startup calculation              ...        9.559 sec (=   0.159 min)   5.4 %
SCF iterations                   ...      164.163 sec (=   2.736 min)  93.5 %
Property calculations            ...        1.887 sec (=   0.031 min)   1.1 %
                             ****ORCA TERMINATED NORMALLY****
TOTAL RUN TIME: 0 days 0 hours 2 minutes 58 seconds 299 msec
