
                                 *****************
                                 * O   R   C   A *
                                 *****************

                                            #,                                       
                                            ###                                      
                                            ####                                     
                                            #####                                    
                                            ######                                   
                                           ########,                                 
                                     ,,################,,,,,                         
                               ,,#################################,,                 
                          ,,##########################################,,             
                       ,#########################################, ''#####,          
                    ,#############################################,,   '####,        
                  ,##################################################,,,,####,       
                ,###########''''           ''''###############################       
              ,#####''   ,,,,##########,,,,          '''####'''          '####       
            ,##' ,,,,###########################,,,                        '##       
           ' ,,###''''                  '''############,,,                           
         ,,##''                                '''############,,,,        ,,,,,,###''
      ,#''                                            '''#######################'''  
     '                                                          ''''####''''         
             ,#######,   #######,   ,#######,      ##                                
            ,#'     '#,  ##    ##  ,#'     '#,    #''#        ,####,   ,####,        
            ##       ##  ##   ,#'  ##            #'  '#       #'       #'  '#        
            ##       ##  #######   ##           ,######,      #####,   #    #        
            '#,     ,#'  ##    ##  '#,     ,#' ,#      #,     #,   #   #,  ,#        
             '#######'   ##     ##  '#######'  #'      '#     '####' # '####'        



                #########################################################
                #                        -***-                          #
                #          Department of theory and spectroscopy        #
                #                                                       #
                #                      Frank Neese                      #
                #                                                       #
                #     Directorship, Architecture, Infrastructure        #
                #                    SHARK, DRIVERS                     #
                #        Core code/Algorithms in most modules           #
                #                                                       #
                #        Max Planck Institute fuer Kohlenforschung      #
                #                Kaiser Wilhelm Platz 1                 #
                #                 D-45470 Muelheim/Ruhr                 #
                #                      Germany                          #
                #                                                       #
                #                  All rights reserved                  #
                #                        -***-                          #
                #########################################################


                         Program Version 6.0.0  -   RELEASE  -


 With contributions from (in alphabetic order):
   Daniel Aravena         : Magnetic Suceptibility
   Michael Atanasov       : Ab Initio Ligand Field Theory (pilot matlab implementation)
   Alexander A. Auer      : GIAO ZORA, VPT2 properties, NMR spectrum
   Ute Becker             : All parallelization in ORCA, NUMFREQ, NUMCALC
   Giovanni Bistoni       : ED, misc. LED, open-shell LED, HFLD
   Martin Brehm           : Molecular dynamics
   Dmytro Bykov           : pre 5.0 version of the SCF Hessian
   Marcos Casanova-Páez   : Triplet and SCS-CIS(D). UHF-(DLPNO)-IP/EA/STEOM-CCSD. UHF-CVS-IP/STEOM-CCSD
   Vijay G. Chilkuri      : MRCI spin determinant printing, contributions to CSF-ICE
   Pauline Colinet        : FMM embedding
   Dipayan Datta          : RHF DLPNO-CCSD density
   Achintya Kumar Dutta   : EOM-CC, STEOM-CC
   Nicolas Foglia         : Exact transition moments, OPA infrastructure, MCD improvements
   Dmitry Ganyushin       : Spin-Orbit,Spin-Spin,Magnetic field MRCI
   Miquel Garcia          : C-PCM and meta-GGA Hessian, CCSD/C-PCM, Gaussian charge scheme
   Tiago L. C. Gouveia    : GS-ROHF, GS-ROCIS
   Yang Guo               : DLPNO-NEVPT2, F12-NEVPT2, CIM, IAO-localization
   Andreas Hansen         : Spin unrestricted coupled pair/coupled cluster methods
   Ingolf Harden          : AUTO-CI MPn and infrastructure 
   Benjamin Helmich-Paris : MC-RPA, TRAH-(SCF,CASSCF), AVAS, COSX integrals, SCF dyn. polar.
   Lee Huntington         : MR-EOM, pCC
   Robert Izsak           : Overlap fitted RIJCOSX, COSX-SCS-MP3, EOM
   Riya Kayal             : Wick's Theorem for AUTO-CI, AUTO-CI UHF-CCSDT
   Emily Kempfer          : AUTO-CI, RHF CISDT and CCSDT
   Christian Kollmar      : KDIIS, OOCD, Brueckner-CCSD(T), CCSD density, CASPT2, CASPT2-K, improved NEVPT2
   Axel Koslowski         : Symmetry handling
   Simone Kossmann        : Meta GGA functionals, TD-DFT gradient, OOMP2, (MP2 Hessian; deprecated post 5.0)
   Lucas Lang             : DCDCAS
   Marvin Lechner         : AUTO-CI (C++ implementation), FIC-MRCC
   Spencer Leger          : CASSCF response
   Dagmar Lenk            : GEPOL surface, SMD, ORCA-2-JSON
   Dimitrios Liakos       : Extrapolation schemes; Compound Job, initial MDCI parallelization
   Dimitrios Manganas     : Further ROCIS development; embedding schemes. LFT, Crystal Embedding
   Dimitrios Pantazis     : SARC Basis sets
   Anastasios Papadopoulos: AUTO-CI, single reference methods and gradients
   Taras Petrenko         : pre 6.0 DFT Hessian and TD-DFT gradient, (ASA, deprecated), ECA, 1-Electron XAS/XES, NRVS
   Peter Pinski           : DLPNO-MP2, DLPNO-MP2 Gradient
   Christoph Reimann      : Effective Core Potentials
   Marius Retegan         : Local ZFS, SOC
   Christoph Riplinger    : Optimizer, TS searches, QM/MM, DLPNO-CCSD(T), (RO)-DLPNO pert. Triples
   Michael Roemelt        : Original ROCIS implementation
   Masaaki Saitow         : Open-shell DLPNO-CCSD energy and density
   Barbara Sandhoefer     : DKH picture change effects
   Kantharuban Sivalingam : CASSCF convergence/infrastructure, NEVPT2 and variants, FIC-MRCI
   Bernardo de Souza      : ESD, SOC TD-DFT
   Georgi Stoychev        : AutoAux, RI-MP2 NMR, DLPNO-MP2 response, X2C
   Van Anh Tran           : RI-MP2 g-tensors
   Willem Van den Heuvel  : Paramagnetic NMR
   Zikuan Wang            : NOTCH, Electric field optimization 
   Frank Wennmohs         : Technical directorship and infrastructure
   Hang Xu                : AUTO-CI-Response properties 


 We gratefully acknowledge several colleagues who have allowed us to
 interface, adapt or use parts of their codes:
   Stefan Grimme, W. Hujo, H. Kruse, P. Pracht,  : VdW corrections, initial TS optimization,
                  C. Bannwarth, S. Ehlert,         DFT functionals, gCP, sTDA/sTD-DF
                  L. Wittmann, M. Mueller
   Ed Valeev, F. Pavosevic, A. Kumar             : LibInt (2-el integral package), F12 methods
   Garnet Chan, S. Sharma, J. Yang, R. Olivares  : DMRG
   Ulf Ekstrom                                   : XCFun DFT Library
   Mihaly Kallay                                 : mrcc  (arbitrary order and MRCC methods)
   Frank Weinhold                                : gennbo (NPA and NBO analysis)
   Simon Mueller                                 : openCOSMO-RS
   Christopher J. Cramer and Donald G. Truhlar   : smd solvation model
   Lars Goerigk                                  : TD-DFT with DH, B97 family of functionals
   V. Asgeirsson, H. Jonsson                     : NEB implementation
   FAccTs GmbH                                   : IRC, NEB, NEB-TS, DLPNO-Multilevel, CI-OPT
                                                   MM, QMMM, 2- and 3-layer-ONIOM, Crystal-QMMM,
                                                   LR-CPCM, SF, NACMEs, symmetry and pop. for TD-DFT,
                                                   nearIR, NL-DFT gradient (VV10), updates on ESD,
                                                   ML-optimized integration grids, MBIS, APM,
                                                   GOAT, DOCKER, SOLVATOR, interface openCOSMO-RS
   S Lehtola, MJT Oliveira, MAL Marques          : LibXC Library
   Liviu Ungur et al                             : ANISO software


 Your calculation uses the libint2 library for the computation of 2-el integrals
 For citations please refer to: http://libint.valeyev.net

 Your ORCA version has been built with support for libXC version: 6.2.2
 For citations please refer to: https://libxc.gitlab.io

 This ORCA versions uses:
   CBLAS   interface :  Fast vector & matrix operations
   LAPACKE interface :  Fast linear algebra routines
   SCALAPACK package :  Parallel linear algebra routines
   Shared memory     :  Shared parallel matrices
   BLAS/LAPACK       :  OpenBLAS 0.3.27  USE64BITINT DYNAMIC_ARCH NO_AFFINITY Sandybridge SINGLE_THREADED
        Core in use  :  Sandybridge
   Copyright (c) 2011-2014, The OpenBLAS Project


NOTE: MaxCore=3000 MB was set to SCF,MP2,MDCI,CIPSI,MRCI and CIS
      => If you want to overwrite this, your respective input block should be placed after the MaxCore statement
Your calculation utilizes the atom-pairwise dispersion correction
with the Becke-Johnson damping scheme (D3BJ)


Your calculation utilizes the SMD solvation module
Please cite in your paper:
A.V. Marenich, C.J. Cramer, D.G. Truhlar J. Phys. Chem. B, 113, (2009), 6378 

Warning: RI is on but no J-basis has been assigned. Assigning Def2/J (nothing to worry about!)
================================================================================

----- Orbital basis set information -----
Your calculation utilizes the basis: aug-cc-pVTZ 
    H, B-Ne : Obtained from the ccRepo (grant-hill.group.shef.ac.uk/ccrepo) Feb. 2017
              R. A. Kendall, T. H. Dunning, Jr., R. J. Harrison, J. Chem. Phys. 96, 6796 (1992)
         He : Obtained from the ccRepo (grant-hill.group.shef.ac.uk/ccrepo) Feb. 2017
              D. E. Woon, T. H. Dunning, Jr., J. Chem. Phys. 100, 2975 (1994)
  Li-Be, Na : Obtained from the ccRepo (grant-hill.group.shef.ac.uk/ccrepo) Feb. 2017
              B. P. Prascher, D. E. Woon, K. A. Peterson, T. H. Dunning, Jr., A. K. Wilson, Theor. Chem. Acc. 128, 69 (2011)
         Mg : Obtained from the Peterson Research Group Website (tyr0.chem.wsu.edu/~kipeters) Feb. 2017
              B. P. Prascher, D. E. Woon, K. A. Peterson, T. H. Dunning, Jr., A. K. Wilson, Theor. Chem. Acc. 128, 69 (2011)
      Al-Ar : Obtained from the ccRepo (grant-hill.group.shef.ac.uk/ccrepo) Feb. 2017
              D. E. Woon, T. H. Dunning, Jr., J. Chem. Phys. 98, 1358 (1993)
      Sc-Zn : Obtained from the ccRepo (grant-hill.group.shef.ac.uk/ccrepo) Feb. 2017
              N. B. Balabanov, K. A. Peterson, J. Chem. Phys. 123, 064107 (2005)
              N. B. Balabanov, K. A. Peterson, J. Chem. Phys. 125, 074110 (2006)
      Ga-Kr : Obtained from the ccRepo (grant-hill.group.shef.ac.uk/ccrepo) Feb. 2017
              A. K. Wilson, D. E. Woon, K. A. Peterson, T. H. Dunning, Jr., J. Chem. Phys. 110, 7667 (1999)
     Ag, Au : Obtained from the Peterson Research Group Website (tyr0.chem.wsu.edu/~kipeters) Feb. 2017
              K. A. Peterson, C. Puzzarini, Theor. Chem. Acc. 114, 283 (2005)

----- AuxJ basis set information -----
Your calculation utilizes the auxiliary basis: def2/J
   F. Weigend, Phys. Chem. Chem. Phys. 8, 1057 (2006).

================================================================================
                                        WARNINGS
                       Please study these warnings very carefully!
================================================================================

Using LibXC functional ID 497 : Re-regularized SCAN exchange by Furness et al
[ 1]  J. W. Furness, A. D. Kaplan, J. Ning, J. P. Perdew, and J. Sun.,  J. Phys. Chem. Lett. 11, 8208-8215 (2020)
[ 2]  J. W. Furness, A. D. Kaplan, J. Ning, J. P. Perdew, and J. Sun.,  J. Phys. Chem. Lett. 11, 9248-9248 (2020)
Using LibXC functional ID 498 : Re-regularized SCAN correlation by Furness et al
[ 1]  J. W. Furness, A. D. Kaplan, J. Ning, J. P. Perdew, and J. Sun.,  J. Phys. Chem. Lett. 11, 8208-8215 (2020)
[ 2]  J. W. Furness, A. D. Kaplan, J. Ning, J. P. Perdew, and J. Sun.,  J. Phys. Chem. Lett. 11, 9248-9248 (2020)
Using LibXC functional ID 497 : Re-regularized SCAN exchange by Furness et al
[ 1]  J. W. Furness, A. D. Kaplan, J. Ning, J. P. Perdew, and J. Sun.,  J. Phys. Chem. Lett. 11, 8208-8215 (2020)
[ 2]  J. W. Furness, A. D. Kaplan, J. Ning, J. P. Perdew, and J. Sun.,  J. Phys. Chem. Lett. 11, 9248-9248 (2020)
Using LibXC functional ID 498 : Re-regularized SCAN correlation by Furness et al
[ 1]  J. W. Furness, A. D. Kaplan, J. Ning, J. P. Perdew, and J. Sun.,  J. Phys. Chem. Lett. 11, 8208-8215 (2020)
[ 2]  J. W. Furness, A. D. Kaplan, J. Ning, J. P. Perdew, and J. Sun.,  J. Phys. Chem. Lett. 11, 9248-9248 (2020)

WARNING: your system is open-shell and RHF/RKS was chosen
  ===> : WILL SWITCH to UHF/UKS


================================================================================
                                       INPUT FILE
================================================================================
NAME = cs_rporg_062_ox_solv_04.inp
|  1> !r2SCANh aug-cc-pVTZ d3 TightSCF SlowConv RIJCOSX defgrid2
|  2>  
|  3> %pal
|  4> nprocs 4
|  5> end
|  6>  
|  7> %scf
|  8> MaxIter 1500
|  9> end
| 10>  
| 11> %maxcore 3000
| 12>  
| 13> !CPCM
| 14> %cpcm smd true
| 15> SMDsolvent "MeCN"
| 16> surfacetype gepol_ses
| 17> rsolv 2.19
| 18> end 
| 19>  
| 20> * xyz 1 2
| 21> C           0.76309641907195     -1.16293983433003      0.23718381873604
| 22> C          -0.76304171601446     -1.16296952747842     -0.23724555362178
| 23> H          -1.27590174641137     -2.02340834769785      0.21800270990120
| 24> H          -0.77362876837767     -1.19896716686552     -1.34057732579590
| 25> O          -1.30210126379069     -0.00003866110666      0.26158364977248
| 26> C          -0.76310446688411      1.16294442598402     -0.23720418219692
| 27> C           0.76303513090937      1.16298601934474      0.23722214632434
| 28> H           1.27589626879449      2.02341629109980     -0.21804063751063
| 29> H           0.77362940968102      1.19899371952034      1.34055360051981
| 30> O           1.30210147370824      0.00004813344550     -0.26159746316919
| 31> H          -1.27602354622748      2.02334978586835      0.21803685187514
| 32> H          -0.77366667806753      1.19894468683083     -1.34053597047731
| 33> H           1.27601869897724     -2.02334025573413     -0.21806265273971
| 34> H           0.77366218463101     -1.19894196888098      1.34051380838241
| 35> *
| 36> 
| 37>                          ****END OF INPUT****
================================================================================

                       ****************************
                       * Single Point Calculation *
                       ****************************

---------------------------------
CARTESIAN COORDINATES (ANGSTROEM)
---------------------------------
  C      0.763096   -1.162940    0.237184
  C     -0.763042   -1.162970   -0.237246
  H     -1.275902   -2.023408    0.218003
  H     -0.773629   -1.198967   -1.340577
  O     -1.302101   -0.000039    0.261584
  C     -0.763104    1.162944   -0.237204
  C      0.763035    1.162986    0.237222
  H      1.275896    2.023416   -0.218041
  H      0.773629    1.198994    1.340554
  O      1.302101    0.000048   -0.261597
  H     -1.276024    2.023350    0.218037
  H     -0.773667    1.198945   -1.340536
  H      1.276019   -2.023340   -0.218063
  H      0.773662   -1.198942    1.340514

----------------------------
CARTESIAN COORDINATES (A.U.)
----------------------------
  NO LB      ZA    FRAG     MASS         X           Y           Z
   0 C     6.0000    0    12.011    1.442043   -2.197638    0.448212
   1 C     6.0000    0    12.011   -1.441940   -2.197694   -0.448329
   2 H     1.0000    0     1.008   -2.411105   -3.823688    0.411965
   3 H     1.0000    0     1.008   -1.461947   -2.265720   -2.533324
   4 O     8.0000    0    15.999   -2.460615   -0.000073    0.494321
   5 C     6.0000    0    12.011   -1.442058    2.197646   -0.448251
   6 C     6.0000    0    12.011    1.441927    2.197725    0.448285
   7 H     1.0000    0     1.008    2.411095    3.823703   -0.412037
   8 H     1.0000    0     1.008    1.461948    2.265770    2.533279
   9 O     8.0000    0    15.999    2.460615    0.000091   -0.494348
  10 H     1.0000    0     1.008   -2.411335    3.823577    0.412030
  11 H     1.0000    0     1.008   -1.462018    2.265677   -2.533246
  12 H     1.0000    0     1.008    2.411326   -3.823559   -0.412079
  13 H     1.0000    0     1.008    1.462010   -2.265672    2.533204

--------------------------------
INTERNAL COORDINATES (ANGSTROEM)
--------------------------------
 C      0   0   0     0.000000000000     0.00000000     0.00000000
 C      1   0   0     1.598180477169     0.00000000     0.00000000
 H      2   1   0     1.100286942375   108.80162626     0.00000000
 H      2   1   3     1.103969616977   107.80887135   237.66119621
 O      2   1   3     1.375435920051   105.46060893   117.01112485
 C      5   2   1     1.375440478267   115.45483428    64.02542462
 C      6   5   2     1.598180970628   105.46079684   295.97461037
 H      7   6   5     1.100286781549   108.80187009   174.38265095
 H      7   6   5     1.103969696609   107.80913597   296.72199854
 O      7   6   5     1.375441038799   105.46063672    57.37198208
 H      6   5   2     1.100285310442   109.17623861   179.21493759
 H      6   5   2     1.103969480609   112.72152950    53.34996185
 H      1   2   3     1.100285190379   108.80319776    68.60383249
 H      1   2   3     1.103967778129   107.80769217   306.26440464

---------------------------
INTERNAL COORDINATES (A.U.)
---------------------------
 C      0   0   0     0.000000000000     0.00000000     0.00000000
 C      1   0   0     3.020123414428     0.00000000     0.00000000
 H      2   1   0     2.079240989818   108.80162626     0.00000000
 H      2   1   3     2.086200236256   107.80887135   237.66119621
 O      2   1   3     2.599197203655   105.46060893   117.01112485
 C      5   2   1     2.599205817434   115.45483428    64.02542462
 C      6   5   2     3.020124346931   105.46079684   295.97461037
 H      7   6   5     2.079240685900   108.80187009   174.38265095
 H      7   6   5     2.086200386740   107.80913597   296.72199854
 O      7   6   5     2.599206876687   105.46063672    57.37198208
 H      6   5   2     2.079237905912   109.17623861   179.21493759
 H      6   5   2     2.086199978558   112.72152950    53.34996185
 H      1   2   3     2.079237679025   108.80319776    68.60383249
 H      1   2   3     2.086196761337   107.80769217   306.26440464

---------------------
BASIS SET INFORMATION
---------------------
There are 3 groups of distinct atoms

 Group   1 Type C   : 19s6p3d2f contracted to 5s4p3d2f pattern {88111/3111/111/11}
 Group   2 Type H   : 6s3p2d contracted to 4s3p2d pattern {3111/111/11}
 Group   3 Type O   : 19s6p3d2f contracted to 5s4p3d2f pattern {88111/3111/111/11}

Atom   0C    basis set group =>   1
Atom   1C    basis set group =>   1
Atom   2H    basis set group =>   2
Atom   3H    basis set group =>   2
Atom   4O    basis set group =>   3
Atom   5C    basis set group =>   1
Atom   6C    basis set group =>   1
Atom   7H    basis set group =>   2
Atom   8H    basis set group =>   2
Atom   9O    basis set group =>   3
Atom  10H    basis set group =>   2
Atom  11H    basis set group =>   2
Atom  12H    basis set group =>   2
Atom  13H    basis set group =>   2
---------------------------------
AUXILIARY/J BASIS SET INFORMATION
---------------------------------
There are 3 groups of distinct atoms

 Group   1 Type C   : 12s5p4d2f1g contracted to 6s4p3d1f1g pattern {711111/2111/211/2/1}
 Group   2 Type H   : 5s2p1d contracted to 3s1p1d pattern {311/2/1}
 Group   3 Type O   : 12s5p4d2f1g contracted to 6s4p3d1f1g pattern {711111/2111/211/2/1}

Atom   0C    basis set group =>   1
Atom   1C    basis set group =>   1
Atom   2H    basis set group =>   2
Atom   3H    basis set group =>   2
Atom   4O    basis set group =>   3
Atom   5C    basis set group =>   1
Atom   6C    basis set group =>   1
Atom   7H    basis set group =>   2
Atom   8H    basis set group =>   2
Atom   9O    basis set group =>   3
Atom  10H    basis set group =>   2
Atom  11H    basis set group =>   2
Atom  12H    basis set group =>   2
Atom  13H    basis set group =>   2


           ************************************************************
           *        Program running with 4 parallel MPI-processes     *
           *              working on a common directory               *
           ************************************************************
------------------------------------------------------------------------------
                             ORCA STARTUP CALCULATIONS
                           -- RI-GTO INTEGRALS CHOSEN --
------------------------------------------------------------------------------
------------------------------------------------------------------------------
                   ___                                                        
                  /   \      - P O W E R E D   B Y -                         
                 /     \                                                     
                 |  |  |   _    _      __       _____    __    __             
                 |  |  |  | |  | |    /  \     |  _  \  |  |  /  |          
                  \  \/   | |  | |   /    \    | | | |  |  | /  /          
                 / \  \   | |__| |  /  /\  \   | |_| |  |  |/  /          
                |  |  |   |  __  | /  /__\  \  |    /   |      \           
                |  |  |   | |  | | |   __   |  |    \   |  |\   \          
                \     /   | |  | | |  |  |  |  | |\  \  |  | \   \       
                 \___/    |_|  |_| |__|  |__|  |_| \__\ |__|  \__/        
                                                                              
                      - O R C A' S   B I G   F R I E N D -                    
                                      &                                       
                       - I N T E G R A L  F E E D E R -                       
                                                                              
 v1 FN, 2020, v2 2021, v3 2022-2024                                           
------------------------------------------------------------------------------


----------------------
SHARK INTEGRAL PACKAGE
----------------------

Number of atoms                             ...     14
Number of basis functions                   ...    496
Number of shells                            ...    192
Maximum angular momentum                    ...      3
Integral batch strategy                     ... SHARK/LIBINT Hybrid
RI-J (if used) integral strategy            ... SPLIT-RIJ (Revised 2003 algorithm where possible)
Printlevel                                  ...      1
Contraction scheme used                     ... PARTIAL GENERAL contraction
Prescreening option                         ... SCHWARTZ
   Thresh                                   ... 2.500e-11
   Tcut                                     ... 2.500e-12
   Tpresel                                  ... 2.500e-12 
Coulomb Range Separation                    ... NOT USED
Exchange Range Separation                   ... NOT USED
Multipole approximations                    ... NOT USED
Finite Nucleus Model                        ... NOT USED
CABS basis                                  ... NOT available
Auxiliary Coulomb fitting basis             ... AVAILABLE
   # of basis functions in Aux-J            ...    382
   # of shells in Aux-J                     ...    130
   Maximum angular momentum in Aux-J        ...      4
Auxiliary J/K fitting basis                 ... NOT available
Auxiliary Correlation fitting basis         ... NOT available
Auxiliary 'external' fitting basis          ... NOT available

Checking pre-screening integrals            ... done (  0.1 sec) Dimension = 192
Save PGC pre-screening integrals            ... done (  0.1 sec) Dimension = 192
Calculate PGC overlap integrals             ... done (  0.2 sec) Dimension = 156
Calculating pre-screening integrals (ORCA)  ... done (  0.2 sec) Dimension = 156
Check shell pair data                       ... done (  0.0 sec)
Shell pair information
Shell pair cut-off parameter TPreSel        ...   2.5e-12
Total number of shell pairs                 ...     18528
Shell pairs after pre-screening             ...     17099
Total number of primitive shell pairs       ...     24352
Primitive shell pairs kept                  ...     21111
          la=0 lb=0:   3926 shell pairs
          la=1 lb=0:   4442 shell pairs
          la=1 lb=1:   1154 shell pairs
          la=2 lb=0:   3150 shell pairs
          la=2 lb=1:   1608 shell pairs
          la=2 lb=2:    593 shell pairs
          la=3 lb=0:   1164 shell pairs
          la=3 lb=1:    576 shell pairs
          la=3 lb=2:    408 shell pairs
          la=3 lb=3:     78 shell pairs

Calculating one electron integrals          ... done (  0.0 sec)
Calculating RI/J V-Matrix + Cholesky decomp.... done (  0.1 sec)
Calculating Nuclear repulsion               ... done (  0.0 sec) ENN=    266.988399853815 Eh

Diagonalization of the overlap matrix:
Smallest eigenvalue                        ... 3.946e-06
Time for diagonalization                   ...    0.065 sec
Threshold for overlap eigenvalues          ... 1.000e-07
Number of eigenvalues below threshold      ... 0
Time for construction of square roots      ...    0.041 sec
Total time needed                          ...    0.126 sec

-------------------
DFT GRID GENERATION
-------------------

General Integration Accuracy     IntAcc      ... 4.388
Radial Grid Type                 RadialGrid  ... OptM3 with GC (2021)
Angular Grid (max. ang.)         AngularGrid ... 4 (Lebedev-302)
Angular grid pruning method      GridPruning ... 4 (adaptive)
Weight generation scheme         WeightScheme... mBecke (2022)
Basis function cutoff            BFCut       ... 1.0000e-11
Integration weight cutoff        WCut        ... 1.0000e-14
Partially contracted basis set               ... off
Rotationally invariant grid construction     ... off
Angular grids for H and He will be reduced by one unit
Diffuse basis detected: some atoms will have their outermost
                        angular grid increased by 1.

Total number of grid points                  ...    64934
Total number of batches                      ...     1018
Average number of points per batch           ...       63
Average number of grid points per atom       ...     4638

---------------------
SHARK GRID GENERATION
---------------------

General Integration Accuracy     IntAcc      ... 4.388
Radial Grid Type                 RadialGrid  ... OptM3 with GC (2021)
Angular Grid (max. ang.)         AngularGrid ... 4 (Lebedev-302)
Angular grid pruning method      GridPruning ... 4 (adaptive)
Weight generation scheme         WeightScheme... mBecke (2022)
Basis function cutoff            BFCut       ... 1.0000e-11
Integration weight cutoff        WCut        ... 1.0000e-14
Partially contracted basis set               ... off
Rotationally invariant grid construction     ... off
Angular grids for H and He will be reduced by one unit
Diffuse basis detected: some atoms will have their outermost
                        angular grid increased by 1.
Steep s-basis detected: some atoms will have their radial
                        grid points doubled.

Total number of grid points                  ...   102970
Total number of batches                      ...     1618
Average number of points per batch           ...       63
Average number of grid points per atom       ...     7355

--------------------
COSX GRID GENERATION
--------------------

GRIDX 1
-------
General Integration Accuracy     IntAcc      ... 3.816
Radial Grid Type                 RadialGrid  ... OptM3 with GC (2021)
Angular Grid (max. ang.)         AngularGrid ... 1 (Lebedev-50)
Angular grid pruning method      GridPruning ... 4 (adaptive)
Weight generation scheme         WeightScheme... mBecke (2022)
Basis function cutoff            BFCut       ... 1.0000e-11
Integration weight cutoff        WCut        ... 1.0000e-14
Partially contracted basis set               ... on
Rotationally invariant grid construction     ... off
Angular grids for H and He will be reduced by one unit
Diffuse basis detected: some atoms will have their outermost
                        angular grid increased by 1.

Total number of grid points                  ...     8146
Total number of batches                      ...       74
Average number of points per batch           ...      110
Average number of grid points per atom       ...      582
UseSFitting                                  ... on

GRIDX 2
-------
General Integration Accuracy     IntAcc      ... 4.020
Radial Grid Type                 RadialGrid  ... OptM3 with GC (2021)
Angular Grid (max. ang.)         AngularGrid ... 2 (Lebedev-110)
Angular grid pruning method      GridPruning ... 4 (adaptive)
Weight generation scheme         WeightScheme... mBecke (2022)
Basis function cutoff            BFCut       ... 1.0000e-11
Integration weight cutoff        WCut        ... 1.0000e-14
Partially contracted basis set               ... on
Rotationally invariant grid construction     ... off
Angular grids for H and He will be reduced by one unit
Diffuse basis detected: some atoms will have their outermost
                        angular grid increased by 1.

Total number of grid points                  ...    19354
Total number of batches                      ...      160
Average number of points per batch           ...      120
Average number of grid points per atom       ...     1382
UseSFitting                                  ... on

GRIDX 3
-------
General Integration Accuracy     IntAcc      ... 4.338
Radial Grid Type                 RadialGrid  ... OptM3 with GC (2021)
Angular Grid (max. ang.)         AngularGrid ... 3 (Lebedev-194)
Angular grid pruning method      GridPruning ... 4 (adaptive)
Weight generation scheme         WeightScheme... mBecke (2022)
Basis function cutoff            BFCut       ... 1.0000e-11
Integration weight cutoff        WCut        ... 1.0000e-14
Partially contracted basis set               ... on
Rotationally invariant grid construction     ... off
Angular grids for H and He will be reduced by one unit
Diffuse basis detected: some atoms will have their outermost
                        angular grid increased by 1.

Total number of grid points                  ...    43474
Total number of batches                      ...      348
Average number of points per batch           ...      124
Average number of grid points per atom       ...     3105
UseSFitting                                  ... on
Initializing property integral containers    ... done (  0.0 sec)

SHARK setup successfully completed in   5.7 seconds

Maximum memory used throughout the entire STARTUP-calculation: 49.0 MB


           ************************************************************
           *        Program running with 4 parallel MPI-processes     *
           *              working on a common directory               *
           ************************************************************
-------------------------------------------------------------------------------
                                 ORCA GUESS
                   Start orbitals & Density for SCF / CASSCF
-------------------------------------------------------------------------------

------------
SCF SETTINGS
------------
Hamiltonian:
 Density Functional     Method          .... DFT(GTOs)
  Functional kind                       .... Exchange
  Functional name                       .... Re-regularized SCAN exchange by Furness et al
  Functional family                     .... MGGA
  Functional refs                              
    [ 0] J. W. Furness, A. D. Kaplan, J. Ning, J. P. Perdew, and J. Sun.,  J. Phys. Chem. Lett. 11, 8208-8215 (2020), doi: 10.1021/acs.jpclett.0c02405
    [ 1] J. W. Furness, A. D. Kaplan, J. Ning, J. P. Perdew, and J. Sun.,  J. Phys. Chem. Lett. 11, 9248-9248 (2020), doi: 10.1021/acs.jpclett.0c03077
  Functional external parameters        .... 6
    Parameter  0 _c1        =  6.670000e-01 : c1 parameter        
    Parameter  1 _c2        =  8.000000e-01 : c2 parameter        
    Parameter  2 _d         =  1.240000e+00 : d parameter         
    Parameter  3 _k1        =  6.500000e-02 : k1 parameter        
    Parameter  4 _eta       =  1.000000e-03 : eta parameter       
    Parameter  5 _dp2       =  3.610000e-01 : dp2 parameter       
  Functional kind                       .... Correlation
  Functional name                       .... Re-regularized SCAN correlation by Furness et al
  Functional family                     .... MGGA
  Functional refs                              
    [ 0] J. W. Furness, A. D. Kaplan, J. Ning, J. P. Perdew, and J. Sun.,  J. Phys. Chem. Lett. 11, 8208-8215 (2020), doi: 10.1021/acs.jpclett.0c02405
    [ 1] J. W. Furness, A. D. Kaplan, J. Ning, J. P. Perdew, and J. Sun.,  J. Phys. Chem. Lett. 11, 9248-9248 (2020), doi: 10.1021/acs.jpclett.0c03077
  Functional external parameters        .... 1
    Parameter  0 _eta       =  1.000000e-03 : Regularization parameter
 Gradients option       PostSCFGGA      .... off
 Hybrid DFT is turned on
   Fraction HF Exchange ScalHFX         ....  0.100000
   Scaling of DF-GGA-X  ScalDFX         ....  0.900000
   Scaling of DF-GGA-C  ScalDFC         ....  1.000000
   Scaling of DF-LDA-C  ScalLDAC        ....  1.000000
   Perturbative correction              ....  0.000000
   NL short-range parameter             .... 11.900000
 RI-approximation to the Coulomb term is turned on
   Number of AuxJ basis functions       .... 382
   RIJ-COSX (HFX calculated with COS-X)).... on


General Settings:
 Integral files         IntName         .... cs_rporg_062_ox_solv_04
 Hartree-Fock type      HFTyp           .... UHF
 Total Charge           Charge          ....    1
 Multiplicity           Mult            ....    2
 Number of Electrons    NEL             ....   47
 Basis Dimension        Dim             ....  460
 Nuclear Repulsion      ENuc            ....    266.9883998538 Eh

Convergence Acceleration:
 AO-DIIS                CNVDIIS         .... on
   Start iteration      DIISMaxIt       ....     0
   Startup error        DIISStart       ....  0.200000
   # of expansion vecs  DIISMaxEq       ....     5
   Bias factor          DIISBfac        ....   1.050
   Max. coefficient     DIISMaxC        ....  10.000
 MO-DIIS                CNVKDIIS        .... off
 Trust-Rad. Augm. Hess. CNVTRAH         .... auto
   Auto Start mean grad. ratio tolernc. ....  1.125000
   Auto Start start iteration           ....    50
   Auto Start num. interpolation iter.  ....    10
   Max. Number of Micro iterations      ....    24
   Max. Number of Macro iterations      .... Maxiter - #DIIS iter
   Number of Davidson start vectors     ....     2
   Converg. threshold    (grad. norm)   ....   1.000e-05
   Grad. Scal. Fac. for Micro threshold ....   0.100
   Minimum threshold for Micro iter.    ....   1.000e-02
   NR start threshold (gradient norm)   ....   1.000e-04
   Initial trust radius                 ....   0.400
   Minimum AH scaling param. (alpha)    ....   1.000
   Maximum AH scaling param. (alpha)    .... 1000.000
   Quad. conv. algorithm                .... NR
   White noise on init. David. guess    .... on
   Maximum white noise                  ....   0.010
   Pseudo random numbers                .... off
   Inactive MOs                         .... canonical
   Orbital update algorithm             .... Taylor
   Preconditioner                       .... Diag
   Full preconditioner red. dimension   ....   250
 SOSCF                  CNVSOSCF        .... on
   Start iteration      SOSCFMaxIt      ....   150
   Startup grad/error   SOSCFStart      ....  0.001000
   Hessian update       SOSCFHessUp     .... L-BFGS
 Level Shifting         CNVShift        .... on
   Level shift para.    LevelShift      ....    0.2500
   Turn off err/grad.   ShiftErr        ....    0.0000
 Zerner damping         CNVZerner       .... off
 Static damping         CNVDamp         .... on
   Fraction old density DampFac         ....    0.8500
   Max. Damping (<1)    DampMax         ....    0.9800
   Min. Damping (>=0)   DampMin         ....    0.0000
   Turn off err/grad.   DampErr         ....    0.0300

SCF Procedure:
 Maximum # iterations   MaxIter         ....  1500
 SCF integral mode      SCFMode         .... Direct
   Integral package                     .... SHARK and LIBINT hybrid scheme
 Reset frequency        DirectResetFreq ....    20
 Integral Threshold     Thresh          ....  2.500e-11 Eh
 Primitive CutOff       TCut            ....  2.500e-12 Eh

Convergence Tolerance:
 Convergence Check Mode ConvCheckMode   .... Total+1el-Energy
 Convergence forced     ConvForced      .... 0
 Energy Change          TolE            ....  1.000e-08 Eh
 1-El. energy change                    ....  1.000e-05 Eh
 Orbital Gradient       TolG            ....  1.000e-05
 Orbital Rotation angle TolX            ....  1.000e-05
 DIIS Error             TolErr          ....  5.000e-07

------------------------------
INITIAL GUESS: MODEL POTENTIAL
------------------------------
Loading Hartree-Fock densities                     ... done
Calculating cut-offs                               ... done
Initializing the effective Hamiltonian             ... done
Setting up the integral package (SHARK)            ... done
Starting the Coulomb interaction                   ... done (   0.3 sec)
Making the grid                                    ... done (   0.3 sec)
Mapping shells                                     ... done
Starting the XC term evaluation                    ... done (   0.4 sec)
  promolecular density results
     # of electrons  =     47.990323085
     EX              =    -39.153654299
     EC              =     -1.606859386
     EX+EC           =    -40.760513685
Transforming the Hamiltonian                       ... done (   0.0 sec)
Diagonalizing the Hamiltonian                      ... done (   0.1 sec)
Back transforming the eigenvectors                 ... done (   0.1 sec)
Now organizing SCF variables                       ... done
                      ------------------
                      INITIAL GUESS DONE (   1.4 sec)
                      ------------------
             **** ENERGY FILE WAS UPDATED (cs_rporg_062_ox_solv_04.en.tmp) ****
Finished Guess after   2.2 sec
Maximum memory used throughout the entire GUESS-calculation: 33.3 MB


           ************************************************************
           *        Program running with 4 parallel MPI-processes     *
           *              working on a common directory               *
           ************************************************************

-------------------------------------------------------------------------------------------
                                      ORCA LEAN-SCF
                              memory conserving SCF solver
-------------------------------------------------------------------------------------------

--------------------
CPCM SOLVATION MODEL
--------------------
CPCM parameters:
  Epsilon                                         ...      35.6880
  Refrac                                          ...       1.3442
  Rsolv                                           ...       2.1900
  Surface type                                    ...    GEPOL SES
  Discretization scheme                           ... Constant num. charges
  Epsilon function type                           ...         CPCM
Solvent:                                          ... ACETONITRILE
SMD-CDS solvent descriptors:
  Soln                                            ...       1.3442
  Soln25                                          ...       1.3416
  Sola                                            ...       0.0700
  Solb                                            ...       0.3200
  Solg                                            ...      41.2500
  Solc                                            ...       0.0000
  Solh                                            ...       0.0000
Radii:
  Scheme                                          ... Element-dependent radii
  Radius for C  used is    3.4960 Bohr (=   1.8500 Ang.)
  Radius for H  used is    2.2677 Bohr (=   1.2000 Ang.)
  Radius for O  used is    4.0969 Bohr (=   2.1680 Ang.)
Calculating surface                               ...        done! (  0.0s)
Cavity surface points                             ...          412
Cavity Volume                                     ...     764.7468
Cavity Surface-area                               ...     446.4348
Calculating surface distance matrix               ...        done! (  0.0s)
Performing Cholesky decomposition & store         ...        done! (  0.0s)
Overall time for CPCM initialization              ...                 0.0s

----------------------------------------D-I-I-S--------------------------------------------
Iteration    Energy (Eh)           Delta-E    RMSDP     MaxDP     DIISErr   Damp  Time(sec)
-------------------------------------------------------------------------------------------
               ***  Starting incremental Fock matrix formation  ***
    1    -307.3311523950648052     0.00e+00  1.75e-04  1.13e-02  5.34e-02  0.850  16.3
    2    -307.3392862719455252    -8.13e-03  1.60e-04  9.83e-03  4.23e-02  0.850  11.3
                               ***Turning on AO-DIIS***
    3    -307.3454064621629414    -6.12e-03  1.30e-04  8.42e-03  3.25e-02  0.850  11.0
    4    -307.3499141656418487    -4.51e-03  1.11e-04  7.19e-03  2.79e-02  0.850  10.9
    5    -307.3534765219603742    -3.56e-03  6.29e-04  4.08e-02  2.43e-02  0.000  10.9
    6    -307.3715020144655909    -1.80e-02  2.88e-05  1.72e-03  1.46e-03  0.000  11.4
    7    -307.3715395181479835    -3.75e-05  9.82e-06  5.75e-04  1.62e-03  0.000  10.4
                              *** Initializing SOSCF ***
---------------------------------------S-O-S-C-F--------------------------------------
Iteration    Energy (Eh)           Delta-E    RMSDP     MaxDP     MaxGrad    Time(sec)
--------------------------------------------------------------------------------------
    8    -307.3715597050734232    -2.02e-05  6.11e-06  3.55e-04  5.52e-04    10.5
               *** Restarting incremental Fock matrix formation ***
    9    -307.3715583016620485     1.40e-06  5.98e-06  2.11e-04  4.51e-04    16.2
   10    -307.3715606884136378    -2.39e-06  4.63e-06  2.91e-04  1.90e-04    12.9
   11    -307.3715615132455241    -8.25e-07  1.90e-06  8.97e-05  1.58e-04    12.9
   12    -307.3715617869687549    -2.74e-07  9.46e-07  6.60e-05  2.76e-05    12.1
   13    -307.3715618093552848    -2.24e-08  8.51e-07  5.95e-05  2.18e-05    11.6
   14    -307.3715618372000336    -2.78e-08  7.30e-07  4.86e-05  2.42e-06    11.3
                  *** Gradient check signals convergence ***

               *****************************************************
               *                     SUCCESS                       *
               *           SCF CONVERGED AFTER  14 CYCLES          *
               *****************************************************

Recomputing exchange energy using gridx3       ... done (   15.550 sec)
Old exchange energy                            :     -3.971651575 Eh
New exchange energy                            :     -3.971675243 Eh
Exchange energy change after final integration :     -0.000023668 Eh
Total energy after final integration           :   -307.371585505 Eh

SMD CDS free energy correction energy :                -0.75625     Kcal/mol
Total Energy after SMD CDS correction =              -307.372790662 Eh
             **** ENERGY FILE WAS UPDATED (cs_rporg_062_ox_solv_04.en.tmp) ****

----------------
TOTAL SCF ENERGY
----------------

Total Energy       :       -307.37279066208822 Eh           -8364.03885 eV

Components:
Nuclear Repulsion  :        266.98839985381528 Eh            7265.12371 eV
Electronic Energy  :       -574.26152098806153 Eh          -15626.45042 eV
One Electron Energy:       -936.00964873229577 Eh          -25470.11742 eV
Two Electron Energy:        361.74812774423424 Eh            9843.66700 eV
CPCM Dielectric    :         -0.09844070295374 Eh              -2.67871 eV
SMD CDS (Gcds)     :         -0.00120515686978 Eh              -0.03279 eV

Virial components:
Potential Energy   :       -612.92073980583336 Eh          -16678.42124 eV
Kinetic Energy     :        305.54794914374520 Eh            8314.38239 eV
Virial Ratio       :          2.00597235727962

DFT components:
N(Alpha)           :       23.999985319888 electrons
N(Beta)            :       22.999985552812 electrons
N(Total)           :       46.999970872701 electrons
E(X)               :      -35.914625189923 Eh       
E(C)               :       -1.518764623044 Eh       
E(XC)              :      -37.433389812967 Eh       

CPCM Solvation Model Properties:
Surface-charge          :         -1.01955365974067
Corrected charge        :         -1.00000000000000
Outlying charge corr.   :          0.00003197286689 Eh               0.00087 eV
Free-energy (cav+disp)  :         -0.00120515686978 Eh              -0.03279 eV

---------------
SCF CONVERGENCE
---------------

  Last Energy change         ...    2.7845e-08  Tolerance :   1.0000e-08
  Last MAX-Density change    ...    4.8613e-05  Tolerance :   1.0000e-07
  Last RMS-Density change    ...    7.3002e-07  Tolerance :   5.0000e-09
  Last DIIS Error            ...    5.5231e-04  Tolerance :   5.0000e-07
  Last Orbital Gradient      ...    2.4218e-06  Tolerance :   1.0000e-05
  Last Orbital Rotation      ...    5.2832e-06  Tolerance :   1.0000e-05


----------------------
UHF SPIN CONTAMINATION
----------------------

Warning: in a DFT calculation there is little theoretical justification to 
         calculate <S**2> as in Hartree-Fock theory. We will do it anyways
         but you should keep in mind that the values have only limited relevance

Expectation value of <S**2>     :     0.754459
Ideal value S*(S+1) for S=0.5   :     0.750000
Deviation                       :     0.004459

----------------
ORBITAL ENERGIES
----------------
                 SPIN UP ORBITALS
  NO   OCC          E(Eh)            E(eV) 
   0   1.0000     -19.232754      -523.3498 
   1   1.0000     -19.232753      -523.3498 
   2   1.0000     -10.260680      -279.2073 
   3   1.0000     -10.260679      -279.2073 
   4   1.0000     -10.260564      -279.2041 
   5   1.0000     -10.260560      -279.2040 
   6   1.0000      -1.172491       -31.9051 
   7   1.0000      -1.134718       -30.8772 
   8   1.0000      -0.838564       -22.8185 
   9   1.0000      -0.735898       -20.0248 
  10   1.0000      -0.733299       -19.9541 
  11   1.0000      -0.625228       -17.0133 
  12   1.0000      -0.568732       -15.4760 
  13   1.0000      -0.551438       -15.0054 
  14   1.0000      -0.524595       -14.2749 
  15   1.0000      -0.519418       -14.1341 
  16   1.0000      -0.514942       -14.0123 
  17   1.0000      -0.451937       -12.2978 
  18   1.0000      -0.427079       -11.6214 
  19   1.0000      -0.415883       -11.3167 
  20   1.0000      -0.396949       -10.8015 
  21   1.0000      -0.362469        -9.8633 
  22   1.0000      -0.354484        -9.6460 
  23   1.0000      -0.295883        -8.0514 
  24   0.0000       0.013189         0.3589 
  25   0.0000       0.024357         0.6628 
  26   0.0000       0.028812         0.7840 
  27   0.0000       0.029725         0.8089 
  28   0.0000       0.034979         0.9518 
  29   0.0000       0.049764         1.3541 
  30   0.0000       0.052157         1.4193 
  31   0.0000       0.053267         1.4495 
  32   0.0000       0.070069         1.9067 
  33   0.0000       0.070324         1.9136 
  34   0.0000       0.074277         2.0212 

                 SPIN DOWN ORBITALS
  NO   OCC          E(Eh)            E(eV) 
   0   1.0000     -19.222037      -523.0582 
   1   1.0000     -19.222036      -523.0582 
   2   1.0000     -10.258779      -279.1556 
   3   1.0000     -10.258778      -279.1555 
   4   1.0000     -10.258676      -279.1528 
   5   1.0000     -10.258671      -279.1526 
   6   1.0000      -1.156858       -31.4797 
   7   1.0000      -1.116572       -30.3835 
   8   1.0000      -0.830802       -22.6073 
   9   1.0000      -0.731552       -19.9065 
  10   1.0000      -0.715639       -19.4735 
  11   1.0000      -0.617329       -16.7984 
  12   1.0000      -0.553192       -15.0531 
  13   1.0000      -0.542405       -14.7596 
  14   1.0000      -0.520499       -14.1635 
  15   1.0000      -0.514608       -14.0032 
  16   1.0000      -0.498299       -13.5594 
  17   1.0000      -0.414331       -11.2745 
  18   1.0000      -0.414114       -11.2686 
  19   1.0000      -0.412073       -11.2131 
  20   1.0000      -0.385790       -10.4979 
  21   1.0000      -0.347790        -9.4639 
  22   1.0000      -0.335048        -9.1171 
  23   0.0000      -0.221830        -6.0363 
  24   0.0000       0.014879         0.4049 
  25   0.0000       0.025392         0.6910 
  26   0.0000       0.030270         0.8237 
  27   0.0000       0.030438         0.8283 
  28   0.0000       0.039155         1.0655 
  29   0.0000       0.050418         1.3719 
  30   0.0000       0.052646         1.4326 
  31   0.0000       0.054243         1.4760 
  32   0.0000       0.071443         1.9441 
  33   0.0000       0.073825         2.0089 
*Only the first 10 virtual orbitals were printed.

                    ********************************
                    * MULLIKEN POPULATION ANALYSIS *
                    ********************************

--------------------------------------------
MULLIKEN ATOMIC CHARGES AND SPIN POPULATIONS
--------------------------------------------
   0 C :   -0.102124    0.063623
   1 C :   -0.102060    0.063630
   2 H :    0.302385    0.014754
   3 H :    0.241627    0.011863
   4 O :   -0.383901    0.319516
   5 C :   -0.102079    0.063601
   6 C :   -0.102107    0.063612
   7 H :    0.302345    0.014765
   8 H :    0.241677    0.011866
   9 O :   -0.383899    0.319512
  10 H :    0.302368    0.014763
  11 H :    0.241692    0.011869
  12 H :    0.302393    0.014766
  13 H :    0.241682    0.011860
Sum of atomic charges         :    1.0000000
Sum of atomic spin populations:    1.0000000

-----------------------------------------------------
MULLIKEN REDUCED ORBITAL CHARGES AND SPIN POPULATIONS
-----------------------------------------------------
CHARGE
  0 C s       :     3.355546  s :     3.355546
      pz      :     1.019659  p :     2.566803
      px      :     0.770299
      py      :     0.776845
      dz2     :     0.041592  d :     0.157674
      dxz     :     0.015585
      dyz     :     0.006616
      dx2y2   :     0.044208
      dxy     :     0.049673
      f0      :     0.003888  f :     0.022101
      f+1     :     0.001948
      f-1     :     0.004841
      f+2     :     0.003711
      f-2     :     0.003251
      f+3     :     0.003056
      f-3     :     0.001406

  1 C s       :     3.355474  s :     3.355474
      pz      :     1.019616  p :     2.566791
      px      :     0.770309
      py      :     0.776865
      dz2     :     0.041600  d :     0.157698
      dxz     :     0.015596
      dyz     :     0.006612
      dx2y2   :     0.044207
      dxy     :     0.049683
      f0      :     0.003887  f :     0.022098
      f+1     :     0.001948
      f-1     :     0.004840
      f+2     :     0.003712
      f-2     :     0.003252
      f+3     :     0.003057
      f-3     :     0.001402

  2 H s       :     0.660079  s :     0.660079
      pz      :     0.008304  p :     0.031547
      px      :     0.012553
      py      :     0.010690
      dz2     :     0.002308  d :     0.005989
      dxz     :     0.000384
      dyz     :     0.000667
      dx2y2   :    -0.000226
      dxy     :     0.002856

  3 H s       :     0.717098  s :     0.717098
      pz      :     0.016796  p :     0.033672
      px      :     0.009479
      py      :     0.007398
      dz2     :     0.001248  d :     0.007602
      dxz     :     0.004381
      dyz     :     0.000881
      dx2y2   :     0.000456
      dxy     :     0.000636

  4 O s       :     3.931592  s :     3.931592
      pz      :     1.653733  p :     4.357103
      px      :     1.518589
      py      :     1.184781
      dz2     :     0.015095  d :     0.087086
      dxz     :     0.007124
      dyz     :     0.021596
      dx2y2   :     0.019214
      dxy     :     0.024057
      f0      :     0.000318  f :     0.008119
      f+1     :     0.000560
      f-1     :     0.001586
      f+2     :     0.000823
      f-2     :     0.001720
      f+3     :     0.000491
      f-3     :     0.002621

  5 C s       :     3.355458  s :     3.355458
      pz      :     1.019668  p :     2.566846
      px      :     0.770322
      py      :     0.776856
      dz2     :     0.041595  d :     0.157673
      dxz     :     0.015588
      dyz     :     0.006608
      dx2y2   :     0.044203
      dxy     :     0.049677
      f0      :     0.003887  f :     0.022101
      f+1     :     0.001947
      f-1     :     0.004840
      f+2     :     0.003712
      f-2     :     0.003253
      f+3     :     0.003057
      f-3     :     0.001405

  6 C s       :     3.355501  s :     3.355501
      pz      :     1.019634  p :     2.566817
      px      :     0.770306
      py      :     0.776877
      dz2     :     0.041596  d :     0.157689
      dxz     :     0.015596
      dyz     :     0.006614
      dx2y2   :     0.044210
      dxy     :     0.049672
      f0      :     0.003888  f :     0.022100
      f+1     :     0.001948
      f-1     :     0.004840
      f+2     :     0.003712
      f-2     :     0.003250
      f+3     :     0.003058
      f-3     :     0.001404

  7 H s       :     0.660112  s :     0.660112
      pz      :     0.008308  p :     0.031554
      px      :     0.012553
      py      :     0.010693
      dz2     :     0.002308  d :     0.005989
      dxz     :     0.000384
      dyz     :     0.000667
      dx2y2   :    -0.000226
      dxy     :     0.002856

  8 H s       :     0.717047  s :     0.717047
      pz      :     0.016793  p :     0.033673
      px      :     0.009479
      py      :     0.007400
      dz2     :     0.001249  d :     0.007603
      dxz     :     0.004381
      dyz     :     0.000881
      dx2y2   :     0.000456
      dxy     :     0.000636

  9 O s       :     3.931592  s :     3.931592
      pz      :     1.653736  p :     4.357107
      px      :     1.518594
      py      :     1.184777
      dz2     :     0.015093  d :     0.087081
      dxz     :     0.007123
      dyz     :     0.021595
      dx2y2   :     0.019213
      dxy     :     0.024058
      f0      :     0.000318  f :     0.008119
      f+1     :     0.000560
      f-1     :     0.001586
      f+2     :     0.000823
      f-2     :     0.001720
      f+3     :     0.000491
      f-3     :     0.002621

 10 H s       :     0.660088  s :     0.660088
      pz      :     0.008309  p :     0.031554
      px      :     0.012553
      py      :     0.010692
      dz2     :     0.002308  d :     0.005990
      dxz     :     0.000384
      dyz     :     0.000667
      dx2y2   :    -0.000225
      dxy     :     0.002856

 11 H s       :     0.717026  s :     0.717026
      pz      :     0.016796  p :     0.033679
      px      :     0.009481
      py      :     0.007402
      dz2     :     0.001249  d :     0.007602
      dxz     :     0.004381
      dyz     :     0.000881
      dx2y2   :     0.000456
      dxy     :     0.000636

 12 H s       :     0.660073  s :     0.660073
      pz      :     0.008306  p :     0.031544
      px      :     0.012549
      py      :     0.010689
      dz2     :     0.002308  d :     0.005990
      dxz     :     0.000384
      dyz     :     0.000667
      dx2y2   :    -0.000225
      dxy     :     0.002856

 13 H s       :     0.717038  s :     0.717038
      pz      :     0.016801  p :     0.033676
      px      :     0.009477
      py      :     0.007398
      dz2     :     0.001249  d :     0.007603
      dxz     :     0.004381
      dyz     :     0.000881
      dx2y2   :     0.000456
      dxy     :     0.000636


SPIN
  0 C s       :    -0.012373  s :    -0.012373
      pz      :    -0.001902  p :     0.064678
      px      :     0.081775
      py      :    -0.015195
      dz2     :     0.004272  d :     0.010380
      dxz     :    -0.000320
      dyz     :    -0.002018
      dx2y2   :     0.004208
      dxy     :     0.004238
      f0      :    -0.000032  f :     0.000938
      f+1     :    -0.000432
      f-1     :     0.000555
      f+2     :     0.000623
      f-2     :    -0.000021
      f+3     :     0.000319
      f-3     :    -0.000073

  1 C s       :    -0.012358  s :    -0.012358
      pz      :    -0.001909  p :     0.064667
      px      :     0.081772
      py      :    -0.015196
      dz2     :     0.004270  d :     0.010383
      dxz     :    -0.000320
      dyz     :    -0.002019
      dx2y2   :     0.004210
      dxy     :     0.004243
      f0      :    -0.000032  f :     0.000938
      f+1     :    -0.000432
      f-1     :     0.000555
      f+2     :     0.000623
      f-2     :    -0.000021
      f+3     :     0.000318
      f-3     :    -0.000073

  2 H s       :     0.013945  s :     0.013945
      pz      :    -0.000382  p :     0.000631
      px      :     0.001239
      py      :    -0.000226
      dz2     :     0.000301  d :     0.000178
      dxz     :    -0.000029
      dyz     :    -0.000098
      dx2y2   :     0.000187
      dxy     :    -0.000183

  3 H s       :     0.010931  s :     0.010931
      pz      :     0.000139  p :     0.000474
      px      :     0.001510
      py      :    -0.001176
      dz2     :     0.000020  d :     0.000457
      dxz     :     0.000397
      dyz     :    -0.000245
      dx2y2   :     0.000031
      dxy     :     0.000254

  4 O s       :     0.016010  s :     0.016010
      pz      :     0.073980  p :     0.301754
      px      :     0.216627
      py      :     0.011147
      dz2     :     0.000742  d :     0.002157
      dxz     :     0.000583
      dyz     :    -0.000157
      dx2y2   :     0.000885
      dxy     :     0.000105
      f0      :    -0.000014  f :    -0.000406
      f+1     :    -0.000003
      f-1     :    -0.000072
      f+2     :    -0.000042
      f-2     :    -0.000049
      f+3     :    -0.000097
      f-3     :    -0.000128

  5 C s       :    -0.012379  s :    -0.012379
      pz      :    -0.001903  p :     0.064665
      px      :     0.081770
      py      :    -0.015202
      dz2     :     0.004270  d :     0.010377
      dxz     :    -0.000321
      dyz     :    -0.002019
      dx2y2   :     0.004208
      dxy     :     0.004239
      f0      :    -0.000032  f :     0.000938
      f+1     :    -0.000432
      f-1     :     0.000555
      f+2     :     0.000623
      f-2     :    -0.000021
      f+3     :     0.000319
      f-3     :    -0.000073

  6 C s       :    -0.012374  s :    -0.012374
      pz      :    -0.001905  p :     0.064669
      px      :     0.081775
      py      :    -0.015201
      dz2     :     0.004269  d :     0.010379
      dxz     :    -0.000321
      dyz     :    -0.002019
      dx2y2   :     0.004210
      dxy     :     0.004240
      f0      :    -0.000032  f :     0.000938
      f+1     :    -0.000432
      f-1     :     0.000555
      f+2     :     0.000623
      f-2     :    -0.000021
      f+3     :     0.000319
      f-3     :    -0.000073

  7 H s       :     0.013960  s :     0.013960
      pz      :    -0.000383  p :     0.000627
      px      :     0.001237
      py      :    -0.000227
      dz2     :     0.000301  d :     0.000178
      dxz     :    -0.000029
      dyz     :    -0.000098
      dx2y2   :     0.000187
      dxy     :    -0.000183

  8 H s       :     0.010933  s :     0.010933
      pz      :     0.000140  p :     0.000476
      px      :     0.001510
      py      :    -0.001175
      dz2     :     0.000020  d :     0.000457
      dxz     :     0.000397
      dyz     :    -0.000245
      dx2y2   :     0.000031
      dxy     :     0.000254

  9 O s       :     0.016006  s :     0.016006
      pz      :     0.073983  p :     0.301757
      px      :     0.216627
      py      :     0.011146
      dz2     :     0.000742  d :     0.002155
      dxz     :     0.000583
      dyz     :    -0.000157
      dx2y2   :     0.000883
      dxy     :     0.000104
      f0      :    -0.000014  f :    -0.000406
      f+1     :    -0.000003
      f-1     :    -0.000072
      f+2     :    -0.000042
      f-2     :    -0.000049
      f+3     :    -0.000097
      f-3     :    -0.000128

 10 H s       :     0.013959  s :     0.013959
      pz      :    -0.000383  p :     0.000626
      px      :     0.001237
      py      :    -0.000229
      dz2     :     0.000301  d :     0.000178
      dxz     :    -0.000029
      dyz     :    -0.000098
      dx2y2   :     0.000187
      dxy     :    -0.000183

 11 H s       :     0.010937  s :     0.010937
      pz      :     0.000140  p :     0.000475
      px      :     0.001510
      py      :    -0.001175
      dz2     :     0.000020  d :     0.000457
      dxz     :     0.000397
      dyz     :    -0.000245
      dx2y2   :     0.000031
      dxy     :     0.000254

 12 H s       :     0.013957  s :     0.013957
      pz      :    -0.000381  p :     0.000631
      px      :     0.001239
      py      :    -0.000226
      dz2     :     0.000301  d :     0.000178
      dxz     :    -0.000029
      dyz     :    -0.000098
      dx2y2   :     0.000187
      dxy     :    -0.000183

 13 H s       :     0.010928  s :     0.010928
      pz      :     0.000141  p :     0.000475
      px      :     0.001510
      py      :    -0.001175
      dz2     :     0.000020  d :     0.000457
      dxz     :     0.000397
      dyz     :    -0.000245
      dx2y2   :     0.000031
      dxy     :     0.000254



                     *******************************
                     * LOEWDIN POPULATION ANALYSIS *
                     *******************************

-------------------------------------------
LOEWDIN ATOMIC CHARGES AND SPIN POPULATIONS
-------------------------------------------
   0 C :    0.142234    0.094810
   1 C :    0.142225    0.094810
   2 H :   -0.111322    0.014052
   3 H :   -0.114339    0.013376
   4 O :    0.666869    0.255525
   5 C :    0.142231    0.094810
   6 C :    0.142229    0.094810
   7 H :   -0.111324    0.014051
   8 H :   -0.114339    0.013376
   9 O :    0.666868    0.255527
  10 H :   -0.111321    0.014052
  11 H :   -0.114343    0.013375
  12 H :   -0.111322    0.014052
  13 H :   -0.114345    0.013375

----------------------------------------------------
LOEWDIN REDUCED ORBITAL CHARGES AND SPIN POPULATIONS
----------------------------------------------------
CHARGE
  0 C s       :     2.453480  s :     2.453480
      pz      :     0.787066  p :     2.146359
      px      :     0.667366
      py      :     0.691927
      dz2     :     0.186648  d :     0.813572
      dxz     :     0.111681
      dyz     :     0.138139
      dx2y2   :     0.181918
      dxy     :     0.195187
      f0      :     0.042879  f :     0.444354
      f+1     :     0.048230
      f-1     :     0.054535
      f+2     :     0.065261
      f-2     :     0.062678
      f+3     :     0.066784
      f-3     :     0.103988

  1 C s       :     2.453479  s :     2.453479
      pz      :     0.787065  p :     2.146360
      px      :     0.667356
      py      :     0.691939
      dz2     :     0.186653  d :     0.813579
      dxz     :     0.111687
      dyz     :     0.138137
      dx2y2   :     0.181924
      dxy     :     0.195176
      f0      :     0.042877  f :     0.444358
      f+1     :     0.048234
      f-1     :     0.054537
      f+2     :     0.065261
      f-2     :     0.062684
      f+3     :     0.066780
      f-3     :     0.103986

  2 H s       :     0.626083  s :     0.626083
      pz      :     0.088229  p :     0.272606
      px      :     0.081268
      py      :     0.103110
      dz2     :     0.046176  d :     0.212633
      dxz     :     0.019282
      dyz     :     0.044634
      dx2y2   :     0.057758
      dxy     :     0.044784

  3 H s       :     0.617447  s :     0.617447
      pz      :     0.146652  p :     0.282560
      px      :     0.069633
      py      :     0.066276
      dz2     :     0.060037  d :     0.214332
      dxz     :     0.069719
      dyz     :     0.067159
      dx2y2   :     0.010409
      dxy     :     0.007009

  4 O s       :     2.977217  s :     2.977217
      pz      :     1.342277  p :     3.745363
      px      :     1.247575
      py      :     1.155510
      dz2     :     0.082330  d :     0.473422
      dxz     :     0.025795
      dyz     :     0.115720
      dx2y2   :     0.136542
      dxy     :     0.113034
      f0      :     0.006115  f :     0.137130
      f+1     :     0.006943
      f-1     :     0.036568
      f+2     :     0.011611
      f-2     :     0.019698
      f+3     :     0.015501
      f-3     :     0.040694

  5 C s       :     2.453479  s :     2.453479
      pz      :     0.787064  p :     2.146359
      px      :     0.667365
      py      :     0.691930
      dz2     :     0.186649  d :     0.813575
      dxz     :     0.111680
      dyz     :     0.138140
      dx2y2   :     0.181919
      dxy     :     0.195186
      f0      :     0.042879  f :     0.444356
      f+1     :     0.048230
      f-1     :     0.054536
      f+2     :     0.065262
      f-2     :     0.062678
      f+3     :     0.066784
      f-3     :     0.103987

  6 C s       :     2.453480  s :     2.453480
      pz      :     0.787067  p :     2.146360
      px      :     0.667357
      py      :     0.691936
      dz2     :     0.186651  d :     0.813575
      dxz     :     0.111687
      dyz     :     0.138137
      dx2y2   :     0.181923
      dxy     :     0.195176
      f0      :     0.042877  f :     0.444356
      f+1     :     0.048234
      f-1     :     0.054535
      f+2     :     0.065260
      f-2     :     0.062683
      f+3     :     0.066780
      f-3     :     0.103986

  7 H s       :     0.626084  s :     0.626084
      pz      :     0.088230  p :     0.272606
      px      :     0.081268
      py      :     0.103109
      dz2     :     0.046177  d :     0.212634
      dxz     :     0.019282
      dyz     :     0.044633
      dx2y2   :     0.057758
      dxy     :     0.044783

  8 H s       :     0.617448  s :     0.617448
      pz      :     0.146652  p :     0.282560
      px      :     0.069632
      py      :     0.066275
      dz2     :     0.060037  d :     0.214331
      dxz     :     0.069718
      dyz     :     0.067159
      dx2y2   :     0.010408
      dxy     :     0.007008

  9 O s       :     2.977220  s :     2.977220
      pz      :     1.342279  p :     3.745365
      px      :     1.247576
      py      :     1.155510
      dz2     :     0.082329  d :     0.473419
      dxz     :     0.025795
      dyz     :     0.115719
      dx2y2   :     0.136542
      dxy     :     0.113033
      f0      :     0.006115  f :     0.137128
      f+1     :     0.006943
      f-1     :     0.036567
      f+2     :     0.011610
      f-2     :     0.019698
      f+3     :     0.015501
      f-3     :     0.040694

 10 H s       :     0.626086  s :     0.626086
      pz      :     0.088228  p :     0.272605
      px      :     0.081271
      py      :     0.103105
      dz2     :     0.046175  d :     0.212631
      dxz     :     0.019284
      dyz     :     0.044631
      dx2y2   :     0.057760
      dxy     :     0.044781

 11 H s       :     0.617445  s :     0.617445
      pz      :     0.146652  p :     0.282563
      px      :     0.069635
      py      :     0.066276
      dz2     :     0.060037  d :     0.214335
      dxz     :     0.069721
      dyz     :     0.067159
      dx2y2   :     0.010409
      dxy     :     0.007010

 12 H s       :     0.626086  s :     0.626086
      pz      :     0.088228  p :     0.272605
      px      :     0.081271
      py      :     0.103105
      dz2     :     0.046176  d :     0.212631
      dxz     :     0.019285
      dyz     :     0.044630
      dx2y2   :     0.057760
      dxy     :     0.044781

 13 H s       :     0.617446  s :     0.617446
      pz      :     0.146653  p :     0.282564
      px      :     0.069635
      py      :     0.066276
      dz2     :     0.060037  d :     0.214335
      dxz     :     0.069721
      dyz     :     0.067159
      dx2y2   :     0.010409
      dxy     :     0.007010


SPIN
  0 C s       :     0.000918  s :     0.000918
      pz      :     0.002561  p :     0.051136
      px      :     0.052649
      py      :    -0.004074
      dz2     :     0.006525  d :     0.027553
      dxz     :     0.001189
      dyz     :     0.001005
      dx2y2   :     0.007677
      dxy     :     0.011157
      f0      :     0.000176  f :     0.015202
      f+1     :     0.001236
      f-1     :     0.003236
      f+2     :     0.005693
      f-2     :     0.000208
      f+3     :     0.001654
      f-3     :     0.002999

  1 C s       :     0.000918  s :     0.000918
      pz      :     0.002561  p :     0.051135
      px      :     0.052648
      py      :    -0.004073
      dz2     :     0.006526  d :     0.027555
      dxz     :     0.001189
      dyz     :     0.001005
      dx2y2   :     0.007679
      dxy     :     0.011156
      f0      :     0.000176  f :     0.015202
      f+1     :     0.001236
      f-1     :     0.003236
      f+2     :     0.005693
      f-2     :     0.000208
      f+3     :     0.001653
      f-3     :     0.003000

  2 H s       :     0.006444  s :     0.006444
      pz      :     0.000896  p :     0.002904
      px      :     0.001949
      py      :     0.000059
      dz2     :     0.002741  d :     0.004704
      dxz     :    -0.000086
      dyz     :     0.000091
      dx2y2   :     0.001680
      dxy     :     0.000278

  3 H s       :     0.007319  s :     0.007319
      pz      :     0.000445  p :     0.001491
      px      :     0.001327
      py      :    -0.000282
      dz2     :     0.000505  d :     0.004566
      dxz     :     0.003174
      dyz     :    -0.000202
      dx2y2   :     0.000153
      dxy     :     0.000936

  4 O s       :     0.006820  s :     0.006820
      pz      :     0.057350  p :     0.234570
      px      :     0.171165
      py      :     0.006055
      dz2     :     0.003004  d :     0.010197
      dxz     :    -0.000072
      dyz     :    -0.000479
      dx2y2   :     0.009865
      dxy     :    -0.002122
      f0      :     0.000038  f :     0.003938
      f+1     :     0.001057
      f-1     :    -0.000221
      f+2     :     0.002117
      f-2     :    -0.000138
      f+3     :     0.001192
      f-3     :    -0.000108

  5 C s       :     0.000918  s :     0.000918
      pz      :     0.002561  p :     0.051136
      px      :     0.052648
      py      :    -0.004074
      dz2     :     0.006525  d :     0.027554
      dxz     :     0.001189
      dyz     :     0.001005
      dx2y2   :     0.007677
      dxy     :     0.011158
      f0      :     0.000176  f :     0.015202
      f+1     :     0.001236
      f-1     :     0.003236
      f+2     :     0.005693
      f-2     :     0.000208
      f+3     :     0.001654
      f-3     :     0.002999

  6 C s       :     0.000918  s :     0.000918
      pz      :     0.002561  p :     0.051136
      px      :     0.052648
      py      :    -0.004073
      dz2     :     0.006526  d :     0.027554
      dxz     :     0.001189
      dyz     :     0.001005
      dx2y2   :     0.007679
      dxy     :     0.011156
      f0      :     0.000176  f :     0.015202
      f+1     :     0.001237
      f-1     :     0.003236
      f+2     :     0.005693
      f-2     :     0.000208
      f+3     :     0.001653
      f-3     :     0.003000

  7 H s       :     0.006443  s :     0.006443
      pz      :     0.000896  p :     0.002904
      px      :     0.001949
      py      :     0.000059
      dz2     :     0.002741  d :     0.004704
      dxz     :    -0.000086
      dyz     :     0.000091
      dx2y2   :     0.001680
      dxy     :     0.000278

  8 H s       :     0.007319  s :     0.007319
      pz      :     0.000445  p :     0.001491
      px      :     0.001327
      py      :    -0.000282
      dz2     :     0.000505  d :     0.004566
      dxz     :     0.003174
      dyz     :    -0.000202
      dx2y2   :     0.000153
      dxy     :     0.000936

  9 O s       :     0.006820  s :     0.006820
      pz      :     0.057352  p :     0.234572
      px      :     0.171165
      py      :     0.006055
      dz2     :     0.003004  d :     0.010197
      dxz     :    -0.000072
      dyz     :    -0.000479
      dx2y2   :     0.009865
      dxy     :    -0.002122
      f0      :     0.000038  f :     0.003938
      f+1     :     0.001057
      f-1     :    -0.000221
      f+2     :     0.002117
      f-2     :    -0.000138
      f+3     :     0.001192
      f-3     :    -0.000108

 10 H s       :     0.006444  s :     0.006444
      pz      :     0.000896  p :     0.002904
      px      :     0.001949
      py      :     0.000059
      dz2     :     0.002741  d :     0.004704
      dxz     :    -0.000086
      dyz     :     0.000091
      dx2y2   :     0.001680
      dxy     :     0.000278

 11 H s       :     0.007318  s :     0.007318
      pz      :     0.000445  p :     0.001491
      px      :     0.001327
      py      :    -0.000282
      dz2     :     0.000505  d :     0.004566
      dxz     :     0.003174
      dyz     :    -0.000202
      dx2y2   :     0.000152
      dxy     :     0.000936

 12 H s       :     0.006444  s :     0.006444
      pz      :     0.000896  p :     0.002904
      px      :     0.001949
      py      :     0.000059
      dz2     :     0.002741  d :     0.004704
      dxz     :    -0.000086
      dyz     :     0.000091
      dx2y2   :     0.001680
      dxy     :     0.000278

 13 H s       :     0.007318  s :     0.007318
      pz      :     0.000445  p :     0.001491
      px      :     0.001327
      py      :    -0.000282
      dz2     :     0.000505  d :     0.004566
      dxz     :     0.003174
      dyz     :    -0.000202
      dx2y2   :     0.000152
      dxy     :     0.000936



                      *****************************
                      * MAYER POPULATION ANALYSIS *
                      *****************************

  NA   - Mulliken gross atomic population
  ZA   - Total nuclear charge
  QA   - Mulliken gross atomic charge
  VA   - Mayer's total valence
  BVA  - Mayer's bonded valence
  FA   - Mayer's free valence

  ATOM       NA         ZA         QA         VA         BVA        FA
  0 C      6.1021     6.0000    -0.1021     3.7845     3.7662     0.0183
  1 C      6.1021     6.0000    -0.1021     3.7846     3.7663     0.0183
  2 H      0.6976     1.0000     0.3024     0.9355     0.9353     0.0002
  3 H      0.7584     1.0000     0.2416     0.9669     0.9668     0.0001
  4 O      8.3839     8.0000    -0.3839     2.2372     2.1536     0.0836
  5 C      6.1021     6.0000    -0.1021     3.7844     3.7661     0.0183
  6 C      6.1021     6.0000    -0.1021     3.7846     3.7663     0.0183
  7 H      0.6977     1.0000     0.3023     0.9356     0.9354     0.0002
  8 H      0.7583     1.0000     0.2417     0.9669     0.9668     0.0001
  9 O      8.3839     8.0000    -0.3839     2.2371     2.1535     0.0836
 10 H      0.6976     1.0000     0.3024     0.9356     0.9354     0.0002
 11 H      0.7583     1.0000     0.2417     0.9669     0.9668     0.0001
 12 H      0.6976     1.0000     0.3024     0.9355     0.9353     0.0002
 13 H      0.7583     1.0000     0.2417     0.9669     0.9668     0.0001

  Mayer bond orders larger than 0.100000
B(  0-C ,  1-C ) :   0.8113 B(  0-C ,  6-C ) :   0.1177 B(  0-C ,  9-O ) :   0.9169 
B(  0-C , 12-H ) :   0.8869 B(  0-C , 13-H ) :   0.9218 B(  1-C ,  2-H ) :   0.8869 
B(  1-C ,  3-H ) :   0.9218 B(  1-C ,  4-O ) :   0.9170 B(  1-C ,  5-C ) :   0.1177 
B(  4-O ,  5-C ) :   0.9170 B(  4-O ,  9-O ) :   0.1308 B(  5-C ,  6-C ) :   0.8113 
B(  5-C , 10-H ) :   0.8869 B(  5-C , 11-H ) :   0.9218 B(  6-C ,  7-H ) :   0.8870 
B(  6-C ,  8-H ) :   0.9218 B(  6-C ,  9-O ) :   0.9170 

-------
TIMINGS
-------

Total SCF time: 0 days 0 hours 3 min 7 sec 

Total time                  ....     187.113 sec
Sum of individual times     ....     186.549 sec  ( 99.7%)

SCF preparation             ....       0.851 sec  (  0.5%)
Fock matrix formation       ....     175.498 sec  ( 93.8%)
  Startup                   ....       1.095 sec  (  0.6% of F)
  Split-RI-J                ....       6.697 sec  (  3.8% of F)
  Chain of spheres X        ....      82.653 sec  ( 47.1% of F)
  XC integration            ....      79.252 sec  ( 45.2% of F)
    XC Preparation          ....       0.000 sec  (  0.0% of XC)
    Basis function eval.    ....       3.800 sec  (  4.8% of XC)
    Density eval.           ....      29.203 sec  ( 36.8% of XC)
    XC-Functional eval.     ....       0.967 sec  (  1.2% of XC)
    XC-Potential eval.      ....      39.966 sec  ( 50.4% of XC)
  CPCM terms                ....       3.184 sec  (  1.8% of F)
Diagonalization             ....       0.000 sec  (  0.0%)
Density matrix formation    ....       2.045 sec  (  1.1%)
Total Energy calculation    ....       0.997 sec  (  0.5%)
Population analysis         ....       0.378 sec  (  0.2%)
Orbital Transformation      ....       0.791 sec  (  0.4%)
Orbital Orthonormalization  ....       0.000 sec  (  0.0%)
DIIS solution               ....       3.975 sec  (  2.1%)
SOSCF solution              ....       2.014 sec  (  1.1%)
Finished LeanSCF after 187.4 sec

Maximum memory used throughout the entire LEANSCF-calculation: 60.9 MB


-------------------------------------------------------------------------------
                          DFT DISPERSION CORRECTION                            
                                                                               
                              DFTD3 V3.1  Rev 1                                
                          USING Becke-Johnson damping                          
-------------------------------------------------------------------------------
The R2SCANh functional is recognized
Active option DFTDOPT                   ...         4   

molecular C6(AA) [au] = 1399.788406 


            DFT-D V3
 parameters
 s6 scaling factor         :     1.0000 
 a1 scaling factor         :     0.4709 
 s8 scaling factor         :     1.1236 
 a2 scaling factor         :     5.9157 
 ad hoc parameters k1-k3   :    16.0000     1.3333    -4.0000 

 Edisp/kcal,au: -1.881040952591  -0.002997629247 
 E6   /kcal   :  -1.396839145 
 E8   /kcal   :  -0.484201807 
 % E8         :  25.741162452 

-------------------------   ----------------
Dispersion correction           -0.002997629
-------------------------   ----------------


-------------------------   --------------------
FINAL SINGLE POINT ENERGY      -307.375788291335
-------------------------   --------------------



           ************************************************************
           *        Program running with 4 parallel MPI-processes     *
           *              working on a common directory               *
           ************************************************************

------------------------------------------------------------------------------
                              ORCA PROPERTY CALCULATIONS
------------------------------------------------------------------------------

GBWName                                 ... cs_rporg_062_ox_solv_04.gbw
Number of atoms                         ...     14
Number of basis functions               ...    496
Max core memory                         ...   3000 MB

Electric properties:
Dipole moment                           ... YES
Quadrupole moment                       ...  NO
Static polarizability (Dipole/Dipole)   ...  NO
Static polarizability (Dipole/Quad.)    ...  NO
Static polarizability (Quad./Quad.)     ...  NO
Static polarizability (Velocity)        ...  NO

Atomic electric properties:
Dipole moment                           ...  NO
Quadrupole moment                       ...  NO
Static polarizability                   ...  NO

Choice of electric origin               ... Center of mass
Position of electric origin             ...    -0.000004     0.000010    -0.000018

General magnetic properties:
Magnetizability                         ...  NO

EPR properties:
g-Tensor (aka g-matrix)                 ...  NO
Zero-Field splitting spin-orbit         ...  NO
Zero-field splitting spin-spin          ...  NO
Hyperfine couplings                     ...  NO (   0 nuclei)
Quadrupole couplings                    ...  NO (   0 nuclei)
Contact density                         ...  NO (   0 nuclei)

NMR properties:
Chemical shifts                         ...  NO (   0 nuclei)
Spin-rotation constants                 ...  NO (   0 nuclei)
Spin-spin couplings                     ...  NO (   0 nuclei,    0 pairs)

Choice of magnetic origin               ... GIAO
Position of magnetic origin             ...     0.000000     0.000000     0.000000

Properties with geometric perturbations:
SCF Hessian                             ...  NO
IR spectrum                             ...  NO
VCD spectrum                            ...  NO
X-ray spectroscopy properties:
SCF XES/XAS/RIXS spectra                ...  NO


-------------
DIPOLE MOMENT
-------------

Method             : SCF
Type of density    : Electron Density
Multiplicity       :   2
Irrep              :   0
Energy             :  -307.3727906620882209 Eh
Relativity type    : 
Basis              : AO
                                X                 Y                 Z
Electronic contribution:     -0.000013713      -0.000004170       0.000022667
Nuclear contribution   :      0.000002668       0.000005347      -0.000029732
                        -----------------------------------------
Total Dipole Moment    :     -0.000011045       0.000001177      -0.000007065
                        -----------------------------------------
Magnitude (a.u.)       :      0.000013164
Magnitude (Debye)      :      0.000033459



--------------------
Rotational spectrum 
--------------------
 
Rotational constants in cm-1:             0.169249             0.162821             0.094443 
Rotational constants in MHz :          5073.947219          4881.263290          2831.336454 

Dipole components along the rotational axes: 
x,y,z [a.u.] :    -0.000011    -0.000001    -0.000007 
x,y,z [Debye]:    -0.000028    -0.000003    -0.000018 

 

Dipole moment calculation done in   0.1 sec 

Maximum memory used throughout the entire PROP-calculation: 33.7 MB

--------------------------------
SUGGESTED CITATIONS FOR THIS RUN
--------------------------------

Below you find a list of papers that are relevant to this ORCA run
We neither can nor want to force you to cite these papers, but we appreciate if you do
You receive ORCA, which is the product of decades of hard work by many enthusiastic individuals, for free
The only thing we kindly ask in return is that you cite our papers,
We deeply appreciate it, if you show your appreciation for ORCA by not just citing the generic ORCA reference.

Please note that relegating all ORCA citations to the supporting information does *not* help us.
SI sections are not indexed - citations you put there will not count into any citation statistics
But we need these citations in order to attract the funding resources that allow us to do what we are doing

Therefore, if you are a happy ORCA user, please consider citing a few of the papers listed below in the main body of your paper

In addition to the list printed below, the program has created the file cs_rporg_062_ox_solv_04.bibtex that contains the list in bibtex format
You can import this file easily into all common literature databanks and citation aid programs


List of essential papers. We consider these as the minimum necessary citations

  1. Neese,F.
     Software update: the ORCA program system, version 5.0
     WIRES Comput. Molec. Sci., 2022 12(1)e1606
     doi.org/10.1002/wcms.1606

List of papers to cite with high priority. The work reported in these papers was absolutely
necessary for this run to complete.
Our perspective: the developers of density functionals and basis sets usually get cited in chemistry papers
Good! But without the algorithms to do something with them, the functionals or basis sets would not do anything.
Hence, in our opinion, the algorithm design and method developments papers are equally worthy of getting cited

  1. Neese,F.
     An improvement of the resolution of the identity approximation for the formation of the Coulomb matrix
     J. Comp. Chem., 2003 24(14)1740-1747
     doi.org/10.1002/jcc.10318
  2. Neese,F.; Wennmohs,F.; Hansen,A.; Becker,U.
     Efficient, approximate and parallel Hartree-Fock and hybrid DFT calculations. A 'chain-of-spheres' algorithm for the Hartree-Fock exchange
     Chem. Phys., 2009 356(1-3)98-109
     doi.org/10.1016/j.chemphys.2008.10.036
  3. Garcia-Rates,M.; Neese,F.
     Effect of the Solute Cavity on the Solvation Energy and its Derivatives within the Framework of the Gaussian Charge Scheme
     J. Comput. Chem., 2020 41 922-939
     doi.org/10.1002/jcc.26139
  4. Helmich-Paris,B.; de Souza,B.; Neese,F.; Izsák,R.
     An improved chain of spheres for exchange algorithm
     J. Chem. Phys., 2021 155 104109
     doi.org/doi: 10.1063/5.0058766.
  5. Neese,F.
     The SHARK Integral Generation and Digestion System
     J. Comp. Chem., 2022  1-16
     doi.org/10.1002/jcc.26942
  6. Lehtola,S.; Steigemann,C.; Oliveira,M.; Marques,M.
     Recent developments in Libxc - A comprehensive library of functionals for density functional theory
     Software X, 2018 7 
     doi.org/10.1016/j.softx.2017.11.002
  7. Grimme,S.; Antony,J.; Ehrlich,S.; Krieg,H.
     A consistent and accurate ab initio parametrization of density functional dispersion correction (DFT-D) for the 94 elements H-Pu
     J. Chem. Phys., 2010 132 154104-XXXX
     doi.org/10.1063/1.3382344
  8. Grimme,S.; Ehrlich,S.; Goerigk,L.
     Effect of the damping function in dispersion corrected density functional theory
     J. Comput. Chem., 2011 32(7)1456-1465
     doi.org/10.1002/jcc.21759
  9. Bursch,M.; Neugebauer,H.; Ehlert,S.; Grimme,S.
     Dispersion corrected r2SCAN based global hybrid functionals: r2SCANh, r2SCAN0, and r2SCAN50
     J. Phys. Chem., 2022 156(13)134105
     doi.org/10.1063/5.0086040

List of suggested additional citations. These are papers that are important in the 'surrounding' of 
of this run, or papers that preceded the highly important papers. If you like your results we are grateful for a citation.

  1. Izsak,R.; Neese,F.
     An overlap fitted chain of spheres exchange method
     J. Chem. Phys., 2011 135 144105
     doi.org/10.1063/1.3646921
  2. Izsak,R.; Hansen,A.; Neese,F.
     The resolution of identity and chain of spheres approximations for the LPNO-CCSD singles Fock term
     Molec. Phys., 2012 110 2413-2417
     doi.org/10.1080/00268976.2012.687466
  3. Neese,F.
     The ORCA program system
     WIRES Comput. Molec. Sci., 2012 2(1)73-78
     doi.org/10.1002/wcms.81
  4. Izsak,R.; Neese,F.; Klopper,W.
     Robust fitting techniques in the chain of spheres approximation to the Fock exchange: The role of the complementary space
     J. Chem. Phys., 2013 139 
     doi.org/10.1063/1.4819264
  5. Neese,F.
     Software update: the ORCA program system, version 4.0
     WIRES Comput. Molec. Sci., 2018 8(1)1-6
     doi.org/10.1002/wcms.1327
  6. Neese,F.; Wennmohs,F.; Becker,U.; Riplinger,C.
     The ORCA quantum chemistry program package
     J. Chem. Phys., 2020 152 Art. No. L224108
     doi.org/10.1063/5.0004608
  7. Wittmann,L.; Neugebauer,H.; Grimme,S.; Bursch,M.
     Dispersion-corrected r2SCAN based double-hybrid functionals
     J. Chem. Phys., 2023 159(22)224103
     doi.org/10.1063/5.0174988

List of optional additional citations

  1. Neese,F.
     Approximate second-order SCF convergence for spin unrestricted wavefunctions
     Chem. Phys. Lett., 2000 325(1-3)93-98
     doi.org/10.1016/s0009-2614(00)00662-x

Timings for individual modules:

Sum of individual times          ...      202.310 sec (=   3.372 min)
Startup calculation              ...        8.467 sec (=   0.141 min)   4.2 %
SCF iterations                   ...      192.084 sec (=   3.201 min)  94.9 %
Property calculations            ...        1.759 sec (=   0.029 min)   0.9 %
                             ****ORCA TERMINATED NORMALLY****
TOTAL RUN TIME: 0 days 0 hours 3 minutes 26 seconds 265 msec
