
                                 *****************
                                 * O   R   C   A *
                                 *****************

                                            #,                                       
                                            ###                                      
                                            ####                                     
                                            #####                                    
                                            ######                                   
                                           ########,                                 
                                     ,,################,,,,,                         
                               ,,#################################,,                 
                          ,,##########################################,,             
                       ,#########################################, ''#####,          
                    ,#############################################,,   '####,        
                  ,##################################################,,,,####,       
                ,###########''''           ''''###############################       
              ,#####''   ,,,,##########,,,,          '''####'''          '####       
            ,##' ,,,,###########################,,,                        '##       
           ' ,,###''''                  '''############,,,                           
         ,,##''                                '''############,,,,        ,,,,,,###''
      ,#''                                            '''#######################'''  
     '                                                          ''''####''''         
             ,#######,   #######,   ,#######,      ##                                
            ,#'     '#,  ##    ##  ,#'     '#,    #''#        ,####,   ,####,        
            ##       ##  ##   ,#'  ##            #'  '#       #'       #'  '#        
            ##       ##  #######   ##           ,######,      #####,   #    #        
            '#,     ,#'  ##    ##  '#,     ,#' ,#      #,     #,   #   #,  ,#        
             '#######'   ##     ##  '#######'  #'      '#     '####' # '####'        



                #########################################################
                #                        -***-                          #
                #          Department of theory and spectroscopy        #
                #                                                       #
                #                      Frank Neese                      #
                #                                                       #
                #     Directorship, Architecture, Infrastructure        #
                #                    SHARK, DRIVERS                     #
                #        Core code/Algorithms in most modules           #
                #                                                       #
                #        Max Planck Institute fuer Kohlenforschung      #
                #                Kaiser Wilhelm Platz 1                 #
                #                 D-45470 Muelheim/Ruhr                 #
                #                      Germany                          #
                #                                                       #
                #                  All rights reserved                  #
                #                        -***-                          #
                #########################################################


                         Program Version 6.0.0  -   RELEASE  -


 With contributions from (in alphabetic order):
   Daniel Aravena         : Magnetic Suceptibility
   Michael Atanasov       : Ab Initio Ligand Field Theory (pilot matlab implementation)
   Alexander A. Auer      : GIAO ZORA, VPT2 properties, NMR spectrum
   Ute Becker             : All parallelization in ORCA, NUMFREQ, NUMCALC
   Giovanni Bistoni       : ED, misc. LED, open-shell LED, HFLD
   Martin Brehm           : Molecular dynamics
   Dmytro Bykov           : pre 5.0 version of the SCF Hessian
   Marcos Casanova-Páez   : Triplet and SCS-CIS(D). UHF-(DLPNO)-IP/EA/STEOM-CCSD. UHF-CVS-IP/STEOM-CCSD
   Vijay G. Chilkuri      : MRCI spin determinant printing, contributions to CSF-ICE
   Pauline Colinet        : FMM embedding
   Dipayan Datta          : RHF DLPNO-CCSD density
   Achintya Kumar Dutta   : EOM-CC, STEOM-CC
   Nicolas Foglia         : Exact transition moments, OPA infrastructure, MCD improvements
   Dmitry Ganyushin       : Spin-Orbit,Spin-Spin,Magnetic field MRCI
   Miquel Garcia          : C-PCM and meta-GGA Hessian, CCSD/C-PCM, Gaussian charge scheme
   Tiago L. C. Gouveia    : GS-ROHF, GS-ROCIS
   Yang Guo               : DLPNO-NEVPT2, F12-NEVPT2, CIM, IAO-localization
   Andreas Hansen         : Spin unrestricted coupled pair/coupled cluster methods
   Ingolf Harden          : AUTO-CI MPn and infrastructure 
   Benjamin Helmich-Paris : MC-RPA, TRAH-(SCF,CASSCF), AVAS, COSX integrals, SCF dyn. polar.
   Lee Huntington         : MR-EOM, pCC
   Robert Izsak           : Overlap fitted RIJCOSX, COSX-SCS-MP3, EOM
   Riya Kayal             : Wick's Theorem for AUTO-CI, AUTO-CI UHF-CCSDT
   Emily Kempfer          : AUTO-CI, RHF CISDT and CCSDT
   Christian Kollmar      : KDIIS, OOCD, Brueckner-CCSD(T), CCSD density, CASPT2, CASPT2-K, improved NEVPT2
   Axel Koslowski         : Symmetry handling
   Simone Kossmann        : Meta GGA functionals, TD-DFT gradient, OOMP2, (MP2 Hessian; deprecated post 5.0)
   Lucas Lang             : DCDCAS
   Marvin Lechner         : AUTO-CI (C++ implementation), FIC-MRCC
   Spencer Leger          : CASSCF response
   Dagmar Lenk            : GEPOL surface, SMD, ORCA-2-JSON
   Dimitrios Liakos       : Extrapolation schemes; Compound Job, initial MDCI parallelization
   Dimitrios Manganas     : Further ROCIS development; embedding schemes. LFT, Crystal Embedding
   Dimitrios Pantazis     : SARC Basis sets
   Anastasios Papadopoulos: AUTO-CI, single reference methods and gradients
   Taras Petrenko         : pre 6.0 DFT Hessian and TD-DFT gradient, (ASA, deprecated), ECA, 1-Electron XAS/XES, NRVS
   Peter Pinski           : DLPNO-MP2, DLPNO-MP2 Gradient
   Christoph Reimann      : Effective Core Potentials
   Marius Retegan         : Local ZFS, SOC
   Christoph Riplinger    : Optimizer, TS searches, QM/MM, DLPNO-CCSD(T), (RO)-DLPNO pert. Triples
   Michael Roemelt        : Original ROCIS implementation
   Masaaki Saitow         : Open-shell DLPNO-CCSD energy and density
   Barbara Sandhoefer     : DKH picture change effects
   Kantharuban Sivalingam : CASSCF convergence/infrastructure, NEVPT2 and variants, FIC-MRCI
   Bernardo de Souza      : ESD, SOC TD-DFT
   Georgi Stoychev        : AutoAux, RI-MP2 NMR, DLPNO-MP2 response, X2C
   Van Anh Tran           : RI-MP2 g-tensors
   Willem Van den Heuvel  : Paramagnetic NMR
   Zikuan Wang            : NOTCH, Electric field optimization 
   Frank Wennmohs         : Technical directorship and infrastructure
   Hang Xu                : AUTO-CI-Response properties 


 We gratefully acknowledge several colleagues who have allowed us to
 interface, adapt or use parts of their codes:
   Stefan Grimme, W. Hujo, H. Kruse, P. Pracht,  : VdW corrections, initial TS optimization,
                  C. Bannwarth, S. Ehlert,         DFT functionals, gCP, sTDA/sTD-DF
                  L. Wittmann, M. Mueller
   Ed Valeev, F. Pavosevic, A. Kumar             : LibInt (2-el integral package), F12 methods
   Garnet Chan, S. Sharma, J. Yang, R. Olivares  : DMRG
   Ulf Ekstrom                                   : XCFun DFT Library
   Mihaly Kallay                                 : mrcc  (arbitrary order and MRCC methods)
   Frank Weinhold                                : gennbo (NPA and NBO analysis)
   Simon Mueller                                 : openCOSMO-RS
   Christopher J. Cramer and Donald G. Truhlar   : smd solvation model
   Lars Goerigk                                  : TD-DFT with DH, B97 family of functionals
   V. Asgeirsson, H. Jonsson                     : NEB implementation
   FAccTs GmbH                                   : IRC, NEB, NEB-TS, DLPNO-Multilevel, CI-OPT
                                                   MM, QMMM, 2- and 3-layer-ONIOM, Crystal-QMMM,
                                                   LR-CPCM, SF, NACMEs, symmetry and pop. for TD-DFT,
                                                   nearIR, NL-DFT gradient (VV10), updates on ESD,
                                                   ML-optimized integration grids, MBIS, APM,
                                                   GOAT, DOCKER, SOLVATOR, interface openCOSMO-RS
   S Lehtola, MJT Oliveira, MAL Marques          : LibXC Library
   Liviu Ungur et al                             : ANISO software


 Your calculation uses the libint2 library for the computation of 2-el integrals
 For citations please refer to: http://libint.valeyev.net

 Your ORCA version has been built with support for libXC version: 6.2.2
 For citations please refer to: https://libxc.gitlab.io

 This ORCA versions uses:
   CBLAS   interface :  Fast vector & matrix operations
   LAPACKE interface :  Fast linear algebra routines
   SCALAPACK package :  Parallel linear algebra routines
   Shared memory     :  Shared parallel matrices
   BLAS/LAPACK       :  OpenBLAS 0.3.27  USE64BITINT DYNAMIC_ARCH NO_AFFINITY Sandybridge SINGLE_THREADED
        Core in use  :  Sandybridge
   Copyright (c) 2011-2014, The OpenBLAS Project


NOTE: MaxCore=5000 MB was set to SCF,MP2,MDCI,CIPSI,MRCI and CIS
      => If you want to overwrite this, your respective input block should be placed after the MaxCore statement
Your calculation utilizes the atom-pairwise dispersion correction
with the Becke-Johnson damping scheme (D3BJ)


Your calculation utilizes the SMD solvation module
Please cite in your paper:
A.V. Marenich, C.J. Cramer, D.G. Truhlar J. Phys. Chem. B, 113, (2009), 6378 

Warning: RI is on but no J-basis has been assigned. Assigning Def2/J (nothing to worry about!)
================================================================================

----- Orbital basis set information -----
Your calculation utilizes the basis: aug-cc-pVTZ 
    H, B-Ne : Obtained from the ccRepo (grant-hill.group.shef.ac.uk/ccrepo) Feb. 2017
              R. A. Kendall, T. H. Dunning, Jr., R. J. Harrison, J. Chem. Phys. 96, 6796 (1992)
         He : Obtained from the ccRepo (grant-hill.group.shef.ac.uk/ccrepo) Feb. 2017
              D. E. Woon, T. H. Dunning, Jr., J. Chem. Phys. 100, 2975 (1994)
  Li-Be, Na : Obtained from the ccRepo (grant-hill.group.shef.ac.uk/ccrepo) Feb. 2017
              B. P. Prascher, D. E. Woon, K. A. Peterson, T. H. Dunning, Jr., A. K. Wilson, Theor. Chem. Acc. 128, 69 (2011)
         Mg : Obtained from the Peterson Research Group Website (tyr0.chem.wsu.edu/~kipeters) Feb. 2017
              B. P. Prascher, D. E. Woon, K. A. Peterson, T. H. Dunning, Jr., A. K. Wilson, Theor. Chem. Acc. 128, 69 (2011)
      Al-Ar : Obtained from the ccRepo (grant-hill.group.shef.ac.uk/ccrepo) Feb. 2017
              D. E. Woon, T. H. Dunning, Jr., J. Chem. Phys. 98, 1358 (1993)
      Sc-Zn : Obtained from the ccRepo (grant-hill.group.shef.ac.uk/ccrepo) Feb. 2017
              N. B. Balabanov, K. A. Peterson, J. Chem. Phys. 123, 064107 (2005)
              N. B. Balabanov, K. A. Peterson, J. Chem. Phys. 125, 074110 (2006)
      Ga-Kr : Obtained from the ccRepo (grant-hill.group.shef.ac.uk/ccrepo) Feb. 2017
              A. K. Wilson, D. E. Woon, K. A. Peterson, T. H. Dunning, Jr., J. Chem. Phys. 110, 7667 (1999)
     Ag, Au : Obtained from the Peterson Research Group Website (tyr0.chem.wsu.edu/~kipeters) Feb. 2017
              K. A. Peterson, C. Puzzarini, Theor. Chem. Acc. 114, 283 (2005)

----- AuxJ basis set information -----
Your calculation utilizes the auxiliary basis: def2/J
   F. Weigend, Phys. Chem. Chem. Phys. 8, 1057 (2006).

================================================================================
                                        WARNINGS
                       Please study these warnings very carefully!
================================================================================

Using LibXC functional ID 497 : Re-regularized SCAN exchange by Furness et al
[ 1]  J. W. Furness, A. D. Kaplan, J. Ning, J. P. Perdew, and J. Sun.,  J. Phys. Chem. Lett. 11, 8208-8215 (2020)
[ 2]  J. W. Furness, A. D. Kaplan, J. Ning, J. P. Perdew, and J. Sun.,  J. Phys. Chem. Lett. 11, 9248-9248 (2020)
Using LibXC functional ID 498 : Re-regularized SCAN correlation by Furness et al
[ 1]  J. W. Furness, A. D. Kaplan, J. Ning, J. P. Perdew, and J. Sun.,  J. Phys. Chem. Lett. 11, 8208-8215 (2020)
[ 2]  J. W. Furness, A. D. Kaplan, J. Ning, J. P. Perdew, and J. Sun.,  J. Phys. Chem. Lett. 11, 9248-9248 (2020)
Using LibXC functional ID 497 : Re-regularized SCAN exchange by Furness et al
[ 1]  J. W. Furness, A. D. Kaplan, J. Ning, J. P. Perdew, and J. Sun.,  J. Phys. Chem. Lett. 11, 8208-8215 (2020)
[ 2]  J. W. Furness, A. D. Kaplan, J. Ning, J. P. Perdew, and J. Sun.,  J. Phys. Chem. Lett. 11, 9248-9248 (2020)
Using LibXC functional ID 498 : Re-regularized SCAN correlation by Furness et al
[ 1]  J. W. Furness, A. D. Kaplan, J. Ning, J. P. Perdew, and J. Sun.,  J. Phys. Chem. Lett. 11, 8208-8215 (2020)
[ 2]  J. W. Furness, A. D. Kaplan, J. Ning, J. P. Perdew, and J. Sun.,  J. Phys. Chem. Lett. 11, 9248-9248 (2020)


WARNING: Found flag for RIJCOSX approximation but no HF exchange needed!
  ===> : RIJCOSX  will be disabled and Split-RI-J is turned on

WARNING: your system is open-shell and RHF/RKS was chosen
  ===> : WILL SWITCH to UHF/UKS


================================================================================
                                       INPUT FILE
================================================================================
NAME = cs_rporg_018_ox_freq_06.inp
|  1> !r2SCAN freq aug-cc-pVTZ d3 TightSCF SlowConv RIJCOSX defgrid2
|  2> 
|  3> %pal
|  4> nprocs 12
|  5> end
|  6> 
|  7> %scf
|  8> MaxIter 1500
|  9> end
| 10> 
| 11> %maxcore 5000
| 12> 
| 13> !CPCM
| 14> %cpcm smd true
| 15> SMDsolvent "MeCN"
| 16> surfacetype gepol_ses
| 17> rsolv 2.19
| 18> end 
| 19> 
| 20> * xyz 1 2
| 21> C          -0.33502604020477      0.86596500743041      0.00238792061257
| 22> C          -1.60442131447860      0.30064992631910      0.00126441964574
| 23> C          -1.76200796855091     -1.11827896847971      0.00079654672321
| 24> C          -0.64038301762893     -1.93289315778860      0.00364631314182
| 25> C           0.62475393813690     -1.37752400468035      0.00526246798572
| 26> C           0.79410266859926      0.05133512988904      0.00334045151751
| 27> C           2.08914737369558      0.65234205202298      0.00288314744393
| 28> C           3.27697525447128     -0.01853490946842     -0.00253206271997
| 29> C           4.58753258604505      0.64287932328811     -0.00268224412111
| 30> H           5.16655745865907      0.31658151262325     -0.87494947833210
| 31> H           5.17126062701009      0.30583025304081      0.86230998969000
| 32> H           4.51484426479553      1.72891064783402      0.00404980163594
| 33> H           3.28747070615542     -1.10344945386112     -0.00799200816756
| 34> H           2.11408063486498      1.73822985187215      0.00541167838628
| 35> H           1.48882221941777     -2.02605229698285      0.00865411762678
| 36> H          -0.76160937273496     -3.00765871447167      0.00456273471046
| 37> H          -2.74921881286394     -1.55754388325502     -0.00292173421231
| 38> O          -2.63244966971839      1.14098964310180      0.00061260065395
| 39> C          -3.97858047646539      0.62095000947966     -0.00288900378536
| 40> H          -4.61858737899174      1.49754498967943     -0.00104102640870
| 41> H          -4.15623522130798      0.02540031020898      0.89217240355534
| 42> H          -4.15299476149735      0.03152554012033     -0.90256186431195
| 43> H          -0.23687109740796      1.94413519207768      0.00145072872981
| 44> *
| 45> 
| 46>                          ****END OF INPUT****
================================================================================

                       ****************************
                       * Single Point Calculation *
                       ****************************

---------------------------------
CARTESIAN COORDINATES (ANGSTROEM)
---------------------------------
  C     -0.335026    0.865965    0.002388
  C     -1.604421    0.300650    0.001264
  C     -1.762008   -1.118279    0.000797
  C     -0.640383   -1.932893    0.003646
  C      0.624754   -1.377524    0.005262
  C      0.794103    0.051335    0.003340
  C      2.089147    0.652342    0.002883
  C      3.276975   -0.018535   -0.002532
  C      4.587533    0.642879   -0.002682
  H      5.166557    0.316582   -0.874949
  H      5.171261    0.305830    0.862310
  H      4.514844    1.728911    0.004050
  H      3.287471   -1.103449   -0.007992
  H      2.114081    1.738230    0.005412
  H      1.488822   -2.026052    0.008654
  H     -0.761609   -3.007659    0.004563
  H     -2.749219   -1.557544   -0.002922
  O     -2.632450    1.140990    0.000613
  C     -3.978580    0.620950   -0.002889
  H     -4.618587    1.497545   -0.001041
  H     -4.156235    0.025400    0.892172
  H     -4.152995    0.031526   -0.902562
  H     -0.236871    1.944135    0.001451

----------------------------
CARTESIAN COORDINATES (A.U.)
----------------------------
  NO LB      ZA    FRAG     MASS         X           Y           Z
   0 C     6.0000    0    12.011   -0.633107    1.636437    0.004513
   1 C     6.0000    0    12.011   -3.031917    0.568146    0.002389
   2 C     6.0000    0    12.011   -3.329713   -2.113241    0.001505
   3 C     6.0000    0    12.011   -1.210149   -3.652639    0.006891
   4 C     6.0000    0    12.011    1.180614   -2.603143    0.009945
   5 C     6.0000    0    12.011    1.500637    0.097009    0.006313
   6 C     6.0000    0    12.011    3.947916    1.232748    0.005448
   7 C     6.0000    0    12.011    6.192586   -0.035026   -0.004785
   8 C     6.0000    0    12.011    8.669180    1.214866   -0.005069
   9 H     1.0000    0     1.008    9.763379    0.598252   -1.653415
  10 H     1.0000    0     1.008    9.772266    0.577935    1.629530
  11 H     1.0000    0     1.008    8.531819    3.267168    0.007653
  12 H     1.0000    0     1.008    6.212419   -2.085217   -0.015103
  13 H     1.0000    0     1.008    3.995033    3.284778    0.010227
  14 H     1.0000    0     1.008    2.813466   -3.828684    0.016354
  15 H     1.0000    0     1.008   -1.439233   -5.683651    0.008622
  16 H     1.0000    0     1.008   -5.195271   -2.943331   -0.005521
  17 O     8.0000    0    15.999   -4.974609    2.156158    0.001158
  18 C     6.0000    0    12.011   -7.518428    1.173425   -0.005459
  19 H     1.0000    0     1.008   -8.727865    2.829950   -0.001967
  20 H     1.0000    0     1.008   -7.854146    0.048000    1.685962
  21 H     1.0000    0     1.008   -7.848023    0.059575   -1.705595
  22 H     1.0000    0     1.008   -0.447622    3.673883    0.002741

--------------------------------
INTERNAL COORDINATES (ANGSTROEM)
--------------------------------
 C      0   0   0     0.000000000000     0.00000000     0.00000000
 C      1   0   0     1.389585105539     0.00000000     0.00000000
 C      2   1   0     1.427652962362   120.34274028     0.00000000
 C      3   2   1     1.386234803027   119.65273738     0.10354006
 C      4   3   2     1.381668927430   120.30940985   359.92011359
 C      1   2   3     1.392319785733   120.18536704     0.00000000
 C      6   1   2     1.427708064619   119.29558016   179.92617258
 C      7   6   1     1.364199507517   125.64713795   180.32196226
 C      8   7   6     1.468001815118   123.76302560   180.00446459
 H      9   8   7     1.096626733318   109.71835310   237.39357961
 H      9   8   7     1.096609349822   109.67300626   122.83012469
 H      9   8   7     1.088481947660   112.94962789     0.11764793
 H      8   7   6     1.084979047791   120.01236386     0.06107319
 H      7   6   1     1.086176953743   116.21038728     0.21294383
 H      5   4   3     1.080376991573   119.40943345   179.92855739
 H      4   3   2     1.081581097668   119.55482120   179.92231872
 H      3   2   1     1.080533545104   120.32412674   180.17474593
 O      2   1   3     1.327785209907   116.73104826   180.00280350
 C     18   2   1     1.443094463521   119.61380264   179.89377507
 H     19  18   2     1.085371369446   105.01044653   179.90839022
 H     19  18   2     1.089667644549   110.30651974    61.29851208
 H     19  18   2     1.089611308619   110.25855235   298.49652586
 H      1   2   3     1.082629307836   119.20713147   179.92263804

---------------------------
INTERNAL COORDINATES (A.U.)
---------------------------
 C      0   0   0     0.000000000000     0.00000000     0.00000000
 C      1   0   0     2.625935289244     0.00000000     0.00000000
 C      2   1   0     2.697873113146   120.34274028     0.00000000
 C      3   2   1     2.619604135031   119.65273738     0.10354006
 C      4   3   2     2.610975880591   120.30940985   359.92011359
 C      1   2   3     2.631103085875   120.18536704     0.00000000
 C      6   1   2     2.697977241321   119.29558016   179.92617258
 C      7   6   1     2.577963461237   125.64713795   180.32196226
 C      8   7   6     2.774121394672   123.76302560   180.00446459
 H      9   8   7     2.072324197108   109.71835310   237.39357961
 H      9   8   7     2.072291347061   109.67300626   122.83012469
 H      9   8   7     2.056932782794   112.94962789     0.11764793
 H      8   7   6     2.050313261367   120.01236386     0.06107319
 H      7   6   1     2.052576975551   116.21038728     0.21294383
 H      5   4   3     2.041616635462   119.40943345   179.92855739
 H      4   3   2     2.043892066219   119.55482120   179.92231872
 H      3   2   1     2.041912478762   120.32412674   180.17474593
 O      2   1   3     2.509150411395   116.73104826   180.00280350
 C     18   2   1     2.727053321433   119.61380264   179.89377507
 H     19  18   2     2.051054641852   105.01044653   179.90839022
 H     19  18   2     2.059173425193   110.30651974    61.29851208
 H     19  18   2     2.059066965714   110.25855235   298.49652586
 H      1   2   3     2.045872896368   119.20713147   179.92263804

---------------------
BASIS SET INFORMATION
---------------------
There are 3 groups of distinct atoms

 Group   1 Type C   : 19s6p3d2f contracted to 5s4p3d2f pattern {88111/3111/111/11}
 Group   2 Type H   : 6s3p2d contracted to 4s3p2d pattern {3111/111/11}
 Group   3 Type O   : 19s6p3d2f contracted to 5s4p3d2f pattern {88111/3111/111/11}

Atom   0C    basis set group =>   1
Atom   1C    basis set group =>   1
Atom   2C    basis set group =>   1
Atom   3C    basis set group =>   1
Atom   4C    basis set group =>   1
Atom   5C    basis set group =>   1
Atom   6C    basis set group =>   1
Atom   7C    basis set group =>   1
Atom   8C    basis set group =>   1
Atom   9H    basis set group =>   2
Atom  10H    basis set group =>   2
Atom  11H    basis set group =>   2
Atom  12H    basis set group =>   2
Atom  13H    basis set group =>   2
Atom  14H    basis set group =>   2
Atom  15H    basis set group =>   2
Atom  16H    basis set group =>   2
Atom  17O    basis set group =>   3
Atom  18C    basis set group =>   1
Atom  19H    basis set group =>   2
Atom  20H    basis set group =>   2
Atom  21H    basis set group =>   2
Atom  22H    basis set group =>   2
---------------------------------
AUXILIARY/J BASIS SET INFORMATION
---------------------------------
There are 3 groups of distinct atoms

 Group   1 Type C   : 12s5p4d2f1g contracted to 6s4p3d1f1g pattern {711111/2111/211/2/1}
 Group   2 Type H   : 5s2p1d contracted to 3s1p1d pattern {311/2/1}
 Group   3 Type O   : 12s5p4d2f1g contracted to 6s4p3d1f1g pattern {711111/2111/211/2/1}

Atom   0C    basis set group =>   1
Atom   1C    basis set group =>   1
Atom   2C    basis set group =>   1
Atom   3C    basis set group =>   1
Atom   4C    basis set group =>   1
Atom   5C    basis set group =>   1
Atom   6C    basis set group =>   1
Atom   7C    basis set group =>   1
Atom   8C    basis set group =>   1
Atom   9H    basis set group =>   2
Atom  10H    basis set group =>   2
Atom  11H    basis set group =>   2
Atom  12H    basis set group =>   2
Atom  13H    basis set group =>   2
Atom  14H    basis set group =>   2
Atom  15H    basis set group =>   2
Atom  16H    basis set group =>   2
Atom  17O    basis set group =>   3
Atom  18C    basis set group =>   1
Atom  19H    basis set group =>   2
Atom  20H    basis set group =>   2
Atom  21H    basis set group =>   2
Atom  22H    basis set group =>   2


           ************************************************************
           *        Program running with 12 parallel MPI-processes    *
           *              working on a common directory               *
           ************************************************************
------------------------------------------------------------------------------
                             ORCA STARTUP CALCULATIONS
                           -- RI-GTO INTEGRALS CHOSEN --
------------------------------------------------------------------------------
------------------------------------------------------------------------------
                   ___                                                        
                  /   \      - P O W E R E D   B Y -                         
                 /     \                                                     
                 |  |  |   _    _      __       _____    __    __             
                 |  |  |  | |  | |    /  \     |  _  \  |  |  /  |          
                  \  \/   | |  | |   /    \    | | | |  |  | /  /          
                 / \  \   | |__| |  /  /\  \   | |_| |  |  |/  /          
                |  |  |   |  __  | /  /__\  \  |    /   |      \           
                |  |  |   | |  | | |   __   |  |    \   |  |\   \          
                \     /   | |  | | |  |  |  |  | |\  \  |  | \   \       
                 \___/    |_|  |_| |__|  |__|  |_| \__\ |__|  \__/        
                                                                              
                      - O R C A' S   B I G   F R I E N D -                    
                                      &                                       
                       - I N T E G R A L  F E E D E R -                       
                                                                              
 v1 FN, 2020, v2 2021, v3 2022-2024                                           
------------------------------------------------------------------------------


----------------------
SHARK INTEGRAL PACKAGE
----------------------

Number of atoms                             ...     23
Number of basis functions                   ...    848
Number of shells                            ...    328
Maximum angular momentum                    ...      3
Integral batch strategy                     ... SHARK/LIBINT Hybrid
RI-J (if used) integral strategy            ... SPLIT-RIJ (Revised 2003 algorithm where possible)
Printlevel                                  ...      1
Contraction scheme used                     ... PARTIAL GENERAL contraction
Prescreening option                         ... SCHWARTZ
   Thresh                                   ... 2.500e-11
   Tcut                                     ... 2.500e-12
   Tpresel                                  ... 2.500e-12 
Coulomb Range Separation                    ... NOT USED
Exchange Range Separation                   ... NOT USED
Multipole approximations                    ... NOT USED
Finite Nucleus Model                        ... NOT USED
CABS basis                                  ... NOT available
Auxiliary Coulomb fitting basis             ... AVAILABLE
   # of basis functions in Aux-J            ...    671
   # of shells in Aux-J                     ...    225
   Maximum angular momentum in Aux-J        ...      4
Auxiliary J/K fitting basis                 ... NOT available
Auxiliary Correlation fitting basis         ... NOT available
Auxiliary 'external' fitting basis          ... NOT available

Checking pre-screening integrals            ... done (  0.1 sec) Dimension = 328
Save PGC pre-screening integrals            ... done (  0.1 sec) Dimension = 328
Calculate PGC overlap integrals             ... done (  0.2 sec) Dimension = 262
Calculating pre-screening integrals (ORCA)  ... done (  0.3 sec) Dimension = 262
Check shell pair data                       ... done (  0.1 sec)
Shell pair information
Shell pair cut-off parameter TPreSel        ...   2.5e-12
Total number of shell pairs                 ...     53956
Shell pairs after pre-screening             ...     42290
Total number of primitive shell pairs       ...     70194
Primitive shell pairs kept                  ...     50478
          la=0 lb=0:   9594 shell pairs
          la=1 lb=0:  10923 shell pairs
          la=1 lb=1:   2875 shell pairs
          la=2 lb=0:   7569 shell pairs
          la=2 lb=1:   3945 shell pairs
          la=2 lb=2:   1403 shell pairs
          la=3 lb=0:   3060 shell pairs
          la=3 lb=1:   1579 shell pairs
          la=3 lb=2:   1106 shell pairs
          la=3 lb=3:    236 shell pairs

Calculating one electron integrals          ... done (  0.1 sec)
Calculating RI/J V-Matrix + Cholesky decomp.... done (  0.1 sec)
Calculating Nuclear repulsion               ... done (  0.0 sec) ENN=    559.684556510793 Eh

Diagonalization of the overlap matrix:
Smallest eigenvalue                        ... 4.206e-07
Time for diagonalization                   ...    0.215 sec
Threshold for overlap eigenvalues          ... 1.000e-07
Number of eigenvalues below threshold      ... 0

IMPORTANT:
Smallest eigenvalue of S below the DiffSThresh (1.000e-06) while
Thresh>1e-12 and/or TCut>1e-13! In order to avoid SCF convergence issues,
Thresh will be set to at least 1e-12 and TCut to at least 1e-13.
This can be turned off by adding %SCF DiffSThresh -1 END to the input.

Time for construction of square roots      ...    0.150 sec
Total time needed                          ...    0.443 sec

-------------------
DFT GRID GENERATION
-------------------

General Integration Accuracy     IntAcc      ... 4.388
Radial Grid Type                 RadialGrid  ... OptM3 with GC (2021)
Angular Grid (max. ang.)         AngularGrid ... 4 (Lebedev-302)
Angular grid pruning method      GridPruning ... 4 (adaptive)
Weight generation scheme         WeightScheme... mBecke (2022)
Basis function cutoff            BFCut       ... 1.0000e-11
Integration weight cutoff        WCut        ... 1.0000e-14
Partially contracted basis set               ... off
Rotationally invariant grid construction     ... off
Angular grids for H and He will be reduced by one unit
Diffuse basis detected: some atoms will have their outermost
                        angular grid increased by 1.

Total number of grid points                  ...   109622
Total number of batches                      ...     1725
Average number of points per batch           ...       63
Average number of grid points per atom       ...     4766

---------------------
SHARK GRID GENERATION
---------------------

General Integration Accuracy     IntAcc      ... 4.388
Radial Grid Type                 RadialGrid  ... OptM3 with GC (2021)
Angular Grid (max. ang.)         AngularGrid ... 4 (Lebedev-302)
Angular grid pruning method      GridPruning ... 4 (adaptive)
Weight generation scheme         WeightScheme... mBecke (2022)
Basis function cutoff            BFCut       ... 1.0000e-11
Integration weight cutoff        WCut        ... 1.0000e-14
Partially contracted basis set               ... off
Rotationally invariant grid construction     ... off
Angular grids for H and He will be reduced by one unit
Diffuse basis detected: some atoms will have their outermost
                        angular grid increased by 1.
Steep s-basis detected: some atoms will have their radial
                        grid points doubled.

Total number of grid points                  ...   178824
Total number of batches                      ...     2807
Average number of points per batch           ...       63
Average number of grid points per atom       ...     7775
Initializing property integral containers    ... done (  0.2 sec)

SHARK setup successfully completed in   6.5 seconds

Maximum memory used throughout the entire STARTUP-calculation: 85.2 MB


           ************************************************************
           *        Program running with 12 parallel MPI-processes    *
           *              working on a common directory               *
           ************************************************************
-------------------------------------------------------------------------------
                                 ORCA GUESS
                   Start orbitals & Density for SCF / CASSCF
-------------------------------------------------------------------------------

------------
SCF SETTINGS
------------
Hamiltonian:
 Density Functional     Method          .... DFT(GTOs)
  Functional kind                       .... Exchange
  Functional name                       .... Re-regularized SCAN exchange by Furness et al
  Functional family                     .... MGGA
  Functional refs                              
    [ 0] J. W. Furness, A. D. Kaplan, J. Ning, J. P. Perdew, and J. Sun.,  J. Phys. Chem. Lett. 11, 8208-8215 (2020), doi: 10.1021/acs.jpclett.0c02405
    [ 1] J. W. Furness, A. D. Kaplan, J. Ning, J. P. Perdew, and J. Sun.,  J. Phys. Chem. Lett. 11, 9248-9248 (2020), doi: 10.1021/acs.jpclett.0c03077
  Functional external parameters        .... 6
    Parameter  0 _c1        =  6.670000e-01 : c1 parameter        
    Parameter  1 _c2        =  8.000000e-01 : c2 parameter        
    Parameter  2 _d         =  1.240000e+00 : d parameter         
    Parameter  3 _k1        =  6.500000e-02 : k1 parameter        
    Parameter  4 _eta       =  1.000000e-03 : eta parameter       
    Parameter  5 _dp2       =  3.610000e-01 : dp2 parameter       
  Functional kind                       .... Correlation
  Functional name                       .... Re-regularized SCAN correlation by Furness et al
  Functional family                     .... MGGA
  Functional refs                              
    [ 0] J. W. Furness, A. D. Kaplan, J. Ning, J. P. Perdew, and J. Sun.,  J. Phys. Chem. Lett. 11, 8208-8215 (2020), doi: 10.1021/acs.jpclett.0c02405
    [ 1] J. W. Furness, A. D. Kaplan, J. Ning, J. P. Perdew, and J. Sun.,  J. Phys. Chem. Lett. 11, 9248-9248 (2020), doi: 10.1021/acs.jpclett.0c03077
  Functional external parameters        .... 1
    Parameter  0 _eta       =  1.000000e-03 : Regularization parameter
 Gradients option       PostSCFGGA      .... off
   NL short-range parameter             .... 12.300000
 RI-approximation to the Coulomb term is turned on
   Number of AuxJ basis functions       .... 671


General Settings:
 Integral files         IntName         .... cs_rporg_018_ox_freq_06
 Hartree-Fock type      HFTyp           .... UHF
 Total Charge           Charge          ....    1
 Multiplicity           Mult            ....    2
 Number of Electrons    NEL             ....   79
 Basis Dimension        Dim             ....  782
 Nuclear Repulsion      ENuc            ....    559.6845565108 Eh

Convergence Acceleration:
 AO-DIIS                CNVDIIS         .... on
   Start iteration      DIISMaxIt       ....     0
   Startup error        DIISStart       ....  0.200000
   # of expansion vecs  DIISMaxEq       ....     5
   Bias factor          DIISBfac        ....   1.050
   Max. coefficient     DIISMaxC        ....  10.000
 MO-DIIS                CNVKDIIS        .... off
 Trust-Rad. Augm. Hess. CNVTRAH         .... auto
   Auto Start mean grad. ratio tolernc. ....  1.125000
   Auto Start start iteration           ....    50
   Auto Start num. interpolation iter.  ....    10
   Max. Number of Micro iterations      ....    24
   Max. Number of Macro iterations      .... Maxiter - #DIIS iter
   Number of Davidson start vectors     ....     2
   Converg. threshold    (grad. norm)   ....   1.000e-05
   Grad. Scal. Fac. for Micro threshold ....   0.100
   Minimum threshold for Micro iter.    ....   1.000e-02
   NR start threshold (gradient norm)   ....   1.000e-04
   Initial trust radius                 ....   0.400
   Minimum AH scaling param. (alpha)    ....   1.000
   Maximum AH scaling param. (alpha)    .... 1000.000
   Quad. conv. algorithm                .... NR
   White noise on init. David. guess    .... on
   Maximum white noise                  ....   0.010
   Pseudo random numbers                .... off
   Inactive MOs                         .... canonical
   Orbital update algorithm             .... Taylor
   Preconditioner                       .... Diag
   Full preconditioner red. dimension   ....   250
 SOSCF                  CNVSOSCF        .... on
   Start iteration      SOSCFMaxIt      ....   150
   Startup grad/error   SOSCFStart      ....  0.001000
   Hessian update       SOSCFHessUp     .... L-BFGS
 Level Shifting         CNVShift        .... on
   Level shift para.    LevelShift      ....    0.2500
   Turn off err/grad.   ShiftErr        ....    0.0000
 Zerner damping         CNVZerner       .... off
 Static damping         CNVDamp         .... on
   Fraction old density DampFac         ....    0.8500
   Max. Damping (<1)    DampMax         ....    0.9800
   Min. Damping (>=0)   DampMin         ....    0.0000
   Turn off err/grad.   DampErr         ....    0.0300

SCF Procedure:
 Maximum # iterations   MaxIter         ....  1500
 SCF integral mode      SCFMode         .... Direct
   Integral package                     .... SHARK and LIBINT hybrid scheme
 Reset frequency        DirectResetFreq ....    20
 Integral Threshold     Thresh          ....  1.000e-12 Eh
 Primitive CutOff       TCut            ....  1.000e-13 Eh

Convergence Tolerance:
 Convergence Check Mode ConvCheckMode   .... Total+1el-Energy
 Convergence forced     ConvForced      .... 0
 Energy Change          TolE            ....  1.000e-08 Eh
 1-El. energy change                    ....  1.000e-05 Eh
 Orbital Gradient       TolG            ....  1.000e-05
 Orbital Rotation angle TolX            ....  1.000e-05
 DIIS Error             TolErr          ....  5.000e-07

------------------------------
INITIAL GUESS: MODEL POTENTIAL
------------------------------
Loading Hartree-Fock densities                     ... done
Calculating cut-offs                               ... done
Initializing the effective Hamiltonian             ... done
Setting up the integral package (SHARK)            ... done
Starting the Coulomb interaction                   ... done (   0.6 sec)
Making the grid                                    ... done (   0.4 sec)
Mapping shells                                     ... done
Starting the XC term evaluation                    ... done (   0.4 sec)
  promolecular density results
     # of electrons  =     79.992589144
     EX              =    -62.839336583
     EC              =     -2.639509943
     EX+EC           =    -65.478846526
Transforming the Hamiltonian                       ... done (   0.2 sec)
Diagonalizing the Hamiltonian                      ... done (   0.2 sec)
Back transforming the eigenvectors                 ... done (   0.2 sec)
Now organizing SCF variables                       ... done
                      ------------------
                      INITIAL GUESS DONE (   3.1 sec)
                      ------------------
             **** ENERGY FILE WAS UPDATED (cs_rporg_018_ox_freq_06.en.tmp) ****
Finished Guess after   5.2 sec
Maximum memory used throughout the entire GUESS-calculation: 64.8 MB


           ************************************************************
           *        Program running with 12 parallel MPI-processes    *
           *              working on a common directory               *
           ************************************************************

-------------------------------------------------------------------------------------------
                                      ORCA LEAN-SCF
                              memory conserving SCF solver
-------------------------------------------------------------------------------------------

--------------------
CPCM SOLVATION MODEL
--------------------
CPCM parameters:
  Epsilon                                         ...      35.6880
  Refrac                                          ...       1.3442
  Rsolv                                           ...       2.1900
  Surface type                                    ...    GEPOL SES
  Discretization scheme                           ... Constant num. charges
  Epsilon function type                           ...         CPCM
Solvent:                                          ... ACETONITRILE
SMD-CDS solvent descriptors:
  Soln                                            ...       1.3442
  Soln25                                          ...       1.3416
  Sola                                            ...       0.0700
  Solb                                            ...       0.3200
  Solg                                            ...      41.2500
  Solc                                            ...       0.0000
  Solh                                            ...       0.0000
Radii:
  Scheme                                          ... Element-dependent radii
  Radius for C  used is    3.4960 Bohr (=   1.8500 Ang.)
  Radius for H  used is    2.2677 Bohr (=   1.2000 Ang.)
  Radius for O  used is    4.0969 Bohr (=   2.1680 Ang.)
Calculating surface                               ...        done! (  0.1s)
Cavity surface points                             ...          765
Cavity Volume                                     ...    1226.9687
Cavity Surface-area                               ...     701.8462
Calculating surface distance matrix               ...        done! (  0.0s)
Performing Cholesky decomposition & store         ...        done! (  0.0s)
Overall time for CPCM initialization              ...                 0.1s

----------------------------------------D-I-I-S--------------------------------------------
Iteration    Energy (Eh)           Delta-E    RMSDP     MaxDP     DIISErr   Damp  Time(sec)
-------------------------------------------------------------------------------------------
               ***  Starting incremental Fock matrix formation  ***
    1    -463.0168970440410021     0.00e+00  5.04e-04  3.69e-02  9.43e-02  0.850  14.9
Warning: op=1 Small HOMO/LUMO gap (   0.013) - skipping pre-diagonalization
         Will do a full diagonalization
    2    -463.0600955375477952    -4.32e-02  4.71e-04  3.56e-02  7.12e-02  0.850  17.5
                               ***Turning on AO-DIIS***
    3    -463.0899740039706103    -2.99e-02  3.60e-04  2.53e-02  4.85e-02  0.850  14.4
    4    -463.1098061856649792    -1.98e-02  2.98e-04  2.05e-02  3.79e-02  0.850  14.0
    5    -463.1242914038685967    -1.45e-02  2.50e-04  1.71e-02  3.14e-02  0.850  13.6
    6    -463.1356923668420222    -1.14e-02  2.11e-04  1.43e-02  2.66e-02  0.850  14.5
    7    -463.1450250000597180    -9.33e-03  1.19e-03  7.93e-02  2.25e-02  0.000  13.9
    8    -463.1924002171483608    -4.74e-02  5.90e-05  6.74e-03  2.78e-03  0.000  14.0
    9    -463.1925444183864329    -1.44e-04  2.36e-05  2.24e-03  1.64e-03  0.000  13.4
   10    -463.1926186808026387    -7.43e-05  2.72e-05  3.61e-03  1.09e-03  0.000  13.3
                              *** Initializing SOSCF ***
---------------------------------------S-O-S-C-F--------------------------------------
Iteration    Energy (Eh)           Delta-E    RMSDP     MaxDP     MaxGrad    Time(sec)
--------------------------------------------------------------------------------------
   11    -463.1926676098214557    -4.89e-05  1.41e-05  1.56e-03  7.72e-04    16.1
               *** Restarting incremental Fock matrix formation ***
   12    -463.1926941544255669    -2.65e-05  1.11e-05  1.09e-03  8.02e-04    14.3
   13    -463.1927143042945545    -2.01e-05  2.83e-05  3.99e-03  3.93e-04    12.3
   14    -463.1927370103720705    -2.27e-05  1.65e-05  1.96e-03  3.32e-04    12.3
   15    -463.1927416149246710    -4.60e-06  1.18e-05  1.55e-03  1.72e-04    12.1
   16    -463.1927425256093329    -9.11e-07  4.77e-06  4.89e-04  1.76e-04    11.8
   17    -463.1927433997282151    -8.74e-07  3.39e-06  3.74e-04  4.94e-05    11.5
   18    -463.1927435516208789    -1.52e-07  1.51e-06  1.71e-04  4.05e-05    12.4
   19    -463.1927436664210518    -1.15e-07  1.19e-06  1.18e-04  1.81e-05    11.6
   20    -463.1927436785483678    -1.21e-08  5.96e-07  4.94e-05  9.35e-06    11.8
   21    -463.1927436592010281     1.93e-08  8.86e-07  1.22e-04  4.45e-06    11.2
   22    -463.1927436708203913    -1.16e-08  6.12e-07  7.99e-05  2.87e-06    12.7
   23    -463.1927436989717535    -2.82e-08  1.03e-06  1.89e-04  1.09e-06    11.4
                  *** Gradient check signals convergence ***

               *****************************************************
               *                     SUCCESS                       *
               *           SCF CONVERGED AFTER  23 CYCLES          *
               *****************************************************


SMD CDS free energy correction energy :                -1.70595     Kcal/mol
Total Energy after SMD CDS correction =              -463.195462309 Eh
             **** ENERGY FILE WAS UPDATED (cs_rporg_018_ox_freq_06.en.tmp) ****

----------------
TOTAL SCF ENERGY
----------------

Total Energy       :       -463.19546230878780 Eh          -12604.18931 eV

Components:
Nuclear Repulsion  :        559.68455651079319 Eh           15229.79105 eV
Electronic Energy  :      -1022.79784568980790 Eh          -27831.74432 eV
One Electron Energy:      -1721.96807628708166 Eh          -46857.13353 eV
Two Electron Energy:        699.17023059727376 Eh           19025.38921 eV
CPCM Dielectric    :         -0.07945451995703 Eh              -2.16207 eV
SMD CDS (Gcds)     :         -0.00271860981606 Eh              -0.07398 eV

Virial components:
Potential Energy   :       -923.87422684386752 Eh          -25139.89580 eV
Kinetic Energy     :        460.67876453507978 Eh           12535.70649 eV
Virial Ratio       :          2.00546302101910

DFT components:
N(Alpha)           :       39.999909074684 electrons
N(Beta)            :       38.999903186622 electrons
N(Total)           :       78.999812261305 electrons
E(X)               :      -64.324397939556 Eh       
E(C)               :       -2.519653762814 Eh       
E(XC)              :      -66.844051702370 Eh       

CPCM Solvation Model Properties:
Surface-charge          :         -1.03921003277404
Corrected charge        :         -1.00000000000000
Outlying charge corr.   :          0.00010104190963 Eh               0.00275 eV
Free-energy (cav+disp)  :         -0.00271860981606 Eh              -0.07398 eV

---------------
SCF CONVERGENCE
---------------

  Last Energy change         ...    2.8151e-08  Tolerance :   1.0000e-08
  Last MAX-Density change    ...    1.8908e-04  Tolerance :   1.0000e-07
  Last RMS-Density change    ...    1.0297e-06  Tolerance :   5.0000e-09
  Last DIIS Error            ...    7.7229e-04  Tolerance :   5.0000e-07
  Last Orbital Gradient      ...    1.0900e-06  Tolerance :   1.0000e-05
  Last Orbital Rotation      ...    7.6041e-06  Tolerance :   1.0000e-05


----------------------
UHF SPIN CONTAMINATION
----------------------

Warning: in a DFT calculation there is little theoretical justification to 
         calculate <S**2> as in Hartree-Fock theory. We will do it anyways
         but you should keep in mind that the values have only limited relevance

Expectation value of <S**2>     :     0.779854
Ideal value S*(S+1) for S=0.5   :     0.750000
Deviation                       :     0.029854

----------------
ORBITAL ENERGIES
----------------
                 SPIN UP ORBITALS
  NO   OCC          E(Eh)            E(eV) 
   0   1.0000     -19.035062      -517.9704 
   1   1.0000     -10.147258      -276.1209 
   2   1.0000     -10.099505      -274.8215 
   3   1.0000     -10.093317      -274.6531 
   4   1.0000     -10.093269      -274.6518 
   5   1.0000     -10.092465      -274.6299 
   6   1.0000     -10.091354      -274.5997 
   7   1.0000     -10.076622      -274.1988 
   8   1.0000     -10.070649      -274.0363 
   9   1.0000     -10.063198      -273.8335 
  10   1.0000     -10.041912      -273.2543 
  11   1.0000      -1.076887       -29.3036 
  12   1.0000      -0.868458       -23.6319 
  13   1.0000      -0.809663       -22.0320 
  14   1.0000      -0.762743       -20.7553 
  15   1.0000      -0.756106       -20.5747 
  16   1.0000      -0.695262       -18.9190 
  17   1.0000      -0.679086       -18.4789 
  18   1.0000      -0.608747       -16.5648 
  19   1.0000      -0.602495       -16.3947 
  20   1.0000      -0.548923       -14.9370 
  21   1.0000      -0.524541       -14.2735 
  22   1.0000      -0.491352       -13.3704 
  23   1.0000      -0.482557       -13.1311 
  24   1.0000      -0.463749       -12.6192 
  25   1.0000      -0.462920       -12.5967 
  26   1.0000      -0.431489       -11.7414 
  27   1.0000      -0.417028       -11.3479 
  28   1.0000      -0.406709       -11.0671 
  29   1.0000      -0.395165       -10.7530 
  30   1.0000      -0.391577       -10.6553 
  31   1.0000      -0.383652       -10.4397 
  32   1.0000      -0.369709       -10.0603 
  33   1.0000      -0.355200        -9.6655 
  34   1.0000      -0.344778        -9.3819 
  35   1.0000      -0.341935        -9.3045 
  36   1.0000      -0.323390        -8.7999 
  37   1.0000      -0.311024        -8.4634 
  38   1.0000      -0.248796        -6.7701 
  39   1.0000      -0.247136        -6.7249 
  40   0.0000      -0.108945        -2.9645 
  41   0.0000      -0.061214        -1.6657 
  42   0.0000      -0.011948        -0.3251 
  43   0.0000       0.004633         0.1261 
  44   0.0000       0.016243         0.4420 
  45   0.0000       0.017908         0.4873 
  46   0.0000       0.027341         0.7440 
  47   0.0000       0.031120         0.8468 
  48   0.0000       0.032109         0.8737 
  49   0.0000       0.038284         1.0418 
  50   0.0000       0.043566         1.1855 

                 SPIN DOWN ORBITALS
  NO   OCC          E(Eh)            E(eV) 
   0   1.0000     -19.032399      -517.8979 
   1   1.0000     -10.146866      -276.1103 
   2   1.0000     -10.098631      -274.7977 
   3   1.0000     -10.093363      -274.6544 
   4   1.0000     -10.088165      -274.5129 
   5   1.0000     -10.087220      -274.4872 
   6   1.0000     -10.084888      -274.4238 
   7   1.0000     -10.075692      -274.1735 
   8   1.0000     -10.073228      -274.1065 
   9   1.0000     -10.063708      -273.8474 
  10   1.0000     -10.041962      -273.2557 
  11   1.0000      -1.073099       -29.2005 
  12   1.0000      -0.861659       -23.4469 
  13   1.0000      -0.801633       -21.8136 
  14   1.0000      -0.760965       -20.7069 
  15   1.0000      -0.746826       -20.3222 
  16   1.0000      -0.687928       -18.7195 
  17   1.0000      -0.676103       -18.3977 
  18   1.0000      -0.606208       -16.4958 
  19   1.0000      -0.597584       -16.2611 
  20   1.0000      -0.545441       -14.8422 
  21   1.0000      -0.522526       -14.2187 
  22   1.0000      -0.489326       -13.3152 
  23   1.0000      -0.479595       -13.0504 
  24   1.0000      -0.460343       -12.5266 
  25   1.0000      -0.457120       -12.4389 
  26   1.0000      -0.430667       -11.7191 
  27   1.0000      -0.416395       -11.3307 
  28   1.0000      -0.396372       -10.7858 
  29   1.0000      -0.393830       -10.7167 
  30   1.0000      -0.381765       -10.3884 
  31   1.0000      -0.381169       -10.3721 
  32   1.0000      -0.368580       -10.0296 
  33   1.0000      -0.354048        -9.6341 
  34   1.0000      -0.340363        -9.2617 
  35   1.0000      -0.333317        -9.0700 
  36   1.0000      -0.321406        -8.7459 
  37   1.0000      -0.297706        -8.1010 
  38   1.0000      -0.238471        -6.4891 
  39   0.0000      -0.206797        -5.6272 
  40   0.0000      -0.081699        -2.2231 
  41   0.0000      -0.052304        -1.4233 
  42   0.0000       0.005411         0.1472 
  43   0.0000       0.008264         0.2249 
  44   0.0000       0.017018         0.4631 
  45   0.0000       0.018074         0.4918 
  46   0.0000       0.028108         0.7649 
  47   0.0000       0.031940         0.8691 
  48   0.0000       0.032229         0.8770 
  49   0.0000       0.039474         1.0742 
*Only the first 10 virtual orbitals were printed.

                    ********************************
                    * MULLIKEN POPULATION ANALYSIS *
                    ********************************

--------------------------------------------
MULLIKEN ATOMIC CHARGES AND SPIN POPULATIONS
--------------------------------------------
   0 C :   -0.935777   -0.062495
   1 C :    0.864657    0.019024
   2 C :    0.022051    0.364957
   3 C :   -0.922926   -0.219075
   4 C :   -0.436745    0.368484
   5 C :    2.040975    0.070343
   6 C :   -0.149464    0.036337
   7 C :   -0.175729    0.211710
   8 C :   -0.723834   -0.025580
   9 H :    0.182424    0.026202
  10 H :    0.184084    0.025988
  11 H :    0.248284   -0.005109
  12 H :    0.120902    0.020306
  13 H :   -0.055909    0.010699
  14 H :    0.290327    0.043471
  15 H :    0.451930   -0.009774
  16 H :    0.313762    0.051151
  17 O :   -0.577721    0.081215
  18 C :   -0.610600   -0.007120
  19 H :    0.219000   -0.000628
  20 H :    0.270171    0.002397
  21 H :    0.269242    0.002413
  22 H :    0.110895   -0.004917
Sum of atomic charges         :    1.0000000
Sum of atomic spin populations:    1.0000000

-----------------------------------------------------
MULLIKEN REDUCED ORBITAL CHARGES AND SPIN POPULATIONS
-----------------------------------------------------
CHARGE
  0 C s       :     4.344818  s :     4.344818
      pz      :     0.990719  p :     2.582403
      px      :     0.642366
      py      :     0.949318
      dz2     :     0.006746  d :     0.047660
      dxz     :     0.034852
      dyz     :     0.009457
      dx2y2   :     0.036988
      dxy     :    -0.040383
      f0      :    -0.000311  f :    -0.039104
      f+1     :    -0.002501
      f-1     :     0.000691
      f+2     :    -0.000461
      f-2     :     0.000462
      f+3     :    -0.032381
      f-3     :    -0.004603

  1 C s       :     3.252377  s :     3.252377
      pz      :     0.878133  p :     2.013925
      px      :     0.695926
      py      :     0.439867
      dz2     :    -0.013602  d :    -0.122015
      dxz     :     0.049582
      dyz     :    -0.013311
      dx2y2   :    -0.078157
      dxy     :    -0.066527
      f0      :     0.003294  f :    -0.008945
      f+1     :     0.001590
      f-1     :    -0.000166
      f+2     :     0.001210
      f-2     :     0.011302
      f+3     :    -0.026853
      f-3     :     0.000678

  2 C s       :     3.714695  s :     3.714695
      pz      :     0.841179  p :     2.263423
      px      :     0.787519
      py      :     0.634725
      dz2     :    -0.002571  d :     0.015923
      dxz     :     0.002461
      dyz     :    -0.009535
      dx2y2   :     0.002622
      dxy     :     0.022945
      f0      :    -0.000031  f :    -0.016093
      f+1     :     0.000051
      f-1     :    -0.000088
      f+2     :    -0.001726
      f-2     :     0.002148
      f+3     :    -0.015642
      f-3     :    -0.000804

  3 C s       :     4.008871  s :     4.008871
      pz      :     0.953651  p :     2.841922
      px      :     1.019131
      py      :     0.869140
      dz2     :    -0.004673  d :     0.086544
      dxz     :     0.008721
      dyz     :     0.018370
      dx2y2   :     0.052899
      dxy     :     0.011227
      f0      :     0.000878  f :    -0.014411
      f+1     :    -0.000283
      f-1     :     0.000394
      f+2     :     0.000656
      f-2     :     0.000045
      f+3     :    -0.016653
      f-3     :     0.000552

  4 C s       :     3.950058  s :     3.950058
      pz      :     0.852315  p :     2.535869
      px      :     0.622259
      py      :     1.061295
      dz2     :    -0.013273  d :    -0.038555
      dxz     :     0.017773
      dyz     :    -0.007993
      dx2y2   :     0.042882
      dxy     :    -0.077944
      f0      :     0.001103  f :    -0.010627
      f+1     :     0.000262
      f-1     :     0.000312
      f+2     :    -0.000330
      f-2     :     0.000804
      f+3     :    -0.015214
      f-3     :     0.002437

  5 C s       :     2.823337  s :     2.823337
      pz      :     0.886385  p :     1.505272
      px      :     0.041444
      py      :     0.577443
      dz2     :    -0.026473  d :    -0.263559
      dxz     :    -0.044380
      dyz     :    -0.025675
      dx2y2   :    -0.023357
      dxy     :    -0.143674
      f0      :     0.002049  f :    -0.106025
      f+1     :    -0.003826
      f-1     :    -0.002047
      f+2     :    -0.000840
      f-2     :    -0.000369
      f+3     :    -0.087349
      f-3     :    -0.013644

  6 C s       :     3.868351  s :     3.868351
      pz      :     0.949542  p :     2.420822
      px      :     0.567719
      py      :     0.903560
      dz2     :     0.012644  d :    -0.104924
      dxz     :    -0.018769
      dyz     :     0.015330
      dx2y2   :     0.006229
      dxy     :    -0.120358
      f0      :     0.000544  f :    -0.034786
      f+1     :    -0.001717
      f-1     :    -0.000672
      f+2     :    -0.000068
      f-2     :     0.000640
      f+3     :    -0.031857
      f-3     :    -0.001656

  7 C s       :     3.727906  s :     3.727906
      pz      :     0.758228  p :     2.405768
      px      :     0.706499
      py      :     0.941042
      dz2     :    -0.002582  d :     0.053762
      dxz     :     0.007458
      dyz     :     0.009906
      dx2y2   :     0.055276
      dxy     :    -0.016296
      f0      :    -0.000459  f :    -0.011708
      f+1     :     0.000614
      f-1     :     0.000122
      f+2     :    -0.000307
      f-2     :     0.000440
      f+3     :    -0.006811
      f-3     :    -0.005306

  8 C s       :     3.544581  s :     3.544581
      pz      :     1.097426  p :     3.113977
      px      :     0.932851
      py      :     1.083700
      dz2     :     0.010119  d :     0.056220
      dxz     :     0.017450
      dyz     :     0.006639
      dx2y2   :     0.020584
      dxy     :     0.001428
      f0      :     0.001881  f :     0.009055
      f+1     :     0.000907
      f-1     :     0.001498
      f+2     :    -0.000111
      f-2     :     0.001452
      f+3     :     0.001151
      f-3     :     0.002277

  9 H s       :     0.752399  s :     0.752399
      pz      :     0.016822  p :     0.056728
      px      :     0.024594
      py      :     0.015312
      dz2     :     0.002981  d :     0.008449
      dxz     :     0.000725
      dyz     :     0.001184
      dx2y2   :     0.002746
      dxy     :     0.000813

 10 H s       :     0.751102  s :     0.751102
      pz      :     0.016954  p :     0.056402
      px      :     0.024278
      py      :     0.015170
      dz2     :     0.003028  d :     0.008412
      dxz     :     0.000671
      dyz     :     0.001099
      dx2y2   :     0.002801
      dxy     :     0.000813

 11 H s       :     0.696102  s :     0.696102
      pz      :     0.016611  p :     0.047059
      px      :     0.011865
      py      :     0.018583
      dz2     :     0.000204  d :     0.008556
      dxz     :     0.000651
      dyz     :     0.003659
      dx2y2   :    -0.000839
      dxy     :     0.004881

 12 H s       :     0.854797  s :     0.854797
      pz      :     0.021981  p :     0.019587
      px      :     0.010134
      py      :    -0.012528
      dz2     :    -0.000139  d :     0.004714
      dxz     :     0.000257
      dyz     :     0.004058
      dx2y2   :    -0.000177
      dxy     :     0.000715

 13 H s       :     1.051754  s :     1.051754
      pz      :     0.022528  p :    -0.003156
      px      :    -0.030622
      py      :     0.004938
      dz2     :     0.000030  d :     0.007311
      dxz     :     0.000457
      dyz     :     0.004549
      dx2y2   :     0.001147
      dxy     :     0.001128

 14 H s       :     0.764678  s :     0.764678
      pz      :     0.018956  p :    -0.060029
      px      :    -0.064009
      py      :    -0.014976
      dz2     :    -0.000026  d :     0.005024
      dxz     :     0.003355
      dyz     :     0.001906
      dx2y2   :    -0.001839
      dxy     :     0.001628

 15 H s       :     0.524719  s :     0.524719
      pz      :     0.021222  p :     0.012416
      px      :     0.016823
      py      :    -0.025629
      dz2     :     0.000269  d :     0.010935
      dxz     :    -0.000092
      dyz     :     0.006060
      dx2y2   :     0.001410
      dxy     :     0.003287

 16 H s       :     0.688620  s :     0.688620
      pz      :     0.011666  p :    -0.011834
      px      :    -0.002780
      py      :    -0.020720
      dz2     :    -0.000117  d :     0.009452
      dxz     :     0.004835
      dyz     :    -0.000312
      dx2y2   :     0.001633
      dxy     :     0.003413

 17 O s       :     4.152814  s :     4.152814
      pz      :     1.691499  p :     4.339404
      px      :     1.090506
      py      :     1.557399
      dz2     :     0.001075  d :     0.078758
      dxz     :     0.019753
      dyz     :     0.009866
      dx2y2   :     0.022933
      dxy     :     0.025131
      f0      :     0.000804  f :     0.006744
      f+1     :    -0.000025
      f-1     :     0.000129
      f+2     :     0.000216
      f-2     :     0.001806
      f+3     :     0.002278
      f-3     :     0.001537

 18 C s       :     3.540987  s :     3.540987
      pz      :     1.122103  p :     2.910199
      px      :     0.714670
      py      :     1.073426
      dz2     :     0.012540  d :     0.135330
      dxz     :     0.024878
      dyz     :     0.045888
      dx2y2   :     0.022245
      dxy     :     0.029778
      f0      :     0.002664  f :     0.024085
      f+1     :     0.001247
      f-1     :     0.002688
      f+2     :     0.005781
      f-2     :    -0.000146
      f+3     :     0.010756
      f-3     :     0.001095

 19 H s       :     0.737914  s :     0.737914
      pz      :     0.018813  p :     0.040633
      px      :     0.011746
      py      :     0.010074
      dz2     :    -0.000868  d :     0.002454
      dxz     :     0.000117
      dyz     :     0.003379
      dx2y2   :    -0.001045
      dxy     :     0.000871

 20 H s       :     0.695851  s :     0.695851
      pz      :     0.011577  p :     0.028485
      px      :     0.008135
      py      :     0.008773
      dz2     :     0.002730  d :     0.005492
      dxz     :     0.001186
      dyz     :     0.001007
      dx2y2   :     0.000708
      dxy     :    -0.000139

 21 H s       :     0.696509  s :     0.696509
      pz      :     0.011667  p :     0.028755
      px      :     0.008147
      py      :     0.008940
      dz2     :     0.002708  d :     0.005493
      dxz     :     0.001195
      dyz     :     0.001036
      dx2y2   :     0.000692
      dxy     :    -0.000138

 22 H s       :     0.881315  s :     0.881315
      pz      :     0.021246  p :     0.001027
      px      :    -0.019723
      py      :    -0.000496
      dz2     :    -0.000571  d :     0.006763
      dxz     :     0.000046
      dyz     :     0.005797
      dx2y2   :     0.001199
      dxy     :     0.000291


SPIN
  0 C s       :    -0.009733  s :    -0.009733
      pz      :    -0.028731  p :    -0.047508
      px      :    -0.019856
      py      :     0.001079
      dz2     :     0.000118  d :    -0.004149
      dxz     :    -0.004470
      dyz     :     0.001176
      dx2y2   :     0.001235
      dxy     :    -0.002208
      f0      :    -0.000065  f :    -0.001105
      f+1     :    -0.000042
      f-1     :     0.000108
      f+2     :    -0.000408
      f-2     :    -0.000597
      f+3     :     0.000333
      f-3     :    -0.000435

  1 C s       :     0.018215  s :     0.018215
      pz      :     0.033784  p :     0.007397
      px      :    -0.010265
      py      :    -0.016121
      dz2     :    -0.000003  d :    -0.006249
      dxz     :    -0.006965
      dyz     :     0.002959
      dx2y2   :    -0.000332
      dxy     :    -0.001908
      f0      :    -0.000252  f :    -0.000339
      f+1     :    -0.000056
      f-1     :    -0.000090
      f+2     :    -0.000275
      f-2     :     0.000969
      f+3     :    -0.000239
      f-3     :    -0.000397

  2 C s       :     0.015313  s :     0.015313
      pz      :     0.329489  p :     0.349193
      px      :    -0.000691
      py      :     0.020394
      dz2     :    -0.002545  d :     0.003159
      dxz     :     0.003110
      dyz     :    -0.000090
      dx2y2   :     0.001749
      dxy     :     0.000936
      f0      :    -0.000766  f :    -0.002707
      f+1     :    -0.000540
      f-1     :    -0.000441
      f+2     :    -0.000218
      f-2     :    -0.000255
      f+3     :    -0.000609
      f-3     :     0.000122

  3 C s       :    -0.045713  s :    -0.045713
      pz      :    -0.150790  p :    -0.194766
      px      :    -0.040602
      py      :    -0.003373
      dz2     :     0.000838  d :     0.022616
      dxz     :     0.016028
      dyz     :    -0.001561
      dx2y2   :     0.005802
      dxy     :     0.001510
      f0      :     0.000228  f :    -0.001212
      f+1     :     0.000195
      f-1     :     0.000322
      f+2     :     0.000177
      f-2     :     0.000134
      f+3     :    -0.001324
      f-3     :    -0.000943

  4 C s       :     0.001420  s :     0.001420
      pz      :     0.356042  p :     0.370901
      px      :     0.005099
      py      :     0.009759
      dz2     :    -0.001585  d :    -0.000996
      dxz     :     0.001128
      dyz     :     0.001314
      dx2y2   :     0.006224
      dxy     :    -0.008078
      f0      :    -0.000756  f :    -0.002840
      f+1     :    -0.000414
      f-1     :    -0.000478
      f+2     :    -0.000396
      f-2     :    -0.000324
      f+3     :    -0.000276
      f-3     :    -0.000196

  5 C s       :     0.033771  s :     0.033771
      pz      :     0.043810  p :     0.044088
      px      :     0.003061
      py      :    -0.002782
      dz2     :    -0.000737  d :    -0.004812
      dxz     :    -0.001281
      dyz     :    -0.006030
      dx2y2   :    -0.005718
      dxy     :     0.008955
      f0      :    -0.000363  f :    -0.002704
      f+1     :    -0.000039
      f-1     :    -0.000135
      f+2     :    -0.000639
      f-2     :    -0.000078
      f+3     :    -0.001041
      f-3     :    -0.000409

  6 C s       :    -0.027868  s :    -0.027868
      pz      :     0.055331  p :     0.060685
      px      :     0.006380
      py      :    -0.001026
      dz2     :    -0.000051  d :     0.004869
      dxz     :     0.004483
      dyz     :     0.000749
      dx2y2   :     0.005428
      dxy     :    -0.005740
      f0      :    -0.000072  f :    -0.001349
      f+1     :    -0.000046
      f-1     :    -0.000069
      f+2     :    -0.000248
      f-2     :     0.000339
      f+3     :    -0.001052
      f-3     :    -0.000200

  7 C s       :    -0.026578  s :    -0.026578
      pz      :     0.222064  p :     0.238378
      px      :     0.028521
      py      :    -0.012207
      dz2     :    -0.002483  d :     0.001980
      dxz     :     0.003120
      dyz     :     0.002182
      dx2y2   :     0.002271
      dxy     :    -0.003110
      f0      :    -0.000490  f :    -0.002071
      f+1     :    -0.000226
      f-1     :    -0.000431
      f+2     :    -0.000149
      f-2     :    -0.000055
      f+3     :    -0.000494
      f-3     :    -0.000226

  8 C s       :    -0.026469  s :    -0.026469
      pz      :    -0.000306  p :    -0.004322
      px      :     0.000383
      py      :    -0.004399
      dz2     :     0.000404  d :     0.004823
      dxz     :     0.004963
      dyz     :    -0.000834
      dx2y2   :     0.000821
      dxy     :    -0.000532
      f0      :     0.000382  f :     0.000388
      f+1     :     0.000095
      f-1     :     0.000013
      f+2     :    -0.000390
      f-2     :     0.000527
      f+3     :    -0.000152
      f-3     :    -0.000087

  9 H s       :     0.023200  s :     0.023200
      pz      :     0.000750  p :     0.002600
      px      :     0.001554
      py      :     0.000296
      dz2     :     0.000117  d :     0.000402
      dxz     :     0.000064
      dyz     :     0.000025
      dx2y2   :     0.000193
      dxy     :     0.000002

 10 H s       :     0.022968  s :     0.022968
      pz      :     0.000778  p :     0.002621
      px      :     0.001545
      py      :     0.000298
      dz2     :     0.000116  d :     0.000399
      dxz     :     0.000059
      dyz     :     0.000024
      dx2y2   :     0.000196
      dxy     :     0.000004

 11 H s       :    -0.004978  s :    -0.004978
      pz      :    -0.000715  p :    -0.000392
      px      :     0.000270
      py      :     0.000053
      dz2     :     0.000087  d :     0.000261
      dxz     :     0.000143
      dyz     :    -0.000038
      dx2y2   :    -0.000015
      dxy     :     0.000082

 12 H s       :     0.011218  s :     0.011218
      pz      :     0.004757  p :     0.008766
      px      :     0.004231
      py      :    -0.000222
      dz2     :     0.000059  d :     0.000322
      dxz     :    -0.000026
      dyz     :     0.000709
      dx2y2   :    -0.000118
      dxy     :    -0.000301

 13 H s       :     0.009999  s :     0.009999
      pz      :    -0.000937  p :     0.000823
      px      :    -0.000963
      py      :     0.002723
      dz2     :     0.000048  d :    -0.000123
      dxz     :    -0.000039
      dyz     :    -0.000076
      dx2y2   :    -0.000032
      dxy     :    -0.000023

 14 H s       :     0.028520  s :     0.028520
      pz      :     0.008472  p :     0.013871
      px      :     0.003311
      py      :     0.002088
      dz2     :     0.000170  d :     0.001080
      dxz     :     0.000898
      dyz     :     0.000475
      dx2y2   :    -0.000265
      dxy     :    -0.000197

 15 H s       :    -0.003782  s :    -0.003782
      pz      :    -0.006740  p :    -0.005469
      px      :     0.000238
      py      :     0.001034
      dz2     :    -0.000018  d :    -0.000523
      dxz     :    -0.000181
      dyz     :    -0.000652
      dx2y2   :     0.000259
      dxy     :     0.000068

 16 H s       :     0.041816  s :     0.041816
      pz      :     0.006730  p :     0.008566
      px      :     0.000267
      py      :     0.001568
      dz2     :     0.000127  d :     0.000770
      dxz     :     0.000823
      dyz     :     0.000289
      dx2y2   :    -0.000166
      dxy     :    -0.000305

 17 O s       :    -0.001006  s :    -0.001006
      pz      :     0.072754  p :     0.080736
      px      :     0.004560
      py      :     0.003423
      dz2     :     0.000148  d :     0.001556
      dxz     :     0.000285
      dyz     :     0.000750
      dx2y2   :     0.000385
      dxy     :    -0.000013
      f0      :    -0.000053  f :    -0.000070
      f+1     :    -0.000051
      f-1     :    -0.000002
      f+2     :     0.000027
      f-2     :     0.000009
      f+3     :     0.000007
      f-3     :    -0.000007

 18 C s       :    -0.005232  s :    -0.005232
      pz      :    -0.000331  p :    -0.004753
      px      :    -0.004031
      py      :    -0.000392
      dz2     :    -0.000414  d :     0.002554
      dxz     :    -0.000075
      dyz     :     0.004046
      dx2y2   :    -0.000023
      dxy     :    -0.000980
      f0      :    -0.000062  f :     0.000311
      f+1     :     0.000055
      f-1     :     0.000013
      f+2     :     0.000203
      f-2     :     0.000106
      f+3     :     0.000002
      f-3     :    -0.000004

 19 H s       :    -0.000944  s :    -0.000944
      pz      :    -0.000112  p :     0.000382
      px      :     0.000107
      py      :     0.000387
      dz2     :     0.000001  d :    -0.000066
      dxz     :    -0.000006
      dyz     :     0.000002
      dx2y2   :    -0.000009
      dxy     :    -0.000053

 20 H s       :     0.001733  s :     0.001733
      pz      :     0.000299  p :     0.000629
      px      :    -0.000009
      py      :     0.000339
      dz2     :     0.000054  d :     0.000035
      dxz     :    -0.000028
      dyz     :    -0.000015
      dx2y2   :     0.000045
      dxy     :    -0.000021

 21 H s       :     0.001770  s :     0.001770
      pz      :     0.000288  p :     0.000611
      px      :    -0.000009
      py      :     0.000332
      dz2     :     0.000052  d :     0.000032
      dxz     :    -0.000028
      dyz     :    -0.000014
      dx2y2   :     0.000045
      dxy     :    -0.000022

 22 H s       :    -0.003558  s :    -0.003558
      pz      :    -0.000674  p :    -0.001365
      px      :     0.000105
      py      :    -0.000797
      dz2     :     0.000011  d :     0.000006
      dxz     :    -0.000027
      dyz     :    -0.000103
      dx2y2   :     0.000079
      dxy     :     0.000046



                     *******************************
                     * LOEWDIN POPULATION ANALYSIS *
                     *******************************

-------------------------------------------
LOEWDIN ATOMIC CHARGES AND SPIN POPULATIONS
-------------------------------------------
   0 C :    0.255058   -0.000649
   1 C :   -0.342947    0.070660
   2 C :    0.290802    0.173277
   3 C :    0.271251    0.035668
   4 C :    0.290777    0.180648
   5 C :   -0.094370    0.081796
   6 C :    0.280370    0.079661
   7 C :    0.289090    0.137109
   8 C :    0.618927    0.046758
   9 H :   -0.147225    0.010922
  10 H :   -0.147366    0.010888
  11 H :   -0.162877    0.001089
  12 H :   -0.165794    0.022578
  13 H :   -0.160090    0.008227
  14 H :   -0.170132    0.038685
  15 H :   -0.154786   -0.012705
  16 H :   -0.169139    0.039174
  17 O :    0.639041    0.068016
  18 C :    0.426320    0.007272
  19 H :   -0.169045   -0.000342
  20 H :   -0.160800    0.002071
  21 H :   -0.160643    0.002068
  22 H :   -0.156419   -0.002870

----------------------------------------------------
LOEWDIN REDUCED ORBITAL CHARGES AND SPIN POPULATIONS
----------------------------------------------------
CHARGE
  0 C s       :     2.476795  s :     2.476795
      pz      :     0.615502  p :     2.270991
      px      :     0.828888
      py      :     0.826601
      dz2     :     0.069589  d :     0.655675
      dxz     :     0.112009
      dyz     :     0.039294
      dx2y2   :     0.247990
      dxy     :     0.186792
      f0      :     0.023870  f :     0.341481
      f+1     :     0.034525
      f-1     :     0.020368
      f+2     :     0.023349
      f-2     :     0.042117
      f+3     :     0.121513
      f-3     :     0.075739

  1 C s       :     2.462157  s :     2.462157
      pz      :     0.576957  p :     2.183394
      px      :     0.786870
      py      :     0.819567
      dz2     :     0.100759  d :     1.063250
      dxz     :     0.170240
      dyz     :     0.132076
      dx2y2   :     0.310819
      dxy     :     0.349356
      f0      :     0.038026  f :     0.634147
      f+1     :     0.043230
      f-1     :     0.041510
      f+2     :     0.053498
      f-2     :     0.092983
      f+3     :     0.249934
      f-3     :     0.114966

  2 C s       :     2.484097  s :     2.484097
      pz      :     0.545313  p :     2.223286
      px      :     0.849426
      py      :     0.828546
      dz2     :     0.069492  d :     0.667084
      dxz     :     0.056810
      dyz     :     0.097442
      dx2y2   :     0.225869
      dxy     :     0.217471
      f0      :     0.022138  f :     0.334731
      f+1     :     0.022139
      f-1     :     0.029743
      f+2     :     0.037060
      f-2     :     0.035674
      f+3     :     0.120839
      f-3     :     0.067139

  3 C s       :     2.486461  s :     2.486461
      pz      :     0.588011  p :     2.263824
      px      :     0.841687
      py      :     0.834126
      dz2     :     0.066560  d :     0.651506
      dxz     :     0.087716
      dyz     :     0.039279
      dx2y2   :     0.277874
      dxy     :     0.180077
      f0      :     0.021147  f :     0.326958
      f+1     :     0.031611
      f-1     :     0.020081
      f+2     :     0.014054
      f-2     :     0.042174
      f+3     :     0.132379
      f-3     :     0.065513

  4 C s       :     2.480235  s :     2.480235
      pz      :     0.533434  p :     2.208567
      px      :     0.848190
      py      :     0.826942
      dz2     :     0.069862  d :     0.685773
      dxz     :     0.072328
      dyz     :     0.087822
      dx2y2   :     0.194949
      dxy     :     0.260811
      f0      :     0.021780  f :     0.334649
      f+1     :     0.024766
      f-1     :     0.026292
      f+2     :     0.050416
      f-2     :     0.018454
      f+3     :     0.127089
      f-3     :     0.065852

  5 C s       :     2.464574  s :     2.464574
      pz      :     0.563220  p :     2.227152
      px      :     0.836847
      py      :     0.827086
      dz2     :     0.088737  d :     0.917142
      dxz     :     0.147652
      dyz     :     0.105570
      dx2y2   :     0.282909
      dxy     :     0.292275
      f0      :     0.030070  f :     0.485502
      f+1     :     0.034911
      f-1     :     0.033997
      f+2     :     0.046549
      f-2     :     0.048263
      f+3     :     0.203147
      f-3     :     0.088565

  6 C s       :     2.485665  s :     2.485665
      pz      :     0.576921  p :     2.244760
      px      :     0.849631
      py      :     0.818209
      dz2     :     0.070660  d :     0.672916
      dxz     :     0.110781
      dyz     :     0.023871
      dx2y2   :     0.260116
      dxy     :     0.207488
      f0      :     0.021029  f :     0.316288
      f+1     :     0.033724
      f-1     :     0.017992
      f+2     :     0.020119
      f-2     :     0.026620
      f+3     :     0.133189
      f-3     :     0.063615

  7 C s       :     2.491712  s :     2.491712
      pz      :     0.498663  p :     2.173234
      px      :     0.843264
      py      :     0.831307
      dz2     :     0.064792  d :     0.722682
      dxz     :     0.168606
      dyz     :     0.016423
      dx2y2   :     0.265557
      dxy     :     0.207305
      f0      :     0.025761  f :     0.323281
      f+1     :     0.025380
      f-1     :     0.017938
      f+2     :     0.028663
      f-2     :     0.036670
      f+3     :     0.138487
      f-3     :     0.050382

  8 C s       :     2.456728  s :     2.456728
      pz      :     0.759297  p :     2.275375
      px      :     0.746624
      py      :     0.769454
      dz2     :     0.076620  d :     0.471614
      dxz     :     0.118836
      dyz     :     0.025538
      dx2y2   :     0.144626
      dxy     :     0.105994
      f0      :     0.012053  f :     0.177357
      f+1     :     0.026891
      f-1     :     0.015794
      f+2     :     0.014297
      f-2     :     0.017803
      f+3     :     0.058614
      f-3     :     0.031905

[...]
     48      -0.249472   0.702865  -0.521083
     49      -0.112084   0.309976  -0.228008
     50      -0.000827   0.002271  -0.001654
     51       0.000165  -0.000284   0.000224
     52      -0.000018  -0.000205   0.000184
     53       0.000001  -0.000004   0.000000
     54      -0.000800   0.001062  -0.000579
     55       0.002372  -0.003708   0.002274
     56       0.000169  -0.000383   0.000270
     57       0.012426  -0.017623   0.010349
     58      -0.018729   0.027851  -0.016806
     59      -0.000022   0.000032  -0.000021
     60      -0.000988   0.001055  -0.000648
     61      -0.005344   0.009756  -0.006434
     62       0.008725  -0.015187   0.009761
     63      -0.001435   0.002191  -0.001483
     64      -0.006538   0.012492  -0.008386
     65      -0.010768   0.019862  -0.013078
     66      -0.006073   0.000958  -0.000920
     67      -0.061023   0.014206  -0.007251
     68       0.000036  -0.000013   0.000008


-----------
IR SPECTRUM
-----------

 Mode   freq       eps      Int      T**2         TX        TY        TZ
       cm**-1   L/(mol*cm) km/mol    a.u.
----------------------------------------------------------------------------
  6:     11.89   0.000825    4.17  0.021653  (-0.001096 -0.000893 -0.147144)
  7:     81.84   0.000511    2.58  0.001949  ( 0.003860  0.000893  0.043971)
  8:    107.23   0.000046    0.23  0.000133  ( 0.004796  0.000391 -0.010471)
  9:    130.45   0.000268    1.36  0.000642  (-0.016986  0.018788 -0.000708)
 10:    166.87   0.000380    1.92  0.000710  ( 0.002421  0.000064  0.026533)
 11:    168.91   0.000637    3.22  0.001176  ( 0.000909 -0.000240  0.034286)
 12:    219.09   0.000189    0.96  0.000270  (-0.000719  0.000627  0.016389)
 13:    256.32   0.003519   17.78  0.004285  (-0.062875  0.018202  0.000131)
 14:    260.80   0.000016    0.08  0.000019  ( 0.003593 -0.001098  0.002205)
 15:    335.82   0.005408   27.33  0.005026  ( 0.070736  0.004713  0.000031)
 16:    367.40   0.001030    5.20  0.000875  (-0.026980 -0.012109 -0.000047)
 17:    405.01   0.000012    0.06  0.000009  (-0.000126  0.000036 -0.002975)
 18:    445.57   0.056917  287.64  0.039864  (-0.199463 -0.008845  0.000072)
 19:    556.23   0.043862  221.66  0.024608  (-0.156333  0.012942  0.000481)
 20:    586.87   0.000101    0.51  0.000054  (-0.002670 -0.000345 -0.006823)
 21:    601.64   0.011592   58.58  0.006013  ( 0.000968 -0.000213  0.077535)
 22:    622.74   0.002449   12.37  0.001227  (-0.035000  0.001225 -0.000711)
 23:    756.69   0.016893   85.37  0.006967  ( 0.079399  0.025740 -0.000428)
 24:    777.59   0.008026   40.56  0.003221  ( 0.001400  0.000465  0.056735)
 25:    811.11   0.001661    8.39  0.000639  (-0.001703 -0.000224  0.025222)
 26:    876.66   0.004793   24.22  0.001706  (-0.002620 -0.000900 -0.041211)
 27:    881.83   0.002347   11.86  0.000831  ( 0.010090  0.026976 -0.001046)
 28:    895.96   0.000203    1.03  0.000071  ( 0.002438  0.000634  0.008029)
 29:    945.36   0.111206  561.99  0.036709  (-0.191566 -0.002680  0.002083)
 30:    952.48   0.013237   66.90  0.004337  ( 0.003122 -0.000599  0.065779)
 31:    986.59   0.000637    3.22  0.000201  (-0.001897 -0.000175  0.014063)
 32:    990.12   0.020892  105.58  0.006585  (-0.081094 -0.002888  0.000245)
 33:   1022.05   0.000426    2.15  0.000130  ( 0.001550  0.000817 -0.011273)
 34:   1023.17   0.028577  144.41  0.008716  (-0.091723 -0.017386 -0.000727)
 35:   1127.42   0.006043   30.54  0.001673  ( 0.026905  0.030804  0.000151)
 36:   1147.16   0.114174  576.99  0.031059  ( 0.175975  0.009567 -0.000115)
 37:   1154.31   0.086119  435.21  0.023282  ( 0.152574 -0.001810  0.000127)
 38:   1162.60   0.000108    0.55  0.000029  (-0.003013 -0.000267  0.004455)
 39:   1188.51   0.010018   50.63  0.002630  (-0.051173  0.003417  0.000086)
 40:   1224.87   0.057250  289.32  0.014586  (-0.118964  0.020817 -0.000025)
 41:   1287.63   0.412734  2085.79  0.100028  ( 0.316271 -0.001121 -0.000225)
 42:   1312.41   0.023559  119.06  0.005602  ( 0.068362 -0.030470  0.000129)
 43:   1324.49   0.027592  139.44  0.006501  ( 0.080262  0.007677 -0.000065)
 44:   1340.82   0.053008  267.88  0.012337  (-0.110978  0.004582  0.000099)
 45:   1351.90   0.004341   21.94  0.001002  (-0.031580  0.002137 -0.000463)
 46:   1409.57   0.023190  117.19  0.005134  (-0.070685 -0.011734 -0.000051)
 47:   1419.02   0.004527   22.88  0.000996  ( 0.002457 -0.001349  0.031427)
 48:   1433.31   0.086522  437.25  0.018838  ( 0.134932 -0.025073 -0.001519)
 49:   1453.96   0.016502   83.39  0.003542  (-0.054820  0.023123  0.001397)
 50:   1465.93   0.002541   12.84  0.000541  (-0.020284  0.011332  0.001047)
 51:   1469.17   0.004738   23.94  0.001006  (-0.011188  0.003748 -0.029448)
 52:   1479.06   0.010423   52.67  0.002199  ( 0.039128 -0.025804 -0.001469)
 53:   1491.48   0.000147    0.74  0.000031  ( 0.003840 -0.003894 -0.000912)
 54:   1529.31   0.467423  2362.17  0.095380  (-0.308588 -0.012401  0.000253)
 55:   1570.98   0.073973  373.83  0.014694  ( 0.120225  0.015492 -0.000049)
 56:   1609.34   0.075254  380.30  0.014592  ( 0.109492  0.051029  0.000084)
 57:   3000.58   0.006727   34.00  0.000700  (-0.026034 -0.004678  0.000109)
 58:   3043.44   0.000194    0.98  0.000020  ( 0.000739  0.000100  0.004395)
 59:   3044.79   0.023260  117.55  0.002384  (-0.047977 -0.009067  0.000041)
 60:   3128.35   0.013997   70.73  0.001396  ( 0.031299  0.020411  0.000053)
 61:   3134.15   0.003306   16.71  0.000329  ( 0.000026  0.000125  0.018142)
 62:   3147.10   0.005423   27.41  0.000538  ( 0.021241  0.009303  0.000111)
 63:   3168.13   0.001948    9.84  0.000192  (-0.002883  0.013549 -0.000039)
 64:   3174.88   0.003160   15.97  0.000311  ( 0.012532 -0.012392 -0.000033)
 65:   3191.03   0.000308    1.56  0.000030  ( 0.005465 -0.000524 -0.000082)
 66:   3200.77   0.000918    4.64  0.000090  (-0.007254 -0.006075 -0.000006)
 67:   3219.58   0.000872    4.40  0.000084  (-0.007903  0.004691  0.000128)
 68:   3223.48   0.000079    0.40  0.000008  ( 0.001781  0.002116 -0.000022)

* The epsilon (eps) is given for a Dirac delta lineshape.
** The dipole moment derivative (T) already includes vibrational overlap.

The first frequency considered to be a vibration is 6
The total number of vibrations considered is 63


--------------------------
THERMOCHEMISTRY AT 298.15K
--------------------------

Temperature         ...   298.15 K
Pressure            ...     1.00 atm
Total Mass          ...   148.21 AMU
Quasi RRHO          ...     True
Cut-Off Frequency   ...     1.00 cm^-1

Throughout the following assumptions are being made:
  (1) The electronic state is orbitally nondegenerate
      but the spin degeneracy is treated
  (2) There are no thermally accessible electronically excited states
  (3) Hindered rotations indicated by low frequency modes are not
      treated as such but are treated as vibrations and this may
      cause some error
  (4) All equations used are the standard statistical mechanics
      equations for an ideal gas
  (5) All vibrations are strictly harmonic

freq.      11.89  E(vib)   ...       0.58 
freq.      81.84  E(vib)   ...       0.48 
freq.     107.23  E(vib)   ...       0.45 
freq.     130.45  E(vib)   ...       0.43 
freq.     166.87  E(vib)   ...       0.39 
freq.     168.91  E(vib)   ...       0.38 
freq.     219.09  E(vib)   ...       0.33 
freq.     256.32  E(vib)   ...       0.30 
freq.     260.80  E(vib)   ...       0.30 
freq.     335.82  E(vib)   ...       0.24 
freq.     367.40  E(vib)   ...       0.21 
freq.     405.01  E(vib)   ...       0.19 
freq.     445.57  E(vib)   ...       0.17 
freq.     556.23  E(vib)   ...       0.12 
freq.     586.87  E(vib)   ...       0.11 
freq.     601.64  E(vib)   ...       0.10 
freq.     622.74  E(vib)   ...       0.09 
freq.     756.69  E(vib)   ...       0.06 
freq.     777.59  E(vib)   ...       0.05 
freq.     811.11  E(vib)   ...       0.05 
freq.     876.66  E(vib)   ...       0.04 
freq.     881.83  E(vib)   ...       0.04 
freq.     895.96  E(vib)   ...       0.03 
freq.     945.36  E(vib)   ...       0.03 
freq.     952.48  E(vib)   ...       0.03 
freq.     986.59  E(vib)   ...       0.02 
freq.     990.12  E(vib)   ...       0.02 
freq.    1022.05  E(vib)   ...       0.02 
freq.    1023.17  E(vib)   ...       0.02 
freq.    1127.42  E(vib)   ...       0.01 
freq.    1147.16  E(vib)   ...       0.01 
freq.    1154.31  E(vib)   ...       0.01 
freq.    1162.60  E(vib)   ...       0.01 
freq.    1188.51  E(vib)   ...       0.01 
freq.    1224.87  E(vib)   ...       0.01 
freq.    1287.63  E(vib)   ...       0.01 
freq.    1312.41  E(vib)   ...       0.01 
freq.    1324.49  E(vib)   ...       0.01 
freq.    1340.82  E(vib)   ...       0.01 
freq.    1351.90  E(vib)   ...       0.01 
freq.    1409.57  E(vib)   ...       0.00 
freq.    1419.02  E(vib)   ...       0.00 
freq.    1433.31  E(vib)   ...       0.00 
freq.    1453.96  E(vib)   ...       0.00 
freq.    1465.93  E(vib)   ...       0.00 
freq.    1469.17  E(vib)   ...       0.00 
freq.    1479.06  E(vib)   ...       0.00 
freq.    1491.48  E(vib)   ...       0.00 
freq.    1529.31  E(vib)   ...       0.00 
freq.    1570.98  E(vib)   ...       0.00 
freq.    1609.34  E(vib)   ...       0.00 
freq.    3000.58  E(vib)   ...       0.00 
freq.    3043.44  E(vib)   ...       0.00 
freq.    3044.79  E(vib)   ...       0.00 
freq.    3128.35  E(vib)   ...       0.00 
freq.    3134.15  E(vib)   ...       0.00 
freq.    3147.10  E(vib)   ...       0.00 
freq.    3168.13  E(vib)   ...       0.00 
freq.    3174.88  E(vib)   ...       0.00 
freq.    3191.03  E(vib)   ...       0.00 
freq.    3200.77  E(vib)   ...       0.00 
freq.    3219.58  E(vib)   ...       0.00 
freq.    3223.48  E(vib)   ...       0.00 

------------
INNER ENERGY
------------

The inner energy is: U= E(el) + E(ZPE) + E(vib) + E(rot) + E(trans)
    E(el)   - is the total energy from the electronic structure calculation
              = E(kin-el) + E(nuc-el) + E(el-el) + E(nuc-nuc)
    E(ZPE)  - the the zero temperature vibrational energy from the frequency calculation
    E(vib)  - the the finite temperature correction to E(ZPE) due to population
              of excited vibrational states
    E(rot)  - is the rotational thermal energy
    E(trans)- is the translational thermal energy

Summary of contributions to the inner energy U:
Electronic energy                ...   -463.20249015 Eh
Zero point energy                ...      0.19107863 Eh     119.90 kcal/mol
Thermal vibrational correction   ...      0.00862838 Eh       5.41 kcal/mol
Thermal rotational correction    ...      0.00141627 Eh       0.89 kcal/mol
Thermal translational correction ...      0.00141627 Eh       0.89 kcal/mol
-----------------------------------------------------------------------
Total thermal energy                   -462.99995060 Eh


Summary of corrections to the electronic energy:
(perhaps to be used in another calculation)
Total thermal correction                  0.01146092 Eh       7.19 kcal/mol
Non-thermal (ZPE) correction              0.19107863 Eh     119.90 kcal/mol
-----------------------------------------------------------------------
Total correction                          0.20253955 Eh     127.10 kcal/mol


--------
ENTHALPY
--------

The enthalpy is H = U + kB*T
                kB is Boltzmann's constant
Total thermal energy              ...   -462.99995060 Eh 
Thermal Enthalpy correction       ...      0.00094421 Eh       0.59 kcal/mol
-----------------------------------------------------------------------
Total Enthalpy                    ...   -462.99900639 Eh


Note: Only C1 symmetry has been detected, increase convergence thresholds 
      if your molecule has a higher symmetry. Symmetry factor of 1.0 is   
      used for the rotational entropy correction. 
 

Note: Rotational entropy computed according to Herzberg 
Infrared and Raman Spectra, Chapter V,1, Van Nostrand Reinhold, 1945 
Point Group:  C1, Symmetry Number:   1  
Rotational constants in cm-1:     0.104893     0.017172     0.014838 

Vibrational entropy computed according to the QRRHO of S. Grimme
Chem.Eur.J. 2012 18 9955 using a reference frequency of 100.0 cm-1


-------
ENTROPY
-------

The entropy contributions are T*S = T*(S(el)+S(vib)+S(rot)+S(trans))
     S(el)   - electronic entropy
     S(vib)  - vibrational entropy
     S(rot)  - rotational entropy
     S(trans)- translational entropy
The entropies will be listed as multiplied by the temperature to get
units of energy

Electronic entropy                ...      0.00065446 Eh      0.41 kcal/mol
Vibrational entropy               ...      0.01550916 Eh      9.73 kcal/mol
Rotational entropy                ...      0.01448183 Eh      9.09 kcal/mol
Translational entropy             ...      0.01942844 Eh     12.19 kcal/mol
-----------------------------------------------------------------------
Final entropy term                ...      0.05007388 Eh     31.42 kcal/mol

In case the symmetry of your molecule has not been determined correctly
or in case you have a reason to use a different symmetry number we print 
out the resulting rotational entropy values for sn=1,12:

 non-linear molecules -----------------------------------
|  sn= 1 | S(rot)=       0.01448183 Eh      9.09 kcal/mol|
|  sn= 2 | S(rot)=       0.01382737 Eh      8.68 kcal/mol|
|  sn= 3 | S(rot)=       0.01344454 Eh      8.44 kcal/mol|
|  sn= 4 | S(rot)=       0.01317291 Eh      8.27 kcal/mol|
|  sn= 5 | S(rot)=       0.01296223 Eh      8.13 kcal/mol|
|  sn= 6 | S(rot)=       0.01279008 Eh      8.03 kcal/mol|
|  sn= 7 | S(rot)=       0.01264454 Eh      7.93 kcal/mol|
|  sn= 8 | S(rot)=       0.01251846 Eh      7.86 kcal/mol|
|  sn= 9 | S(rot)=       0.01240725 Eh      7.79 kcal/mol|
|  sn=10 | S(rot)=       0.01230777 Eh      7.72 kcal/mol|
|  sn=11 | S(rot)=       0.01221778 Eh      7.67 kcal/mol|
|  sn=12 | S(rot)=       0.01213563 Eh      7.62 kcal/mol|
 linear molecules ---------------------------------------
|  Dinfh | S(rot)=       0.00930132 Eh      5.84 kcal/mol|
|  Cinfv | S(rot)=       0.00995577 Eh      6.25 kcal/mol|
 --------------------------------------------------------


-------------------
GIBBS FREE ENERGY
-------------------

The Gibbs free energy is G = H - T*S

Total enthalpy                    ...   -462.99900639 Eh 
Total entropy correction          ...     -0.05007388 Eh    -31.42 kcal/mol
-----------------------------------------------------------------------
Final Gibbs free energy         ...   -463.04908027 Eh

For completeness - the Gibbs free energy minus the electronic energy
G-E(el)                           ...      0.15340987 Eh     96.27 kcal/mol


Maximum memory used throughout the entire PROP-calculation: 177.5 MB

--------------------------------
SUGGESTED CITATIONS FOR THIS RUN
--------------------------------

Below you find a list of papers that are relevant to this ORCA run
We neither can nor want to force you to cite these papers, but we appreciate if you do
You receive ORCA, which is the product of decades of hard work by many enthusiastic individuals, for free
The only thing we kindly ask in return is that you cite our papers,
We deeply appreciate it, if you show your appreciation for ORCA by not just citing the generic ORCA reference.

Please note that relegating all ORCA citations to the supporting information does *not* help us.
SI sections are not indexed - citations you put there will not count into any citation statistics
But we need these citations in order to attract the funding resources that allow us to do what we are doing

Therefore, if you are a happy ORCA user, please consider citing a few of the papers listed below in the main body of your paper

In addition to the list printed below, the program has created the file cs_rporg_018_ox_freq_06.bibtex that contains the list in bibtex format
You can import this file easily into all common literature databanks and citation aid programs


List of essential papers. We consider these as the minimum necessary citations

  1. Neese,F.
     Software update: the ORCA program system, version 5.0
     WIRES Comput. Molec. Sci., 2022 12(1)e1606
     doi.org/10.1002/wcms.1606

List of papers to cite with high priority. The work reported in these papers was absolutely
necessary for this run to complete.
Our perspective: the developers of density functionals and basis sets usually get cited in chemistry papers
Good! But without the algorithms to do something with them, the functionals or basis sets would not do anything.
Hence, in our opinion, the algorithm design and method developments papers are equally worthy of getting cited

  1. Neese,F.
     An improvement of the resolution of the identity approximation for the formation of the Coulomb matrix
     J. Comp. Chem., 2003 24(14)1740-1747
     doi.org/10.1002/jcc.10318
  2. Bykov,D.; Petrenko,T.; Izsak,R.; Kossmann,S.; Becker,U.; Valeev,E.; Neese,F.
     Efficient implementation of the analytic second derivatives of Hartree-Fock and hybrid DFT energies: a detailed analysis of different approximations
     Molec. Phys., 2015 113 1961-1977
     doi.org/10.1080/00268976.2015.1025114
  3. Garcia-Rates,M.; Neese,F.
     Efficient implementation of the analytical second derivatives of hartree-fock and hybrid DFT energies within the framework of the conductor-like polarizable continuum model
     J. Comput. Chem., 2019 40 1816-1828
     doi.org/10.1002/jcc.25833
  4. Garcia-Rates,M.; Neese,F.
     Effect of the Solute Cavity on the Solvation Energy and its Derivatives within the Framework of the Gaussian Charge Scheme
     J. Comput. Chem., 2020 41 922-939
     doi.org/10.1002/jcc.26139
  5. Neese,F.
     The SHARK Integral Generation and Digestion System
     J. Comp. Chem., 2022  1-16
     doi.org/10.1002/jcc.26942
  6. Lehtola,S.; Steigemann,C.; Oliveira,M.; Marques,M.
     Recent developments in Libxc - A comprehensive library of functionals for density functional theory
     Software X, 2018 7 
     doi.org/10.1016/j.softx.2017.11.002
  7. Grimme,S.; Antony,J.; Ehrlich,S.; Krieg,H.
     A consistent and accurate ab initio parametrization of density functional dispersion correction (DFT-D) for the 94 elements H-Pu
     J. Chem. Phys., 2010 132 154104-XXXX
     doi.org/10.1063/1.3382344
  8. Grimme,S.; Ehrlich,S.; Goerigk,L.
     Effect of the damping function in dispersion corrected density functional theory
     J. Comput. Chem., 2011 32(7)1456-1465
     doi.org/10.1002/jcc.21759

List of suggested additional citations. These are papers that are important in the 'surrounding' of 
of this run, or papers that preceded the highly important papers. If you like your results we are grateful for a citation.

  1. Neese,F.
     The ORCA program system
     WIRES Comput. Molec. Sci., 2012 2(1)73-78
     doi.org/10.1002/wcms.81
  2. Neese,F.
     Software update: the ORCA program system, version 4.0
     WIRES Comput. Molec. Sci., 2018 8(1)1-6
     doi.org/10.1002/wcms.1327
  3. Neese,F.; Wennmohs,F.; Becker,U.; Riplinger,C.
     The ORCA quantum chemistry program package
     J. Chem. Phys., 2020 152 Art. No. L224108
     doi.org/10.1063/5.0004608

List of optional additional citations

  1. Neese,F.
     Approximate second-order SCF convergence for spin unrestricted wavefunctions
     Chem. Phys. Lett., 2000 325(1-3)93-98
     doi.org/10.1016/s0009-2614(00)00662-x

Timings for individual modules:

Sum of individual times          ...     4833.881 sec (=  80.565 min)
Startup calculation              ...        8.152 sec (=   0.136 min)   0.2 %
SCF iterations                   ...      321.905 sec (=   5.365 min)   6.7 %
Property integrals               ...     2348.324 sec (=  39.139 min)  48.6 %
SCF Response                     ...     1885.596 sec (=  31.427 min)  39.0 %
Property calculations            ...      269.903 sec (=   4.498 min)   5.6 %
                             ****ORCA TERMINATED NORMALLY****
TOTAL RUN TIME: 0 days 1 hours 20 minutes 38 seconds 295 msec
