 vasp.6.4.2 20Jul23 (build Sep 06 2024 14:39:43) complex                        
  
 executed on             LinuxIFC date 2025.08.29  07:31:34
 running   90 mpi-ranks, on    6 nodes
 distrk:  each k-point on   90 cores,    1 groups
 distr:  one band on NCORE=  30 cores,    3 groups


--------------------------------------------------------------------------------------------------------


 INCAR:
   SYSTEM = 162_ox
   ISTART = 1
   ICHARG = 2
   INIWAV = 1
   LHFCALC = .TRUE.
   HFSCREEN = 0.2
   NELM = 500
   ALGO = Damped
   ISPIN = 2
   EDIFF = 1E-05
   ISMEAR = 0
   SIGMA = 0.05
   PREC = accurate
   ENCUT = 500
   LREAL = auto  	
   LDIAG = .FALSE.
   LWAVE = .TRUE.
   LCHARG = .FALSE.
   LAECHG = .FALSE.
   LVHAR = .FALSE.
   LVTOT = .FALSE.
   EDIFFG = -0.02
   IBRION = 2
   NSW = 0
   ISIF = 2
   POTIM = 0.5
   IVDW = 12
   VDW_A1 = 0.383
   VDW_S8 = 2.310
   VDW_A2 = 5.685
   LPLANE = .TRUE.
   NCORE = 30
   LSCALU = .FALSE.
   NSIM = 4
   LSOL = .TRUE.
   EB_K = 35.6880
   LAMBDA_D_K = 3.04
   TAU = 0

 POTCAR:    PAW_PBE C 08Apr2002                   
 POTCAR:    PAW_PBE N 08Apr2002                   
 POTCAR:    PAW_PBE H 15Jun2001                   
 -----------------------------------------------------------------------------
|                                                                             |
|           W    W    AA    RRRRR   N    N  II  N    N   GGGG   !!!           |
|           W    W   A  A   R    R  NN   N  II  NN   N  G    G  !!!           |
|           W    W  A    A  R    R  N N  N  II  N N  N  G       !!!           |
|           W WW W  AAAAAA  RRRRR   N  N N  II  N  N N  G  GGG   !            |
|           WW  WW  A    A  R   R   N   NN  II  N   NN  G    G                |
|           W    W  A    A  R    R  N    N  II  N    N   GGGG   !!!           |
|                                                                             |
|     You use a magnetic or noncollinear calculation, but did not specify     |
|     the initial magnetic moment with the MAGMOM tag. Note that a            |
|     default of 1 will be used for all atoms. This ferromagnetic setup       |
|     may break the symmetry of the crystal, in particular it may rule        |
|     out finding an antiferromagnetic solution. Thence, we recommend         |
|     setting the initial magnetic moment manually or verifying carefully     |
|     that this magnetic setup is desired.                                    |
|                                                                             |
 -----------------------------------------------------------------------------

 -----------------------------------------------------------------------------
|                                                                             |
|           W    W    AA    RRRRR   N    N  II  N    N   GGGG   !!!           |
|           W    W   A  A   R    R  NN   N  II  NN   N  G    G  !!!           |
|           W    W  A    A  R    R  N N  N  II  N N  N  G       !!!           |
|           W WW W  AAAAAA  RRRRR   N  N N  II  N  N N  G  GGG   !            |
|           WW  WW  A    A  R   R   N   NN  II  N   NN  G    G                |
|           W    W  A    A  R    R  N    N  II  N    N   GGGG   !!!           |
|                                                                             |
|     For optimal performance we recommend to set                             |
|       NCORE = 2 up to number-of-cores-per-socket                            |
|     NCORE specifies how many cores store one orbital (NPAR=cpu/NCORE).      |
|     This setting can greatly improve the performance of VASP for DFT.       |
|     The default, NCORE=1 might be grossly inefficient on modern             |
|     multi-core architectures or massively parallel machines. Do your        |
|     own testing! More info at https://www.vasp.at/wiki/index.php/NCORE      |
|     Unfortunately you need to use the default for GW and RPA                |
|     calculations (for HF NCORE is supported but not extensively tested      |
|     yet).                                                                   |
|                                                                             |
 -----------------------------------------------------------------------------

 POTCAR:    PAW_PBE C 08Apr2002                   
   SHA256 =  253f7b50bb8d59471dbedb8285d89021f4a42ed1a2c5d38a03a736e69125dd95 C/POTCAR              
   COPYR  = (c) Copyright 08Apr2002 Georg Kresse                                                    
   COPYR  = This file is part of the software VASP. Any use, copying, and all other rights are regul
   COPYR  = If you do not have a valid VASP license, you may not use, copy or distribute this file. 
   VRHFIN =C: s2p2                                                                                  
   LEXCH  = PE                                                                                      
   EATOM  =   147.1560 eV,   10.8157 Ry                                                             
                                                                                                    
   TITEL  = PAW_PBE C 08Apr2002                                                                     
   LULTRA =        F    use ultrasoft PP ?                                                          
   IUNSCR =        1    unscreen: 0-lin 1-nonlin 2-no                                               
   RPACOR =    1.200    partial core radius                                                         
   POMASS =   12.011; ZVAL   =    4.000    mass and valenz                                          
   RCORE  =    1.500    outmost cutoff radius                                                       
   RWIGS  =    1.630; RWIGS  =    0.863    wigner-seitz radius (au A)                               
   ENMAX  =  400.000; ENMIN  =  300.000 eV                                                          
   ICORE  =        2    local potential                                                             
   LCOR   =        T    correct aug charges                                                         
   LPAW   =        T    paw PP                                                                      
   EAUG   =  644.873                                                                                
   DEXC   =    0.000                                                                                
   RMAX   =    1.529    core radius for proj-oper                                                   
   RAUG   =    1.300    factor for augmentation sphere                                              
   RDEP   =    1.501    radius for radial grids                                                     
   RDEPT  =    1.300    core radius for aug-charge                                                  
                                                                                                    
   Atomic configuration                                                                             
    4 entries                                                                                       
     n  l   j            E        occ.                                                              
     1  0  0.50      -273.3789   2.0000                                                             
     2  0  0.50       -13.7508   2.0000                                                             
     2  1  0.50        -5.2854   2.0000                                                             
     3  2  1.50        -5.4423   0.0000                                                             
   Description                                                                                      
     l       E           TYP  RCUT    TYP  RCUT                                                     
     0    -13.7508458     23  1.200                                                                 
     0     -8.2022199     23  1.200                                                                 
     1     -5.2854383     23  1.500                                                                 
     1     34.0145650     23  1.500                                                                 
     2     -5.4423304      7  1.500                                                                 
  local pseudopotential read in
  partial core-charges read in
  partial kinetic energy density read in
  atomic valenz-charges read in
  non local Contribution for L=           0  read in
    real space projection operators read in
  non local Contribution for L=           0  read in
    real space projection operators read in
  non local Contribution for L=           1  read in
    real space projection operators read in
  non local Contribution for L=           1  read in
    real space projection operators read in
    PAW grid and wavefunctions read in
 
   number of l-projection  operators is LMAX  =           4
   number of lm-projection operators is LMMAX =           8
 
 POTCAR:    PAW_PBE N 08Apr2002                   
   SHA256 =  e053789ff3a61a86a1b75d8a110fcc91f86041011e7b0817c7c99e4e8a6349d7 N/POTCAR              
   COPYR  = (c) Copyright 08Apr2002 Georg Kresse                                                    
   COPYR  = This file is part of the software VASP. Any use, copying, and all other rights are regul
   COPYR  = If you do not have a valid VASP license, you may not use, copy or distribute this file. 
   VRHFIN =N: s2p3                                                                                  
   LEXCH  = PE                                                                                      
   EATOM  =   264.5486 eV,   19.4438 Ry                                                             
                                                                                                    
   TITEL  = PAW_PBE N 08Apr2002                                                                     
   LULTRA =        F    use ultrasoft PP ?                                                          
   IUNSCR =        1    unscreen: 0-lin 1-nonlin 2-no                                               
   RPACOR =    1.200    partial core radius                                                         
   POMASS =   14.001; ZVAL   =    5.000    mass and valenz                                          
   RCORE  =    1.500    outmost cutoff radius                                                       
   RWIGS  =    1.400; RWIGS  =    0.741    wigner-seitz radius (au A)                               
   ENMAX  =  400.000; ENMIN  =  300.000 eV                                                          
   ICORE  =        2    local potential                                                             
   LCOR   =        T    correct aug charges                                                         
   LPAW   =        T    paw PP                                                                      
   EAUG   =  627.112                                                                                
   DEXC   =    0.000                                                                                
   RMAX   =    1.529    core radius for proj-oper                                                   
   RAUG   =    1.300    factor for augmentation sphere                                              
   RDEP   =    1.514    radius for radial grids                                                     
   RDEPT  =    1.338    core radius for aug-charge                                                  
                                                                                                    
   Atomic configuration                                                                             
    4 entries                                                                                       
     n  l   j            E        occ.                                                              
     1  0  0.50      -384.7179   2.0000                                                             
     2  0  0.50       -18.5828   2.0000                                                             
     2  1  0.50        -7.0898   3.0000                                                             
     3  2  1.50        -6.8029   0.0000                                                             
   Description                                                                                      
     l       E           TYP  RCUT    TYP  RCUT                                                     
     0    -18.5828119     23  1.200                                                                 
     0    -13.5018863     23  1.200                                                                 
     1     -7.0897853     23  1.500                                                                 
     1      9.5240782     23  1.500                                                                 
     2     -6.8029130      7  1.500                                                                 
  local pseudopotential read in
  partial core-charges read in
  partial kinetic energy density read in
  atomic valenz-charges read in
  non local Contribution for L=           0  read in
    real space projection operators read in
  non local Contribution for L=           0  read in
    real space projection operators read in
  non local Contribution for L=           1  read in
    real space projection operators read in
  non local Contribution for L=           1  read in
    real space projection operators read in
    PAW grid and wavefunctions read in
 
   number of l-projection  operators is LMAX  =           4
   number of lm-projection operators is LMMAX =           8
 
 POTCAR:    PAW_PBE H 15Jun2001                   
   SHA256 =  030f79b5d3ab3cf0e668861823c8fb652ff669f3e15e46930bd03bfd63a607b6 H/POTCAR              
   COPYR  = (c) Copyright 15Jun2001 Georg Kresse                                                    
   COPYR  = This file is part of the software VASP. Any use, copying, and all other rights are regul
   COPYR  = If you do not have a valid VASP license, you may not use, copy or distribute this file. 
   VRHFIN =H: ultrasoft test                                                                        
   LEXCH  = PE                                                                                      
   EATOM  =    12.4884 eV,    0.9179 Ry                                                             
                                                                                                    
   TITEL  = PAW_PBE H 15Jun2001                                                                     
   LULTRA =        F    use ultrasoft PP ?                                                          
   IUNSCR =        0    unscreen: 0-lin 1-nonlin 2-no                                               
   RPACOR =    0.000    partial core radius                                                         
   POMASS =    1.000; ZVAL   =    1.000    mass and valenz                                          
   RCORE  =    1.100    outmost cutoff radius                                                       
   RWIGS  =    0.700; RWIGS  =    0.370    wigner-seitz radius (au A)                               
   ENMAX  =  250.000; ENMIN  =  200.000 eV                                                          
   RCLOC  =    0.701    cutoff for local pot                                                        
   LCOR   =        T    correct aug charges                                                         
   LPAW   =        T    paw PP                                                                      
   EAUG   =  400.000                                                                                
   RMAX   =    1.123    core radius for proj-oper                                                   
   RAUG   =    1.200    factor for augmentation sphere                                              
   RDEP   =    1.112    radius for radial grids                                                     
   RDEPT  =    0.926    core radius for aug-charge                                                  
                                                                                                    
   Atomic configuration                                                                             
    2 entries                                                                                       
     n  l   j            E        occ.                                                              
     1  0  0.50        -6.4927   1.0000                                                             
     2  1  0.50        -3.4015   0.0000                                                             
   Description                                                                                      
     l       E           TYP  RCUT    TYP  RCUT                                                     
     0     -6.4927494     23  1.100                                                                 
     0      6.8029130     23  1.100                                                                 
     1     -4.0817478     23  1.100                                                                 
  local pseudopotential read in
  atomic valenz-charges read in
  non local Contribution for L=           0  read in
    real space projection operators read in
  non local Contribution for L=           0  read in
    real space projection operators read in
  non local Contribution for L=           1  read in
    real space projection operators read in
    PAW grid and wavefunctions read in
 
   number of l-projection  operators is LMAX  =           3
   number of lm-projection operators is LMMAX =           5
 
 Optimization of the real space projectors (new method)

 maximal supplied QI-value         = 25.13
 optimisation between [QCUT,QGAM] = [ 11.31, 22.87] = [ 35.82,146.48] Ry 
 Optimized for a Real-space Cutoff    1.03 Angstroem

   l    n(q)    QCUT    max X(q) W(low)/X(q) W(high)/X(q)  e(spline) 
   0      7    11.310   115.676    0.20E-03    0.90E-03    0.20E-06
   0      7    11.310    87.132    0.20E-03    0.89E-03    0.19E-06
   1      6    11.310     4.429    0.16E-03    0.28E-03    0.12E-06
   1      6    11.310     2.733    0.12E-03    0.21E-03    0.99E-07
 Optimization of the real space projectors (new method)

 maximal supplied QI-value         = 25.13
 optimisation between [QCUT,QGAM] = [ 11.31, 22.87] = [ 35.82,146.48] Ry 
 Optimized for a Real-space Cutoff    1.43 Angstroem

   l    n(q)    QCUT    max X(q) W(low)/X(q) W(high)/X(q)  e(spline) 
   0     10    11.310    79.467    0.42E-04    0.81E-04    0.60E-06
   0     10    11.310    66.151    0.40E-04    0.81E-04    0.60E-06
   1      9    11.310    17.416    0.14E-03    0.88E-04    0.14E-05
   1      9    11.310    12.382    0.15E-03    0.93E-04    0.14E-05
 Optimization of the real space projectors (new method)

 maximal supplied QI-value         = 34.20
 optimisation between [QCUT,QGAM] = [ 11.29, 22.57] = [ 35.68,142.71] Ry 
 Optimized for a Real-space Cutoff    1.20 Angstroem

   l    n(q)    QCUT    max X(q) W(low)/X(q) W(high)/X(q)  e(spline) 
   0      8    11.287    19.460    0.22E-03    0.50E-03    0.19E-06
   0      8    11.287    12.209    0.21E-03    0.48E-03    0.18E-06
   1      8    11.287     4.655    0.21E-03    0.11E-04    0.26E-06
  PAW_PBE C 08Apr2002                   :
 energy of atom  1       EATOM= -147.1560
 kinetic energy error for atom=    0.0076 (will be added to EATOM!!)
  PAW_PBE N 08Apr2002                   :
 energy of atom  2       EATOM= -264.5486
 kinetic energy error for atom=    0.0138 (will be added to EATOM!!)
  PAW_PBE H 15Jun2001                   :
 energy of atom  3       EATOM=  -12.4884
 kinetic energy error for atom=    0.0020 (will be added to EATOM!!)
 
 
 POSCAR: C N H
  positions in direct lattice
  velocities in cartesian coordinates
 exchange correlation table for  LEXCH =        8
   RHO(1)=    0.500       N(1)  =     2000
   RHO(2)=  100.500       N(2)  =     4000
 


--------------------------------------------------------------------------------------------------------


 ion  position               nearest neighbor table
   1  0.470  0.490  0.500-   6 1.40   2 1.41   8 1.43
   2  0.470  0.525  0.500-  14 1.09   3 1.39   1 1.41
   3  0.500  0.543  0.500-  13 1.09   4 1.39   2 1.39
   4  0.530  0.525  0.500-  12 1.09   3 1.39   5 1.41
   5  0.530  0.490  0.500-   6 1.40   4 1.41   7 1.43
   6  0.500  0.472  0.500-  11 1.09   1 1.40   5 1.40
   7  0.561  0.472  0.500-   9 1.17   5 1.43
   8  0.439  0.472  0.500-  10 1.17   1 1.43
   9  0.587  0.458  0.500-   7 1.17
  10  0.413  0.458  0.500-   8 1.17
  11  0.500  0.445  0.500-   6 1.09
  12  0.554  0.539  0.500-   4 1.09
  13  0.500  0.570  0.500-   3 1.09
  14  0.446  0.539  0.500-   2 1.09
 
  LATTYP: Found a simple cubic cell.
 ALAT       =    40.0000000000
  
  Lattice vectors:
  
 A1 = (  40.0000000000,   0.0000000000,   0.0000000000)
 A2 = (   0.0000000000,  40.0000000000,   0.0000000000)
 A3 = (   0.0000000000,   0.0000000000,  40.0000000000)


Analysis of symmetry for initial positions (statically):
=====================================================================
 Subroutine PRICEL returns:
 Original cell was already a primitive cell.
 

 Routine SETGRP: Setting up the symmetry group for a 
 simple cubic supercell.


 Subroutine GETGRP returns: Found  1 space group operations
 (whereof  1 operations were pure point group operations)
 out of a pool of 48 trial point group operations.


The static configuration has the point symmetry C_1 .


Analysis of symmetry for dynamics (positions and initial velocities):
=====================================================================
 Subroutine PRICEL returns:
 Original cell was already a primitive cell.
 

 Routine SETGRP: Setting up the symmetry group for a 
 simple cubic supercell.


 Subroutine GETGRP returns: Found  1 space group operations
 (whereof  1 operations were pure point group operations)
 out of a pool of 48 trial point group operations.


The dynamic configuration has the point symmetry C_1 .


Analysis of constrained symmetry for selective dynamics:
=====================================================================
 Subroutine PRICEL returns:
 Original cell was already a primitive cell.
 

 Routine SETGRP: Setting up the symmetry group for a 
 simple cubic supercell.


 Subroutine GETGRP returns: Found  1 space group operations
 (whereof  1 operations were pure point group operations)
 out of a pool of 48 trial point group operations.


The constrained configuration has the point symmetry C_1 .


Analysis of structural, dynamic, and magnetic symmetry:
=====================================================================
 Subroutine PRICEL returns:
 Original cell was already a primitive cell.
 

 Routine SETGRP: Setting up the symmetry group for a 
 simple cubic supercell.


 Subroutine GETGRP returns: Found  1 space group operations
 (whereof  1 operations were pure point group operations)
 out of a pool of 48 trial point group operations.


The overall configuration has the point symmetry C_1 .


 Subroutine INISYM returns: Found  1 space group operations
 (whereof  1 operations are pure point group operations),
 and found     1 'primitive' translations


----------------------------------------------------------------------------------------

                                     Primitive cell                                     

  volume of cell :   64000.0000

  direct lattice vectors                    reciprocal lattice vectors
    40.000000000  0.000000000  0.000000000     0.025000000  0.000000000  0.000000000
     0.000000000 40.000000000  0.000000000     0.000000000  0.025000000  0.000000000
     0.000000000  0.000000000 40.000000000     0.000000000  0.000000000  0.025000000

  length of vectors
    40.000000000 40.000000000 40.000000000     0.025000000  0.025000000  0.025000000

  position of ions in fractional coordinates (direct lattice)
     0.469813652  0.490231383  0.500000826
     0.469723568  0.525443836  0.500003876
     0.500000725  0.542734714  0.500000364
     0.530276867  0.525442103  0.499993182
     0.530186076  0.490229467  0.499990266
     0.499999290  0.472366824  0.499993873
     0.561136625  0.472400117  0.500002160
     0.438862548  0.472403489  0.499999886
     0.586516760  0.457935925  0.500024146
     0.413481360  0.457939157  0.499996540
     0.499998700  0.445153973  0.499992430
     0.553965633  0.538873793  0.499991546
     0.500000998  0.569971430  0.500003024
     0.446035199  0.538875789  0.500008879

  ion indices of the primitive-cell ions
   primitive index   ion index
                 1           1
                 2           2
                 3           3
                 4           4
                 5           5
                 6           6
                 7           7
                 8           8
                 9           9
                10          10
                11          11
                12          12
                13          13
                14          14

----------------------------------------------------------------------------------------

 
 
 KPOINTS: K-Point Grid                            

Automatic generation of k-mesh.
 Grid dimensions read from file:
 generate k-points for:    1    1    1

 Generating k-lattice:

  Cartesian coordinates                     Fractional coordinates (reciprocal lattice)
     0.025000000  0.000000000  0.000000000     1.000000000  0.000000000  0.000000000
     0.000000000  0.025000000  0.000000000     0.000000000  1.000000000  0.000000000
     0.000000000  0.000000000  0.025000000     0.000000000  0.000000000  1.000000000

  Length of vectors
     0.025000000  0.025000000  0.025000000

  Shift w.r.t. Gamma in fractional coordinates (k-lattice)
     0.000000000  0.000000000  0.000000000

 
 Subroutine IBZKPT returns following result:
 ===========================================
 
 Found      1 irreducible k-points:
 
 Following reciprocal coordinates:
            Coordinates               Weight
  0.000000  0.000000  0.000000      1.000000
 
 Following cartesian coordinates:
            Coordinates               Weight
  0.000000  0.000000  0.000000      1.000000
 
 
 Subroutine IBZKPT_HF returns following result:
 ==============================================
 
 Found      1 k-points in 1st BZ
 the following      1 k-points will be used (e.g. in the exchange kernel)
 Following reciprocal coordinates:   # in IRBZ
  0.000000  0.000000  0.000000    1.00000000   1 t-inv F


--------------------------------------------------------------------------------------------------------




 Dimension of arrays:
   k-points           NKPTS =      1   k-points in BZ     NKDIM =      1   number of bands    NBANDS=     39
   number of dos      NEDOS =    301   number of ions     NIONS =     14
   non local maximal  LDIM  =      4   non local SUM 2l+1 LMDIM =      8
   total plane-waves  NPLWV = ******
   max r-space proj   IRMAX =   4928   max aug-charges    IRDMAX=   5085
   dimension x,y,z NGX =   294 NGY =  294 NGZ =  294
   dimension x,y,z NGXF=   588 NGYF=  588 NGZF=  588
   support grid    NGXF=   588 NGYF=  588 NGZF=  588
   ions per type =               8   2   4
   NGX,Y,Z   is equivalent  to a cutoff of  12.22, 12.22, 12.22 a.u.
   NGXF,Y,Z  is equivalent  to a cutoff of  24.44, 24.44, 24.44 a.u.

 SYSTEM =  162_ox                                  
 POSCAR =  C N H                                   

 Startparameter for this run:
   NWRITE =      2    write-flag & timer
   PREC   = accura    normal or accurate (medium, high low for compatibility)
   ISTART =      1    job   : 0-new  1-cont  2-samecut
   ICHARG =      2    charge: 1-file 2-atom 10-const
   ISPIN  =      2    spin polarized calculation?
   LNONCOLLINEAR =      F non collinear calculations
   LSORBIT =      F    spin-orbit coupling
   INIWAV =      1    electr: 0-lowe 1-rand  2-diag
   LASPH  =      F    aspherical Exc in radial PAW
 Electronic Relaxation 1
   ENCUT  =  500.0 eV  36.75 Ry    6.06 a.u.  72.93 72.93 72.93*2*pi/ulx,y,z
   ENINI  =  500.0     initial cutoff
   ENAUG  =  644.9 eV  augmentation charge cutoff
   NELM   =    500;   NELMIN=  2; NELMDL=  0     # of ELM steps 
   EDIFF  = 0.1E-04   stopping-criterion for ELM
   LREAL  =      T    real-space projection
   NLSPLINE    = F    spline interpolate recip. space projectors
   LCOMPAT=      F    compatible to vasp.4.4
   GGA_COMPAT  = T    GGA compatible to vasp.4.4-vasp.4.6
   LMAXPAW     = -100 max onsite density
   LMAXMIX     =    2 max onsite mixed and CHGCAR
   VOSKOWN=      0    Vosko Wilk Nusair interpolation
   ROPT   =   -0.00025  -0.00025  -0.00025
 Ionic relaxation
   EDIFFG = -.2E-01   stopping-criterion for IOM
   NSW    =      0    number of steps for IOM
   NBLOCK =      1;   KBLOCK =      1    inner block; outer block 
   IBRION =     -1    ionic relax: 0-MD 1-quasi-New 2-CG
   NFREE  =      1    steps in history (QN), initial steepest desc. (CG)
   ISIF   =      2    stress and relaxation
   IWAVPR =     10    prediction:  0-non 1-charg 2-wave 3-comb
   ISYM   =      3    0-nonsym 1-usesym 2-fastsym
   LCORR  =      T    Harris-Foulkes like correction to forces

   POTIM  = 0.5000    time-step for ionic-motion
   TEIN   =    0.0    initial temperature
   TEBEG  =    0.0;   TEEND  =   0.0 temperature during run
   SMASS  =  -3.00    Nose mass-parameter (am)
   estimated Nose-frequenzy (Omega)   =  0.10E-29 period in steps = 0.13E+47 mass=  -0.366E-25a.u.
   SCALEE = 1.0000    scale energy and forces
   NPACO  =    256;   APACO  = 10.0  distance and # of slots for P.C.
   PSTRESS=    0.0 pullay stress

  Mass of Ions in am
   POMASS =  12.01 14.00  1.00
  Ionic Valenz
   ZVAL   =   4.00  5.00  1.00
  Atomic Wigner-Seitz radii
   RWIGS  =  -1.00 -1.00 -1.00
  virtual crystal weights 
   VCA    =   1.00  1.00  1.00
   NELECT =      46.0000    total number of electrons
   NUPDOWN=      -1.0000    fix difference up-down

 DOS related values:
   EMIN   =  10.00;   EMAX   =-10.00  energy-range for DOS
   EFERMI =   0.00;   METHOD = LEGACY      
   ISMEAR =     0;   SIGMA  =   0.05  broadening in eV -4-tet -1-fermi 0-gaus

 Electronic relaxation 2 (details)
   IALGO  =     53    algorithm
   LDIAG  =      F    sub-space diagonalisation (order eigenvalues)
   LSUBROT=      F    optimize rotation matrix (better conditioning)
   TURBO    =      0    0=normal 1=particle mesh
   IRESTART =      0    0=no restart 2=restart with 2 vectors
   NREBOOT  =      0    no. of reboots
   NMIN     =      0    reboot dimension
   EREF     =   0.00    reference energy to select bands
   IMIX   =      4    mixing-type and parameters
     AMIX     =   0.40;   BMIX     =  1.00
     AMIX_MAG =   1.60;   BMIX_MAG =  1.00
     AMIN     =   0.10
     WC   =   100.;   INIMIX=   1;  MIXPRE=   1;  MAXMIX= -45

 Intra band minimization:
   WEIMIN = 0.0000     energy-eigenvalue tresh-hold
   EBREAK =  0.64E-07  absolut break condition
   DEPER  =   0.30     relativ break condition  

   TIME   =   0.40     timestep for ELM

  volume/ion in A,a.u.               =    4571.43     30849.52
  Fermi-wavevector in a.u.,A,eV,Ry     =   0.146645  0.277119  0.292590  0.021505
  Thomas-Fermi vector in A             =   0.816559
 
 Write flags
   LWAVE        =      T    write WAVECAR
   LDOWNSAMPLE  =      F    k-point downsampling of WAVECAR
   LCHARG       =      F    write CHGCAR
   LVTOT        =      F    write LOCPOT, total local potential
   LVHAR        =      F    write LOCPOT, Hartree potential only
   LELF         =      F    write electronic localiz. function (ELF)
   LORBIT       =      0    0 simple, 1 ext, 2 COOP (PROOUT), +10 PAW based schemes


 Dipole corrections
   LMONO  =      F    monopole corrections only (constant potential shift)
   LDIPOL =      F    correct potential (dipole corrections)
   IDIPOL =      0    1-x, 2-y, 3-z, 4-all directions 
   EPSILON=  1.0000000 bulk dielectric constant

 Exchange correlation treatment:
   GGA     =    --    GGA type
   LEXCH   =     8    internal setting for exchange type
   LIBXC   =     F    Libxc                    
   VOSKOWN =     0    Vosko Wilk Nusair interpolation
   EXXOEP  =     0    0=HF, 1=EXX-LHF (local Hartree Fock) 2=EXX OEP
   LHFCALC =     T    Hartree Fock is set to
   LSYMGRAD=     F    symmetrize gradient (conserves proper symmetry)
   PRECFOCK=normal    Normal, Fast or Accurate (Low or Medium for compatibility)
   LRHFCALC=     F    long range Hartree Fock
   LRSCOR  =     F    long range correlation only (use DFT for short range part)
   LTHOMAS =     F    Thomas Fermi screening in HF
   LMODELHF=     F    short range full HF, long range fraction AEXX
   FOCKCORR=     1    mode to apply convergence corrections
   LFOCKACE=     F    use Adeptively-Compressed-Exchange operator
   ENCUT4O =  -1.0   cutoff for four orbital integrals eV
   LMAXFOCK=     4    L truncation for augmentation on plane wave grid
   LMAXFOCKAE=  -1    L truncation for all-electron charge restoration on plane wave grid
   NMAXFOCKAE=   1    number of basis functions for all-electron charge restoration
   LFOCKAEDFT=     F  apply the AE augmentation even for DFT
   NKREDX  =     1    reduce k-point grid by
   NKREDY  =     1    reduce k-point grid by
   NKREDZ  =     1    reduce k-point grid by
   SHIFTRED=     F    shift reduced grid of Gamma
   HFKIDENT=     F    idential grid for each k-point
   ODDONLY =     F    use only odd q-grid points
   EVENONLY=     F    use only even q-grid points
   HFALPHA =   -1.0000 decay constant for conv. correction
   MCALPHA =    0.0000 extent of test-charge in conv. correction in multipole expansion
   AEXX    =    0.2500 exact exchange contribution
   HFSCREEN=    0.2000 screening length (either q_TF or 0.3 A-1)
   HFSCREENC=   0.2000 screening length for correlation (either q_TF or 0.3 A-1)
   HFRCUT  =    0.0000 spherical cutoff for potential kernel
   ALDAX   =    0.7500 LDA exchange part
   AGGAX   =    0.7500 GGA exchange part
   ALDAC   =    1.0000 LDA correlation
   AGGAC   =    1.0000 GGA correlation
   ENCUTFOCK=  -1.0 apply spherical cutoff to Coloumb kernel
   NBANDSGWLOW=     1    first orbital included in HF term
   NBLOCK_FOCK=    64    blocking factor in FOCK_ACC

 Linear response parameters
   LEPSILON=     F    determine dielectric tensor
   LRPA    =     F    only Hartree local field effects (RPA)
   LNABLA  =     F    use nabla operator in PAW spheres
   LVEL    =     F    velocity operator in full k-point grid
   CSHIFT  =0.1000    complex shift for real part using Kramers Kronig
   OMEGAMAX=  -1.0    maximum frequency
   DEG_THRESHOLD= 0.2000000E-02 threshold for treating states as degnerate
   RTIME   =   -0.100 relaxation time in fs
  (WPLASMAI=    0.000 imaginary part of plasma frequency in eV, 0.658/RTIME)
   DFIELD  = 0.0000000 0.0000000 0.0000000 field for delta impulse in time
 
  Optional k-point grid parameters
   LKPOINTS_OPT  =     F    use optional k-point grid
   KPOINTS_OPT_MODE=     1    mode for optional k-point grid
 
 Orbital magnetization related:
   ORBITALMAG=     F  switch on orbital magnetization
   LCHIMAG   =     F  perturbation theory with respect to B field
   DQ        =  0.001000  dq finite difference perturbation B field
   LLRAUG    =     F  two centre corrections for induced B field
   LBONE     =     F  B-component reconstruction in AE one-centre
   LVGVCALC  =     T  calculate vGv susceptibility
   LVGVAPPL  =     F  apply vGv susceptibility instead of pGv for G=0

 Random number generation:
   RANDOM_GENERATOR = DEFAULT
   PCG_SEED         = not used
 Solvation model:
   LSOL    =     T         switch on solvation model
   EB_K    = 35.688000     relative permittivity of the bulk solvent
   SIGMA_K =  0.600000     width of the dielectric cavity
   NC_K    =  0.002500     cutoff charge density
   TAU     =  0.000000     cavity surface tension
   LAMBDA_D_K    =  3.040000     Debye length in Angstroms
   LRHOB     =     F     write boundcharge  density
   LRHOION     =     F     write ioniccharge density



--------------------------------------------------------------------------------------------------------


 Static calculation
 charge density and potential will be updated during run
 spin polarized calculation
 Conjugate gradient for all bands (Kresse, et al. variant)
 perform Loewdin sub-space diagonalisation
    ordering is kept fixed
    before iterative eigenvector-optimisation
 modified Broyden-mixing scheme, WC =      100.0
 initial mixing is a Kerker type mixing with AMIX =  0.4000 and BMIX =      1.0000
 Hartree-type preconditioning will be used
 using additional bands           16
 real space projection scheme for non local part
 use partial core corrections
 no Harris-corrections to forces 
 use gradient corrections 
 use of overlap-Matrix (Vanderbilt PP)
 Gauss-broadening in eV      SIGMA  =   0.05


--------------------------------------------------------------------------------------------------------


  energy-cutoff  :      500.00
  volume of cell :    64000.00
      direct lattice vectors                 reciprocal lattice vectors
    40.000000000  0.000000000  0.000000000     0.025000000  0.000000000  0.000000000
     0.000000000 40.000000000  0.000000000     0.000000000  0.025000000  0.000000000
     0.000000000  0.000000000 40.000000000     0.000000000  0.000000000  0.025000000

  length of vectors
    40.000000000 40.000000000 40.000000000     0.025000000  0.025000000  0.025000000


 
 old parameters found on file WAVECAR:
  energy-cutoff  :      500.00
  volume of cell :    64000.00
      direct lattice vectors                 reciprocal lattice vectors
    40.000000000  0.000000000  0.000000000     0.025000000  0.000000000  0.000000000
     0.000000000 40.000000000  0.000000000     0.000000000  0.025000000  0.000000000
     0.000000000  0.000000000 40.000000000     0.000000000  0.000000000  0.025000000

  length of vectors

 
 k-points in units of 2pi/SCALE and weight: K-Point Grid                            
   0.00000000  0.00000000  0.00000000       1.000
 
 k-points in reciprocal lattice and weights: K-Point Grid                            
   0.00000000  0.00000000  0.00000000       1.000
 
 position of ions in fractional coordinates (direct lattice) 
   0.46981365  0.49023138  0.50000083
   0.46972357  0.52544384  0.50000388
   0.50000072  0.54273471  0.50000036
   0.53027687  0.52544210  0.49999318
   0.53018608  0.49022947  0.49999027
   0.49999929  0.47236682  0.49999387
   0.56113663  0.47240012  0.50000216
   0.43886255  0.47240349  0.49999989
   0.58651676  0.45793592  0.50002415
   0.41348136  0.45793916  0.49999654
   0.49999870  0.44515397  0.49999243
   0.55396563  0.53887379  0.49999155
   0.50000100  0.56997143  0.50000302
   0.44603520  0.53887579  0.50000888
 
 position of ions in cartesian coordinates  (Angst):
  18.79254607 19.60925530 20.00003305
  18.78894270 21.01775345 20.00015504
  20.00002900 21.70938857 20.00001458
  21.21107467 21.01768414 19.99972728
  21.20744304 19.60917866 19.99961065
  19.99997158 18.89467296 19.99975493
  22.44546501 18.89600469 20.00008640
  17.55450193 18.89613957 19.99999543
  23.46067039 18.31743700 20.00096586
  16.53925441 18.31756627 19.99986161
  19.99994800 17.80615890 19.99969722
  22.15862533 21.55495170 19.99966185
  20.00003990 22.79885721 20.00012098
  17.84140796 21.55503157 20.00035514
 


--------------------------------------------------------------------------------------------------------


 k-point   1 :   0.0000 0.0000 0.0000  plane waves: 1624525

 maximum and minimum number of plane-waves per node :     54169    54136

 maximum number of plane-waves:   1624525
 maximum index in each direction: 
   IXMAX=   72   IYMAX=   72   IZMAX=   72
   IXMIN=  -72   IYMIN=  -72   IZMIN=  -72


 real space projection operators:
  total allocation   :       1925.09 KBytes
  max/ min on nodes  :         75.34         52.06


 parallel 3D FFT for wavefunctions:
    minimum data exchange during FFTs selected (reduces bandwidth)
 parallel 3D FFT for charge:
    minimum data exchange during FFTs selected (reduces bandwidth)


 FFT grid for exact exchange (Hartree Fock) 
  NGX =224; NGY =224; NGZ =224

 
 Radii for the augmentation spheres in the non-local exchange
 for species   1 augmentation radius   0.874 (default was   0.699)
       energy cutoff for augmentation   2000.0
 for species   2 augmentation radius   0.886 (default was   0.709)
       energy cutoff for augmentation   2000.0
 for species   3 augmentation radius   0.650 (default was   0.520)
       energy cutoff for augmentation   2000.0

 real space projection operators:
  total allocation   :        406.41 KBytes
  max/ min on nodes  :         16.31          9.28

 Maximum index for augmentation-charges in exchange           69
  SETUP_FOCK is finished

 total amount of memory used by VASP MPI-rank0   511000. kBytes
=======================================================================

   base      :      30000. kBytes
   nonlr-proj:       1399. kBytes
   fftplans  :     129164. kBytes
   grid      :     282813. kBytes
   one-center:          6. kBytes
   HF        :          4. kBytes
   wavefun   :      67614. kBytes
 
     INWAV:  cpu time     11.6391: real time     11.6394
 Broyden mixing: mesh for mixing (old mesh)
   NGX =145   NGY =145   NGZ =145
  (NGX  =588   NGY  =588   NGZ  =588)
  gives a total of ****** points

 initial charge density was supplied:
 charge density of overlapping atoms calculated
 number of electron      46.0000000 magnetization      14.0000000
 charge density for first step will be calculated from the start-wavefunctions


--------------------------------------------------------------------------------------------------------


 Maximum index for non-local projection operator          334
 Maximum index for augmentation-charges          213 (set IRDMAX)


--------------------------------------------------------------------------------------------------------


 initial charge from wavefunction
 First call to EWALD:  gamma=   0.044
 Maximum number of real-space cells 3x 3x 3
 Maximum number of reciprocal cells 3x 3x 3

    FEWALD:  cpu time      0.0037: real time      0.0036


--------------------------------------- Ionic step        1  -------------------------------------------




--------------------------------------- Iteration      1(   1)  ---------------------------------------


    POTLOK:  cpu time    370.5518: real time    370.5642
    SETDIJ:  cpu time      0.1484: real time      0.1484
    TRIAL :  cpu time    145.7357: real time    145.7328
    CORREC:  cpu time      0.0067: real time      0.0067
    CHARGE:  cpu time      2.4333: real time      2.4332
    --------------------------------------------
      LOOP:  cpu time    518.9225: real time    518.9322

 eigenvalue-minimisations  :     0
 total energy-change (2. order) :-0.1185803E+03  (-0.1245161E+00)
 number of electron      46.0000005 magnetization       0.0000000
 augmentation part        1.1850707 magnetization      -0.0000002

 Free energy of the ion-electron system (eV)
  ---------------------------------------------------
  alpha Z        PSCENC =         0.15606686
  Ewald energy   TEWEN  =      4271.38647070
  -Hartree energ DENC   =     -5656.22495114
  -exchange      EXHF   =       104.59030507
  -V(xc)+E(xc)   XCENC  =       122.08071445
  PAW double counting   =      4421.15193280    -4426.70820573
  entropy T*S    EENTRO =        -0.00000000
  eigenvalues    EBANDS =      -669.70881858
  atomic energy  EATOM  =      1735.07034953
  ---------------------------------------------------
  free energy    TOTEN  =      -118.58033990 eV

  energy without entropy =     -118.58033990  energy(sigma->0) =     -118.58033990
  exchange ACFDT corr.  =         0.00000000  see jH, gK, PRB 81, 115126


--------------------------------------------------------------------------------------------------------




--------------------------------------- Iteration      1(   2)  ---------------------------------------


    POTLOK:  cpu time    313.6529: real time    313.6509
    SETDIJ:  cpu time      0.0699: real time      0.0699
    TRIAL :  cpu time    145.9081: real time    145.9067
    CORREC:  cpu time      0.0010: real time      0.0010
    CHARGE:  cpu time      2.5330: real time      2.5329
    --------------------------------------------
      LOOP:  cpu time    462.2215: real time    462.2257

 eigenvalue-minimisations  :     0
 total energy-change (2. order) :-0.9101943E-01  (-0.5687972E-01)
 number of electron      46.0000005 magnetization       0.0000000
 augmentation part        1.1751126 magnetization      -0.0000002

 Free energy of the ion-electron system (eV)
  ---------------------------------------------------
  alpha Z        PSCENC =         0.15606686
  Ewald energy   TEWEN  =      4271.38647070
  -Hartree energ DENC   =     -5653.53416890
  -exchange      EXHF   =       104.59891985
  -V(xc)+E(xc)   XCENC  =       122.00693445
  PAW double counting   =      4517.68208000    -4523.17709328
  entropy T*S    EENTRO =        -0.00000000
  eigenvalues    EBANDS =      -672.63433785
  atomic energy  EATOM  =      1735.07034953
  ---------------------------------------------------
  free energy    TOTEN  =      -118.67135933 eV

  energy without entropy =     -118.67135933  energy(sigma->0) =     -118.67135933
  exchange ACFDT corr.  =        -0.00000000  see jH, gK, PRB 81, 115126


--------------------------------------------------------------------------------------------------------




--------------------------------------- Iteration      1(   3)  ---------------------------------------


    POTLOK:  cpu time    318.9366: real time    318.9293
    SETDIJ:  cpu time      0.1571: real time      0.1571
    TRIAL :  cpu time    148.3547: real time    148.3517
    CORREC:  cpu time      0.0067: real time      0.0067
    CHARGE:  cpu time      3.1695: real time      3.1694
    --------------------------------------------
      LOOP:  cpu time    470.6576: real time    470.6522

 eigenvalue-minimisations  :     0
 total energy-change (2. order) :-0.3706337E-01  (-0.1582053E-01)
 number of electron      46.0000005 magnetization       0.0000000
 augmentation part        1.1719164 magnetization      -0.0000002

 Free energy of the ion-electron system (eV)
  ---------------------------------------------------
  alpha Z        PSCENC =         0.15606686
  Ewald energy   TEWEN  =      4271.38647070
  -Hartree energ DENC   =     -5652.81281615
  -exchange      EXHF   =       104.63621614
  -V(xc)+E(xc)   XCENC  =       121.97267757
  PAW double counting   =      4615.22051111    -4620.66664087
  entropy T*S    EENTRO =        -0.00000000
  eigenvalues    EBANDS =      -673.65651475
  atomic energy  EATOM  =      1735.07034953
  ---------------------------------------------------
  free energy    TOTEN  =      -118.70842270 eV

  energy without entropy =     -118.70842270  energy(sigma->0) =     -118.70842270
  exchange ACFDT corr.  =        -0.00000000  see jH, gK, PRB 81, 115126


--------------------------------------------------------------------------------------------------------




--------------------------------------- Iteration      1(   4)  ---------------------------------------


    POTLOK:  cpu time    321.7452: real time    321.7347
    SETDIJ:  cpu time      0.0725: real time      0.0725
    TRIAL :  cpu time    147.4049: real time    147.4004
    CORREC:  cpu time      0.0036: real time      0.0036
    CHARGE:  cpu time      2.4405: real time      2.4404
    --------------------------------------------
      LOOP:  cpu time    471.6930: real time    471.6832

 eigenvalue-minimisations  :     0
 total energy-change (2. order) :-0.9871505E-02  (-0.4953062E-02)
 number of electron      46.0000005 magnetization       0.0000000
 augmentation part        1.1720447 magnetization      -0.0000002

 Free energy of the ion-electron system (eV)
  ---------------------------------------------------
  alpha Z        PSCENC =         0.15606686
  Ewald energy   TEWEN  =      4271.38647070
  -Hartree energ DENC   =     -5653.70222719
  -exchange      EXHF   =       104.69259739
  -V(xc)+E(xc)   XCENC  =       121.99015481
  PAW double counting   =      4679.80233894    -4685.22712456
  entropy T*S    EENTRO =        -0.00000000
  eigenvalues    EBANDS =      -672.96248147
  atomic energy  EATOM  =      1735.07034953
  ---------------------------------------------------
  free energy    TOTEN  =      -118.71829420 eV

  energy without entropy =     -118.71829420  energy(sigma->0) =     -118.71829420
  exchange ACFDT corr.  =        -0.00000000  see jH, gK, PRB 81, 115126


--------------------------------------------------------------------------------------------------------




--------------------------------------- Iteration      1(   5)  ---------------------------------------


    POTLOK:  cpu time    306.1028: real time    306.0957
    SETDIJ:  cpu time      0.0712: real time      0.0712
    TRIAL :  cpu time    147.2688: real time    147.2657
    CORREC:  cpu time      0.0579: real time      0.0579
    CHARGE:  cpu time      2.4871: real time      2.4870
    --------------------------------------------
      LOOP:  cpu time    456.0159: real time    456.0124

 eigenvalue-minimisations  :     0
 total energy-change (2. order) :-0.3137645E-02  (-0.2027449E-02)
 number of electron      46.0000005 magnetization       0.0000000
 augmentation part        1.1729797 magnetization      -0.0000001

 Free energy of the ion-electron system (eV)
  ---------------------------------------------------
  alpha Z        PSCENC =         0.15606686
  Ewald energy   TEWEN  =      4271.38647070
  -Hartree energ DENC   =     -5654.37014606
  -exchange      EXHF   =       104.73019752
  -V(xc)+E(xc)   XCENC  =       122.01139271
  PAW double counting   =      4712.25387467    -4717.67261846
  entropy T*S    EENTRO =        -0.00000000
  eigenvalues    EBANDS =      -672.32535535
  atomic energy  EATOM  =      1735.07034953
  ---------------------------------------------------
  free energy    TOTEN  =      -118.72143185 eV

  energy without entropy =     -118.72143185  energy(sigma->0) =     -118.72143185
  exchange ACFDT corr.  =        -0.00000000  see jH, gK, PRB 81, 115126


--------------------------------------------------------------------------------------------------------




--------------------------------------- Iteration      1(   6)  ---------------------------------------


    POTLOK:  cpu time    286.7353: real time    286.7261
    SETDIJ:  cpu time      0.1451: real time      0.1451
    TRIAL :  cpu time    148.3633: real time    148.3586
    CORREC:  cpu time      0.0096: real time      0.0096
    CHARGE:  cpu time      2.6856: real time      2.6855
    --------------------------------------------
      LOOP:  cpu time    437.9744: real time    437.9660

 eigenvalue-minimisations  :     0
 total energy-change (2. order) :-0.1341934E-02  (-0.9590606E-03)
 number of electron      46.0000005 magnetization       0.0000000
 augmentation part        1.1738184 magnetization       0.0000000

 Free energy of the ion-electron system (eV)
  ---------------------------------------------------
  alpha Z        PSCENC =         0.15606686
  Ewald energy   TEWEN  =      4271.38647070
  -Hartree energ DENC   =     -5654.44096936
  -exchange      EXHF   =       104.74133690
  -V(xc)+E(xc)   XCENC  =       122.01767199
  PAW double counting   =      4724.31789517    -4729.73668183
  entropy T*S    EENTRO =        -0.00000000
  eigenvalues    EBANDS =      -672.21423709
  atomic energy  EATOM  =      1735.07034953
  ---------------------------------------------------
  free energy    TOTEN  =      -118.72277378 eV

  energy without entropy =     -118.72277378  energy(sigma->0) =     -118.72277378
  exchange ACFDT corr.  =         0.00000000  see jH, gK, PRB 81, 115126


--------------------------------------------------------------------------------------------------------




--------------------------------------- Iteration      1(   7)  ---------------------------------------


    POTLOK:  cpu time    280.8063: real time    280.7979
    SETDIJ:  cpu time      0.0711: real time      0.0711
    TRIAL :  cpu time    149.3222: real time    149.3175
    CORREC:  cpu time      0.0085: real time      0.0085
    CHARGE:  cpu time      3.0904: real time      3.0903
    --------------------------------------------
      LOOP:  cpu time    433.3412: real time    433.3360

 eigenvalue-minimisations  :     0
 total energy-change (2. order) :-0.6691718E-03  (-0.4744738E-03)
 number of electron      46.0000005 magnetization       0.0000000
 augmentation part        1.1743629 magnetization       0.0000001

 Free energy of the ion-electron system (eV)
  ---------------------------------------------------
  alpha Z        PSCENC =         0.15606686
  Ewald energy   TEWEN  =      4271.38647070
  -Hartree energ DENC   =     -5654.35395183
  -exchange      EXHF   =       104.74045922
  -V(xc)+E(xc)   XCENC  =       122.01675862
  PAW double counting   =      4725.85788935    -4731.27857637
  entropy T*S    EENTRO =        -0.00000000
  eigenvalues    EBANDS =      -672.28569325
  atomic energy  EATOM  =      1735.07034953
  ---------------------------------------------------
  free energy    TOTEN  =      -118.72344295 eV

  energy without entropy =     -118.72344295  energy(sigma->0) =     -118.72344295
  exchange ACFDT corr.  =        -0.00000000  see jH, gK, PRB 81, 115126


--------------------------------------------------------------------------------------------------------




--------------------------------------- Iteration      1(   8)  ---------------------------------------


    POTLOK:  cpu time    280.2333: real time    280.2271
    SETDIJ:  cpu time      0.0746: real time      0.0746
    TRIAL :  cpu time    147.4254: real time    147.4206
    CORREC:  cpu time      0.0059: real time      0.0059
    CHARGE:  cpu time      2.5047: real time      2.5046
    --------------------------------------------
      LOOP:  cpu time    430.2922: real time    430.2866

 eigenvalue-minimisations  :     0
 total energy-change (2. order) :-0.3486431E-03  (-0.2286732E-03)
 number of electron      46.0000005 magnetization       0.0000000
 augmentation part        1.1746343 magnetization       0.0000001

 Free energy of the ion-electron system (eV)
  ---------------------------------------------------
  alpha Z        PSCENC =         0.15606686
  Ewald energy   TEWEN  =      4271.38647070
  -Hartree energ DENC   =     -5654.36259642
  -exchange      EXHF   =       104.73966821
  -V(xc)+E(xc)   XCENC  =       122.01713834
  PAW double counting   =      4723.43616950    -4728.85881968
  entropy T*S    EENTRO =        -0.00000000
  eigenvalues    EBANDS =      -672.29402307
  atomic energy  EATOM  =      1735.07034953
  ---------------------------------------------------
  free energy    TOTEN  =      -118.72379159 eV

  energy without entropy =     -118.72379159  energy(sigma->0) =     -118.72379159
  exchange ACFDT corr.  =        -0.00000000  see jH, gK, PRB 81, 115126


--------------------------------------------------------------------------------------------------------




--------------------------------------- Iteration      1(   9)  ---------------------------------------


    POTLOK:  cpu time    257.3211: real time    257.3160
    SETDIJ:  cpu time      0.0710: real time      0.0710
    TRIAL :  cpu time    149.8793: real time    149.8746
    CORREC:  cpu time      0.0159: real time      0.0159
    CHARGE:  cpu time      3.0862: real time      3.0861
    --------------------------------------------
      LOOP:  cpu time    410.4131: real time    410.4111

 eigenvalue-minimisations  :     0
 total energy-change (2. order) :-0.1733790E-03  (-0.1104322E-03)
 number of electron      46.0000005 magnetization       0.0000000
 augmentation part        1.1747205 magnetization       0.0000002

 Free energy of the ion-electron system (eV)
  ---------------------------------------------------
  alpha Z        PSCENC =         0.15606686
  Ewald energy   TEWEN  =      4271.38647070
  -Hartree energ DENC   =     -5654.39807796
  -exchange      EXHF   =       104.73971478
  -V(xc)+E(xc)   XCENC  =       122.01818917
  PAW double counting   =      4720.28182897    -4725.70577350
  entropy T*S    EENTRO =        -0.00000000
  eigenvalues    EBANDS =      -672.27368972
  atomic energy  EATOM  =      1735.07034953
  ---------------------------------------------------
  free energy    TOTEN  =      -118.72396497 eV

  energy without entropy =     -118.72396497  energy(sigma->0) =     -118.72396497
  exchange ACFDT corr.  =         0.00000000  see jH, gK, PRB 81, 115126


--------------------------------------------------------------------------------------------------------




--------------------------------------- Iteration      1(  10)  ---------------------------------------


    POTLOK:  cpu time    265.4466: real time    265.4417
    SETDIJ:  cpu time      0.0824: real time      0.0824
    TRIAL :  cpu time    148.4823: real time    148.4794
    CORREC:  cpu time      0.0030: real time      0.0030
    CHARGE:  cpu time      2.4824: real time      2.4824
    --------------------------------------------
      LOOP:  cpu time    416.5341: real time    416.5315

 eigenvalue-minimisations  :     0
 total energy-change (2. order) :-0.8567807E-04  (-0.5589663E-04)
 number of electron      46.0000005 magnetization       0.0000000
 augmentation part        1.1747303 magnetization       0.0000002

 Free energy of the ion-electron system (eV)
  ---------------------------------------------------
  alpha Z        PSCENC =         0.15606686
  Ewald energy   TEWEN  =      4271.38647070
  -Hartree energ DENC   =     -5654.39846928
  -exchange      EXHF   =       104.73912413
  -V(xc)+E(xc)   XCENC  =       122.01815374
  PAW double counting   =      4717.74388420    -4723.16851163
  entropy T*S    EENTRO =        -0.00000000
  eigenvalues    EBANDS =      -672.27581540
  atomic energy  EATOM  =      1735.07034953
  ---------------------------------------------------
  free energy    TOTEN  =      -118.72405065 eV

  energy without entropy =     -118.72405065  energy(sigma->0) =     -118.72405065
  exchange ACFDT corr.  =        -0.00000000  see jH, gK, PRB 81, 115126


--------------------------------------------------------------------------------------------------------




--------------------------------------- Iteration      1(  11)  ---------------------------------------


    POTLOK:  cpu time    266.9992: real time    266.9938
    SETDIJ:  cpu time      0.0736: real time      0.0736
    TRIAL :  cpu time    147.6708: real time    147.6675
    CORREC:  cpu time      0.0035: real time      0.0035
    CHARGE:  cpu time      2.4971: real time      2.4970
    --------------------------------------------
      LOOP:  cpu time    417.2761: real time    417.2723

 eigenvalue-minimisations  :     0
 total energy-change (2. order) :-0.4461314E-04  (-0.3041446E-04)
 number of electron      46.0000005 magnetization       0.0000000
 augmentation part        1.1747402 magnetization       0.0000002

 Free energy of the ion-electron system (eV)
  ---------------------------------------------------
  alpha Z        PSCENC =         0.15606686
  Ewald energy   TEWEN  =      4271.38647070
  -Hartree energ DENC   =     -5654.38247095
  -exchange      EXHF   =       104.73837016
  -V(xc)+E(xc)   XCENC  =       122.01754490
  PAW double counting   =      4716.23181508    -4721.65674846
  entropy T*S    EENTRO =        -0.00000000
  eigenvalues    EBANDS =      -672.28894907
  atomic energy  EATOM  =      1735.07034953
  ---------------------------------------------------
  free energy    TOTEN  =      -118.72409527 eV

  energy without entropy =     -118.72409527  energy(sigma->0) =     -118.72409527
  exchange ACFDT corr.  =        -0.00000000  see jH, gK, PRB 81, 115126


--------------------------------------------------------------------------------------------------------




--------------------------------------- Iteration      1(  12)  ---------------------------------------


    POTLOK:  cpu time    243.5660: real time    243.5585
    SETDIJ:  cpu time      0.0657: real time      0.0657
    TRIAL :  cpu time    148.1466: real time    148.1435
    CORREC:  cpu time      0.0013: real time      0.0013
    CHARGE:  cpu time      2.9024: real time      2.9023
    --------------------------------------------
      LOOP:  cpu time    394.7149: real time    394.7111

 eigenvalue-minimisations  :     0
 total energy-change (2. order) :-0.2538360E-04  (-0.1819172E-04)
 number of electron      46.0000005 magnetization       0.0000000
 augmentation part        1.1747585 magnetization       0.0000002

 Free energy of the ion-electron system (eV)
  ---------------------------------------------------
  alpha Z        PSCENC =         0.15606686
  Ewald energy   TEWEN  =      4271.38647070
  -Hartree energ DENC   =     -5654.37984252
  -exchange      EXHF   =       104.73831518
  -V(xc)+E(xc)   XCENC  =       122.01738761
  PAW double counting   =      4715.59493383    -4721.02003312
  entropy T*S    EENTRO =        -0.00000000
  eigenvalues    EBANDS =      -672.29044045
  atomic energy  EATOM  =      1735.07034953
  ---------------------------------------------------
  free energy    TOTEN  =      -118.72412065 eV

  energy without entropy =     -118.72412065  energy(sigma->0) =     -118.72412065
  exchange ACFDT corr.  =        -0.00000000  see jH, gK, PRB 81, 115126


--------------------------------------------------------------------------------------------------------




--------------------------------------- Iteration      1(  13)  ---------------------------------------


    POTLOK:  cpu time    228.8243: real time    228.8168
    SETDIJ:  cpu time      0.0706: real time      0.0706
    TRIAL :  cpu time    148.6133: real time    148.6085
    CORREC:  cpu time      0.0130: real time      0.0130
    CHARGE:  cpu time      3.0442: real time      3.0441
    --------------------------------------------
      LOOP:  cpu time    380.6072: real time    380.6007

 eigenvalue-minimisations  :     0
 total energy-change (2. order) :-0.1564842E-04  (-0.1074894E-04)
 number of electron      46.0000005 magnetization       0.0000000
 augmentation part        1.1747751 magnetization       0.0000002

 Free energy of the ion-electron system (eV)
  ---------------------------------------------------
  alpha Z        PSCENC =         0.15606686
  Ewald energy   TEWEN  =      4271.38647070
  -Hartree energ DENC   =     -5654.38822563
  -exchange      EXHF   =       104.73867606
  -V(xc)+E(xc)   XCENC  =       122.01755731
  PAW double counting   =      4715.45640702    -4720.88159215
  entropy T*S    EENTRO =        -0.00000000
  eigenvalues    EBANDS =      -672.28387274
  atomic energy  EATOM  =      1735.07034953
  ---------------------------------------------------
  free energy    TOTEN  =      -118.72413630 eV

  energy without entropy =     -118.72413630  energy(sigma->0) =     -118.72413630
  exchange ACFDT corr.  =        -0.00000000  see jH, gK, PRB 81, 115126


--------------------------------------------------------------------------------------------------------




--------------------------------------- Iteration      1(  14)  ---------------------------------------


    POTLOK:  cpu time    251.9467: real time    251.9406
    SETDIJ:  cpu time      0.0729: real time      0.0729
    TRIAL :  cpu time    148.9987: real time    148.9953
    CORREC:  cpu time      0.0032: real time      0.0032
    CHARGE:  cpu time      2.4789: real time      2.4789
    --------------------------------------------
      LOOP:  cpu time    403.5331: real time    403.5309

 eigenvalue-minimisations  :     0
 total energy-change (2. order) :-0.9410467E-05  (-0.6466231E-05)
 number of electron      46.0000005 magnetization       0.0000000
 augmentation part        1.1747856 magnetization       0.0000002

 Free energy of the ion-electron system (eV)
  ---------------------------------------------------
  alpha Z        PSCENC =         0.15606686
  Ewald energy   TEWEN  =      4271.38647070
  -Hartree energ DENC   =     -5654.39520802
  -exchange      EXHF   =       104.73899573
  -V(xc)+E(xc)   XCENC  =       122.01769436
  PAW double counting   =      4715.55494420    -4720.98016276
  entropy T*S    EENTRO =        -0.00000000
  eigenvalues    EBANDS =      -672.27927278
  atomic energy  EATOM  =      1735.07034953
  ---------------------------------------------------
  free energy    TOTEN  =      -118.72414571 eV

  energy without entropy =     -118.72414571  energy(sigma->0) =     -118.72414571
  exchange ACFDT corr.  =        -0.00000000  see jH, gK, PRB 81, 115126


--------------------------------------------------------------------------------------------------------


  average scaling for gradient   1.4501


 average (electrostatic) potential at core
  the test charge radii are     0.6991  0.7089  0.5201
  (the norm of the test charge is              1.0000)
       1 -56.6795       2 -56.0351       3 -55.7273       4 -56.0351       5 -56.6795
       6 -56.2424       7 -56.7740       8 -56.7741       9 -68.6989      10 -68.6990
      11 -38.7414      12 -38.5497      13 -38.3482      14 -38.5498
 
 
 
 E-fermi :  -7.3978     XC(G=0):  -0.0229     alpha+bet : -0.0170

 Fermi energy:        -7.3977902261

 spin component 1

 k-point     1 :       0.0000    0.0000    0.0000
  band No.  band energies     occupation 
      1     -25.6587      1.00000
      2     -25.5152      1.00000
      3     -24.6284      1.00000
      4     -22.2562      1.00000
      5     -21.7517      1.00000
      6     -18.4525      1.00000
      7     -18.3113      1.00000
      8     -16.3950      1.00000
      9     -14.0680      1.00000
     10     -13.8902      1.00000
     11     -13.5688      1.00000
     12     -12.3721      1.00000
     13     -11.7366      1.00000
     14     -10.9687      1.00000
     15     -10.6445      1.00000
     16     -10.8417      1.00000
     17     -10.5027      1.00000
     18     -10.3946      1.00000
     19      -9.6312      1.00000
     20      -9.5999      1.00000
     21      -9.5736      1.00000
     22      -7.7522      1.00000
     23      -7.6258      1.00000
     24      -2.4582      0.00000
     25      -2.0232      0.00000
     26      -0.2200      0.00000
     27       0.1943      0.00000
     28      -0.3644      0.00000
     29       0.3455      0.00000
     30       0.0042      0.00000
     31       0.0643      0.00000
     32       0.0140      0.00000
     33       0.0871      0.00000
     34       0.0983      0.00000
     35       0.0989      0.00000
     36       0.1203      0.00000
     37       0.1361      0.00000
     38       0.1288      0.00000
     39       0.3395      0.00000
 Fermi energy:        -7.3977902261

 spin component 2

 k-point     1 :       0.0000    0.0000    0.0000
  band No.  band energies     occupation 
      1     -25.6587      1.00000
      2     -25.5152      1.00000
      3     -24.6284      1.00000
      4     -22.2562      1.00000
      5     -21.7517      1.00000
      6     -18.4525      1.00000
      7     -18.3113      1.00000
      8     -16.3950      1.00000
      9     -14.0680      1.00000
     10     -13.8902      1.00000
     11     -13.5688      1.00000
     12     -12.3721      1.00000
     13     -11.7366      1.00000
     14     -10.9687      1.00000
     15     -10.6445      1.00000
     16     -10.8417      1.00000
     17     -10.5027      1.00000
     18     -10.3946      1.00000
     19      -9.6312      1.00000
     20      -9.5999      1.00000
     21      -9.5736      1.00000
     22      -7.7522      1.00000
     23      -7.6258      1.00000
     24      -2.4582      0.00000
     25      -2.0232      0.00000
     26      -0.2200      0.00000
     27       0.1943      0.00000
     28      -0.3644      0.00000
     29       0.3463      0.00000
     30       0.0038      0.00000
     31       0.0643      0.00000
     32       0.0140      0.00000
     33       0.0871      0.00000
     34       0.0983      0.00000
     35       0.0989      0.00000
     36       0.1203      0.00000
     37       0.1361      0.00000
     38       0.1288      0.00000
     39       0.3283      0.00000


--------------------------------------------------------------------------------------------------------


 soft charge-density along one line, spin component           1
         0         1         2         3         4         5         6         7         8         9
 total charge-density along one line
 
 soft charge-density along one line, spin component           2
         0         1         2         3         4         5         6         7         8         9
 total charge-density along one line
 
 pseudopotential strength for first ion, spin component:           1
 10.085  13.412  -0.003  -0.000  -0.005   0.010   0.000   0.015
 13.412  17.836  -0.004  -0.000  -0.006   0.013   0.000   0.019
 -0.003  -0.004  -4.294  -0.000  -0.004   8.372   0.000   0.007
 -0.000  -0.000  -0.000  -4.289   0.000   0.000   8.366  -0.000
 -0.005  -0.006  -0.004   0.000  -4.299   0.007  -0.000   8.381
  0.010   0.013   8.372   0.000   0.007 -18.444   0.000  -0.014
  0.000   0.000   0.000   8.366  -0.000   0.000 -18.438   0.000
  0.015   0.019   0.007  -0.000   8.381  -0.014   0.000 -18.462
 pseudopotential strength for first ion, spin component:           2
 10.085  13.412  -0.003  -0.000  -0.005   0.010   0.000   0.015
 13.412  17.836  -0.004  -0.000  -0.006   0.013   0.000   0.019
 -0.003  -0.004  -4.294  -0.000  -0.004   8.372   0.000   0.007
 -0.000  -0.000  -0.000  -4.289   0.000   0.000   8.366  -0.000
 -0.005  -0.006  -0.004   0.000  -4.299   0.007  -0.000   8.381
  0.010   0.013   8.372   0.000   0.007 -18.444   0.000  -0.014
  0.000   0.000   0.000   8.366  -0.000   0.000 -18.438   0.000
  0.015   0.019   0.007  -0.000   8.381  -0.014   0.000 -18.462
 total augmentation occupancy for first ion, spin component:           1
  9.103  -4.192  -0.003  -0.000   0.029  -0.005  -0.000  -0.002
 -4.192   1.972   0.038   0.000   0.037   0.004   0.000   0.004
 -0.003   0.038   1.856   0.000  -0.071   0.179   0.000  -0.001
 -0.000   0.000   0.000   1.271  -0.000   0.000   0.081  -0.000
  0.029   0.037  -0.071  -0.000   1.771  -0.001  -0.000   0.179
 -0.005   0.004   0.179   0.000  -0.001   0.019   0.000   0.000
 -0.000   0.000   0.000   0.081  -0.000   0.000   0.005  -0.000
 -0.002   0.004  -0.001  -0.000   0.179   0.000  -0.000   0.019
 total augmentation occupancy for first ion, spin component:           2
 -0.000   0.000   0.000   0.000  -0.000   0.000   0.000  -0.000
  0.000  -0.000  -0.000  -0.000   0.000  -0.000  -0.000   0.000
  0.000  -0.000  -0.000  -0.000  -0.000   0.000   0.000   0.000
  0.000  -0.000  -0.000  -0.000   0.000  -0.000   0.000  -0.000
 -0.000   0.000  -0.000   0.000   0.000   0.000  -0.000  -0.000
  0.000  -0.000   0.000  -0.000   0.000   0.000   0.000   0.000
  0.000  -0.000   0.000   0.000  -0.000   0.000   0.000  -0.000
 -0.000   0.000   0.000  -0.000  -0.000   0.000  -0.000  -0.000


------------------------ aborting loop because EDIFF is reached ----------------------------------------


    FORLOC:  cpu time      0.2582: real time      0.2581
    FORHF :  cpu time     85.8973: real time     85.8946
    FORNL :  cpu time      5.9394: real time      5.9392
    STRESS:  cpu time     17.5535: real time     17.5530
    FORCOR:  cpu time     16.0128: real time     16.0123
    OFIELD:  cpu time      0.0204: real time      0.0204
 WARNING: Using user supplied parameters
     VDW_A1 = 0.383
     VDW_A2 = 5.685
     VDW_S8 = 2.31
     because the xc functional is not supported. Required parameters not
     defined in the INCAR file will be replaced with PBE defaults ones.


 ---------------------------------------------------------------------------------------------

         DFTD3 V3.0 Rev 1        
 IVDW         = 12
 DF unknown   
 parameters
 VDW_S6       =    1.0000
 VDW_S8       =    2.3100
 VDW_A1       =    0.3830
 VDW_A2       =    5.6850
 k1-k3        =   16.0000    1.3333   -4.0000
 VDW_RADIUS   =   50.2022 A
 VDW_CNRADIUS =   21.1671 A
 Edisp (eV)   -0.30002

 E6    (eV) :    -0.1492
 E8    (eV) :    -0.1508
 % E8        : 50.26
    FORVDW:  cpu time      0.0142: real time      0.0142

  FORCE on cell =-STRESS in cart. coord.  units (eV):
  Direction    XX          YY          ZZ          XY          YZ          ZX
  --------------------------------------------------------------------------------------
  Alpha Z     0.15607     0.15607     0.15607
  Ewald    2890.35125  1744.22007  -363.18534    -0.03282    -0.06445     0.20043
  Hartree  2894.02045  2038.14899   722.22929    -0.02092    -0.04027     0.11799
  E(xc)    -130.22013  -130.87668  -132.59371    -0.00002    -0.00007     0.00023
  Local   -6235.05553 -4263.09972  -914.18058     0.05093     0.09957    -0.30297
  n-local   -54.56060   -51.90116   -47.54699    -0.00012     0.00090    -0.00237
  augment    -0.93316    -1.02751    -0.90036     0.00003    -0.00001    -0.00001
  Kinetic   678.63883   708.08410   777.38780     0.00149     0.00473    -0.01394
  Fock      -48.70339   -46.43329   -41.98810     0.00011     0.00042    -0.00116
  vdW        -0.13424    -0.07191    -0.00000     0.00000     0.00000    -0.00001
  -------------------------------------------------------------------------------------
  Total      -6.44044    -2.80103    -0.62194    -0.00131     0.00082    -0.00179
  in kB      -0.16123    -0.07012    -0.01557    -0.00003     0.00002    -0.00004
  external pressure =       -0.08 kB  Pullay stress =        0.00 kB


 VOLUME and BASIS-vectors are now :
 -----------------------------------------------------------------------------
  energy-cutoff  :      500.00
  volume of cell :    64000.00
      direct lattice vectors                 reciprocal lattice vectors
    40.000000000  0.000000000  0.000000000     0.025000000  0.000000000  0.000000000
     0.000000000 40.000000000  0.000000000     0.000000000  0.025000000  0.000000000
     0.000000000  0.000000000 40.000000000     0.000000000  0.000000000  0.025000000

  length of vectors
    40.000000000 40.000000000 40.000000000     0.025000000  0.025000000  0.025000000


 FORCES acting on ions:
    Electron-Ion                     Ewald-Force                    Non-Local-Force
 -----------------------------------------------------------------------------------------------
   0.880E+02 0.309E+02 -.268E-01   -.845E+02 -.287E+02 0.271E-01   -.346E+01 -.243E+01 -.924E-03
   0.142E+03 -.136E+03 -.364E-01   -.144E+03 0.137E+03 0.367E-01   0.154E+01 -.225E+01 0.289E-04
   -.622E-02 -.212E+03 -.146E-01   0.623E-02 0.213E+03 0.148E-01   -.130E-03 -.237E+01 -.499E-03
   -.142E+03 -.136E+03 0.411E-01   0.144E+03 0.137E+03 -.404E-01   -.154E+01 -.225E+01 -.968E-03
   -.880E+02 0.309E+02 0.104E+00   0.845E+02 -.287E+02 -.105E+00   0.346E+01 -.243E+01 0.215E-02
   0.428E-02 0.168E+03 0.364E-01   -.426E-02 -.170E+03 -.360E-01   0.781E-04 0.292E+01 -.719E-03
   -.392E+02 0.139E+02 0.106E+00   0.394E+02 -.142E+02 -.107E+00   0.254E+01 -.142E+01 0.385E-02
   0.392E+02 0.139E+02 -.230E-01   -.394E+02 -.142E+02 0.233E-01   -.254E+01 -.142E+01 -.606E-03
   -.276E+03 0.151E+03 -.178E+00   0.313E+03 -.172E+03 0.211E+00   -.324E+02 0.184E+02 -.300E-01
   0.276E+03 0.151E+03 0.248E-01   -.313E+03 -.172E+03 -.298E-01   0.324E+02 0.184E+02 0.466E-02
   0.192E-02 0.864E+02 0.944E-02   -.214E-02 -.920E+02 -.960E-02   0.107E-03 0.590E+01 0.335E-03
   -.695E+02 -.528E+02 0.984E-02   0.744E+02 0.554E+02 -.101E-01   -.508E+01 -.293E+01 0.359E-03
   -.138E-02 -.876E+02 -.760E-02   0.156E-02 0.930E+02 0.815E-02   -.263E-04 -.581E+01 -.570E-03
   0.695E+02 -.528E+02 -.164E-01   -.744E+02 0.554E+02 0.175E-01   0.508E+01 -.293E+01 -.106E-02
 -----------------------------------------------------------------------------------------------
   0.102E-02 -.220E+02 0.247E-01   -.853E-13 -.142E-12 0.694E-17   -.926E-03 0.195E+02 -.239E-01
 
 
 POSITION                                       TOTAL-FORCE (eV/Angst)
 -----------------------------------------------------------------------------------
     18.79255     19.60926     20.00003         0.366706      0.191933     -0.000623
     18.78894     21.01775     20.00016         0.183572     -0.185617      0.000491
     20.00003     21.70939     20.00001        -0.000128     -0.166544     -0.000230
     21.21107     21.01768     19.99973        -0.182826     -0.185559     -0.000485
     21.20744     19.60918     19.99961        -0.367062      0.192067      0.000566
     19.99997     18.89467     19.99975         0.000170      0.222662     -0.000467
     22.44547     18.89600     20.00009         1.134897     -0.642667      0.001761
     17.55450     18.89614     20.00000        -1.139009     -0.644870     -0.000120
     23.46067     18.31744     20.00097        -1.286476      0.730603     -0.001823
     16.53925     18.31757     19.99986         1.290261      0.732838      0.000435
     19.99995     17.80616     19.99970        -0.000076      0.256564      0.000173
     22.15863     21.55495     19.99966        -0.229788     -0.119917      0.000151
     20.00004     22.79886     20.00012         0.000136     -0.261803      0.000071
     17.84141     21.55503     20.00036         0.229623     -0.119689      0.000100
 -----------------------------------------------------------------------------------
    total drift:                               -0.000015      0.001797     -0.001408


--------------------------------------------------------------------------------------------------------



  FREE ENERGIE OF THE ION-ELECTRON SYSTEM (eV)
  ---------------------------------------------------
  free  energy   TOTEN  =      -119.02416385 eV

  energy  without entropy=     -119.02416385  energy(sigma->0) =     -119.02416385
 


--------------------------------------------------------------------------------------------------------


    POTLOK:  cpu time    251.7334: real time    251.7300


--------------------------------------------------------------------------------------------------------


 writing wavefunctions
     LOOP+:  cpu time   6530.9602: real time   6531.5774
    4ORBIT:  cpu time      0.0000: real time      0.0000

 total amount of memory used by VASP MPI-rank0   512152. kBytes
=======================================================================

   base      :      30000. kBytes
   nonlr-proj:       2551. kBytes
   fftplans  :     129164. kBytes
   grid      :     282813. kBytes
   one-center:          6. kBytes
   HF        :          4. kBytes
   wavefun   :      67614. kBytes
   fock_wrk  :          0. kBytes
 
  
  
 General timing and accounting informations for this job:
 ========================================================
  
                  Total CPU time used (sec):     6579.936
                            User time (sec):     3024.945
                          System time (sec):     3554.991
                         Elapsed time (sec):     6581.569
  
                   Maximum memory used (kb):     1472492.
                   Average memory used (kb):          N/A
  
                          Minor page faults:     14996295
                          Major page faults:            0
                 Voluntary context switches:         9894
