 vasp.6.3.2 27Jun22 (build Oct 25 2024 11:36:28) complex                        
  
 executed on             LinuxIFC date 2025.09.09  13:08:37
 running on   90 total cores
 distrk:  each k-point on   90 cores,    1 groups
 distr:  one band on NCORE=  10 cores,    9 groups


--------------------------------------------------------------------------------------------------------


 INCAR:
   SYSTEM = 010_red
   ISTART = 1
   ICHARG = 2
   INIWAV = 1
   LHFCALC = .TRUE.
   HFSCREEN = 0.2
   NELM = 500
   ALGO = Damped
   ISPIN = 2
   EDIFF = 1E-05
   ISMEAR = 0
   SIGMA = 0.05
   PREC = accurate
   ENCUT = 500
   LREAL = auto  	
   LDIAG = .FALSE.
   LWAVE = .TRUE.
   LCHARG = .FALSE.
   LAECHG = .FALSE.
   LVHAR = .FALSE.
   LVTOT = .FALSE.
   EDIFFG = -0.02
   IBRION = 2
   NSW = 0
   ISIF = 2
   POTIM = 0.5
   IVDW = 12
   VDW_A1 = 0.383
   VDW_S8 = 2.310
   VDW_A2 = 5.685
   LPLANE = .TRUE.
   NCORE = 10
   LSCALU = .FALSE.
   NSIM = 4
   LSOL = .TRUE.
   ISOL = 2
   R_SOLV = 2.1900
   EPSILON_INF = 1.8069
   N_MOL = 0.0115
   P_MOL = 0.82
   EB_K = 35.6880

 POTCAR:    PAW_PBE C 08Apr2002                   
 POTCAR:    PAW_PBE O 08Apr2002                   
 POTCAR:    PAW_PBE H 15Jun2001                   
 -----------------------------------------------------------------------------
|                                                                             |
|           W    W    AA    RRRRR   N    N  II  N    N   GGGG   !!!           |
|           W    W   A  A   R    R  NN   N  II  NN   N  G    G  !!!           |
|           W    W  A    A  R    R  N N  N  II  N N  N  G       !!!           |
|           W WW W  AAAAAA  RRRRR   N  N N  II  N  N N  G  GGG   !            |
|           WW  WW  A    A  R   R   N   NN  II  N   NN  G    G                |
|           W    W  A    A  R    R  N    N  II  N    N   GGGG   !!!           |
|                                                                             |
|     You use a magnetic or noncollinear calculation, but did not specify     |
|     the initial magnetic moment with the MAGMOM tag. Note that a            |
|     default of 1 will be used for all atoms. This ferromagnetic setup       |
|     may break the symmetry of the crystal, in particular it may rule        |
|     out finding an antiferromagnetic solution. Thence, we recommend         |
|     setting the initial magnetic moment manually or verifying carefully     |
|     that this magnetic setup is desired.                                    |
|                                                                             |
 -----------------------------------------------------------------------------

 POTCAR:    PAW_PBE C 08Apr2002                   
   SHA256 =  253f7b50bb8d59471dbedb8285d89021f4a42ed1a2c5d38a03a736e69125dd95 C/POTCAR              
   COPYR  = (c) Copyright 08Apr2002 Georg Kresse                                                    
   COPYR  = This file is part of the software VASP. Any use, copying, and all other rights are regul
   COPYR  = If you do not have a valid VASP license, you may not use, copy or distribute this file. 
   VRHFIN =C: s2p2                                                                                  
   LEXCH  = PE                                                                                      
   EATOM  =   147.1560 eV,   10.8157 Ry                                                             
                                                                                                    
   TITEL  = PAW_PBE C 08Apr2002                                                                     
   LULTRA =        F    use ultrasoft PP ?                                                          
   IUNSCR =        1    unscreen: 0-lin 1-nonlin 2-no                                               
   RPACOR =    1.200    partial core radius                                                         
   POMASS =   12.011; ZVAL   =    4.000    mass and valenz                                          
   RCORE  =    1.500    outmost cutoff radius                                                       
   RWIGS  =    1.630; RWIGS  =    0.863    wigner-seitz radius (au A)                               
   ENMAX  =  400.000; ENMIN  =  300.000 eV                                                          
   ICORE  =        2    local potential                                                             
   LCOR   =        T    correct aug charges                                                         
   LPAW   =        T    paw PP                                                                      
   EAUG   =  644.873                                                                                
   DEXC   =    0.000                                                                                
   RMAX   =    1.529    core radius for proj-oper                                                   
   RAUG   =    1.300    factor for augmentation sphere                                              
   RDEP   =    1.501    radius for radial grids                                                     
   RDEPT  =    1.300    core radius for aug-charge                                                  
                                                                                                    
   Atomic configuration                                                                             
    4 entries                                                                                       
     n  l   j            E        occ.                                                              
     1  0  0.50      -273.3789   2.0000                                                             
     2  0  0.50       -13.7508   2.0000                                                             
     2  1  0.50        -5.2854   2.0000                                                             
     3  2  1.50        -5.4423   0.0000                                                             
   Description                                                                                      
     l       E           TYP  RCUT    TYP  RCUT                                                     
     0    -13.7508458     23  1.200                                                                 
     0     -8.2022199     23  1.200                                                                 
     1     -5.2854383     23  1.500                                                                 
     1     34.0145650     23  1.500                                                                 
     2     -5.4423304      7  1.500                                                                 
  local pseudopotential read in
  partial core-charges read in
  partial kinetic energy density read in
  atomic valenz-charges read in
  non local Contribution for L=           0  read in
    real space projection operators read in
  non local Contribution for L=           0  read in
    real space projection operators read in
  non local Contribution for L=           1  read in
    real space projection operators read in
  non local Contribution for L=           1  read in
    real space projection operators read in
    PAW grid and wavefunctions read in
 
   number of l-projection  operators is LMAX  =           4
   number of lm-projection operators is LMMAX =           8
 
 POTCAR:    PAW_PBE O 08Apr2002                   
   SHA256 =  818f92134a0a090dccd8ba1447fa70422a3b330e708bb4f08108d8ae51209ddf O/POTCAR              
   COPYR  = (c) Copyright 08Apr2002 Georg Kresse                                                    
   COPYR  = This file is part of the software VASP. Any use, copying, and all other rights are regul
   COPYR  = If you do not have a valid VASP license, you may not use, copy or distribute this file. 
   VRHFIN =O: s2p4                                                                                  
   LEXCH  = PE                                                                                      
   EATOM  =   432.3788 eV,   31.7789 Ry                                                             
                                                                                                    
   TITEL  = PAW_PBE O 08Apr2002                                                                     
   LULTRA =        F    use ultrasoft PP ?                                                          
   IUNSCR =        1    unscreen: 0-lin 1-nonlin 2-no                                               
   RPACOR =    1.200    partial core radius                                                         
   POMASS =   16.000; ZVAL   =    6.000    mass and valenz                                          
   RCORE  =    1.520    outmost cutoff radius                                                       
   RWIGS  =    1.550; RWIGS  =    0.820    wigner-seitz radius (au A)                               
   ENMAX  =  400.000; ENMIN  =  300.000 eV                                                          
   ICORE  =        2    local potential                                                             
   LCOR   =        T    correct aug charges                                                         
   LPAW   =        T    paw PP                                                                      
   EAUG   =  605.392                                                                                
   DEXC   =    0.000                                                                                
   RMAX   =    1.553    core radius for proj-oper                                                   
   RAUG   =    1.300    factor for augmentation sphere                                              
   RDEP   =    1.550    radius for radial grids                                                     
   RDEPT  =    1.329    core radius for aug-charge                                                  
                                                                                                    
   Atomic configuration                                                                             
    4 entries                                                                                       
     n  l   j            E        occ.                                                              
     1  0  0.50      -514.6923   2.0000                                                             
     2  0  0.50       -23.9615   2.0000                                                             
     2  1  0.50        -9.0305   4.0000                                                             
     3  2  1.50        -9.5241   0.0000                                                             
   Description                                                                                      
     l       E           TYP  RCUT    TYP  RCUT                                                     
     0    -23.9615318     23  1.200                                                                 
     0     -9.5240782     23  1.200                                                                 
     1     -9.0304911     23  1.520                                                                 
     1      8.1634956     23  1.520                                                                 
     2     -9.5240782      7  1.500                                                                 
  local pseudopotential read in
  partial core-charges read in
  partial kinetic energy density read in
  kinetic energy density of atom read in
  atomic valenz-charges read in
  non local Contribution for L=           0  read in
    real space projection operators read in
  non local Contribution for L=           0  read in
    real space projection operators read in
  non local Contribution for L=           1  read in
    real space projection operators read in
  non local Contribution for L=           1  read in
    real space projection operators read in
    PAW grid and wavefunctions read in
 
   number of l-projection  operators is LMAX  =           4
   number of lm-projection operators is LMMAX =           8
 
 POTCAR:    PAW_PBE H 15Jun2001                   
   SHA256 =  030f79b5d3ab3cf0e668861823c8fb652ff669f3e15e46930bd03bfd63a607b6 H/POTCAR              
   COPYR  = (c) Copyright 15Jun2001 Georg Kresse                                                    
   COPYR  = This file is part of the software VASP. Any use, copying, and all other rights are regul
   COPYR  = If you do not have a valid VASP license, you may not use, copy or distribute this file. 
   VRHFIN =H: ultrasoft test                                                                        
   LEXCH  = PE                                                                                      
   EATOM  =    12.4884 eV,    0.9179 Ry                                                             
                                                                                                    
   TITEL  = PAW_PBE H 15Jun2001                                                                     
   LULTRA =        F    use ultrasoft PP ?                                                          
   IUNSCR =        0    unscreen: 0-lin 1-nonlin 2-no                                               
   RPACOR =    0.000    partial core radius                                                         
   POMASS =    1.000; ZVAL   =    1.000    mass and valenz                                          
   RCORE  =    1.100    outmost cutoff radius                                                       
   RWIGS  =    0.700; RWIGS  =    0.370    wigner-seitz radius (au A)                               
   ENMAX  =  250.000; ENMIN  =  200.000 eV                                                          
   RCLOC  =    0.701    cutoff for local pot                                                        
   LCOR   =        T    correct aug charges                                                         
   LPAW   =        T    paw PP                                                                      
   EAUG   =  400.000                                                                                
   RMAX   =    1.123    core radius for proj-oper                                                   
   RAUG   =    1.200    factor for augmentation sphere                                              
   RDEP   =    1.112    radius for radial grids                                                     
   RDEPT  =    0.926    core radius for aug-charge                                                  
                                                                                                    
   Atomic configuration                                                                             
    2 entries                                                                                       
     n  l   j            E        occ.                                                              
     1  0  0.50        -6.4927   1.0000                                                             
     2  1  0.50        -3.4015   0.0000                                                             
   Description                                                                                      
     l       E           TYP  RCUT    TYP  RCUT                                                     
     0     -6.4927494     23  1.100                                                                 
     0      6.8029130     23  1.100                                                                 
     1     -4.0817478     23  1.100                                                                 
  local pseudopotential read in
  atomic valenz-charges read in
  non local Contribution for L=           0  read in
    real space projection operators read in
  non local Contribution for L=           0  read in
    real space projection operators read in
  non local Contribution for L=           1  read in
    real space projection operators read in
    PAW grid and wavefunctions read in
 
   number of l-projection  operators is LMAX  =           3
   number of lm-projection operators is LMMAX =           5
 
 Optimization of the real space projectors (new method)

 maximal supplied QI-value         = 25.13
 optimisation between [QCUT,QGAM] = [ 11.31, 22.87] = [ 35.82,146.48] Ry 
 Optimized for a Real-space Cutoff    1.03 Angstroem

   l    n(q)    QCUT    max X(q) W(low)/X(q) W(high)/X(q)  e(spline) 
   0      7    11.310   115.676    0.20E-03    0.90E-03    0.20E-06
   0      7    11.310    87.132    0.20E-03    0.89E-03    0.19E-06
   1      6    11.310     4.429    0.16E-03    0.28E-03    0.12E-06
   1      6    11.310     2.733    0.12E-03    0.21E-03    0.99E-07
 Optimization of the real space projectors (new method)

 maximal supplied QI-value         = 24.76
 optimisation between [QCUT,QGAM] = [ 11.39, 22.77] = [ 36.31,145.25] Ry 
 Optimized for a Real-space Cutoff    1.10 Angstroem

   l    n(q)    QCUT    max X(q) W(low)/X(q) W(high)/X(q)  e(spline) 
   0      7    11.387    20.381    0.22E-03    0.48E-03    0.18E-06
   0      7    11.387    15.268    0.22E-03    0.52E-03    0.19E-06
   1      7    11.387     5.964    0.22E-03    0.73E-03    0.24E-06
   1      7    11.387     5.382    0.19E-03    0.60E-03    0.21E-06
 Optimization of the real space projectors (new method)

 maximal supplied QI-value         = 34.20
 optimisation between [QCUT,QGAM] = [ 11.29, 22.57] = [ 35.68,142.71] Ry 
 Optimized for a Real-space Cutoff    1.20 Angstroem

   l    n(q)    QCUT    max X(q) W(low)/X(q) W(high)/X(q)  e(spline) 
   0      8    11.287    19.460    0.22E-03    0.50E-03    0.19E-06
   0      8    11.287    12.209    0.21E-03    0.48E-03    0.18E-06
   1      8    11.287     4.655    0.21E-03    0.11E-04    0.26E-06
  PAW_PBE C 08Apr2002                   :
 energy of atom  1       EATOM= -147.1560
 kinetic energy error for atom=    0.0076 (will be added to EATOM!!)
  PAW_PBE O 08Apr2002                   :
 energy of atom  2       EATOM= -432.3788
 kinetic energy error for atom=    0.0224 (will be added to EATOM!!)
  PAW_PBE H 15Jun2001                   :
 energy of atom  3       EATOM=  -12.4884
 kinetic energy error for atom=    0.0020 (will be added to EATOM!!)
 
 
 POSCAR: C O H
  positions in direct lattice
  velocities in cartesian coordinates
 exchange correlation table for  LEXCH =        8
   RHO(1)=    0.500       N(1)  =     2000
   RHO(2)=  100.500       N(2)  =     4000
 
 POSCAR: C O H
  positions in direct lattice
  velocities in cartesian coordinates
 
 POSCAR: C O H
  positions in direct lattice
  velocities in cartesian coordinates
 


--------------------------------------------------------------------------------------------------------


 ion  position               nearest neighbor table
   1  0.494  0.457  0.501-  22 1.09   2 1.41   6 1.41
   2  0.459  0.454  0.501-  21 1.09   3 1.38   1 1.41
   3  0.441  0.483  0.500-  12 1.38   2 1.38   4 1.40
   4  0.456  0.515  0.500-   5 1.38  11 1.38   3 1.40
   5  0.491  0.518  0.501-  18 1.09   4 1.38   6 1.42
   6  0.510  0.488  0.501-   1 1.41   5 1.42   7 1.47
   7  0.547  0.489  0.502-  17 1.10   8 1.35   6 1.47
   8  0.567  0.516  0.502-  16 1.10   7 1.35   9 1.49
   9  0.604  0.515  0.502-  13 1.10  14 1.10  15 1.10   8 1.49
  10  0.401  0.523  0.494-  20 1.10  19 1.10  11 1.44  12 1.44
  11  0.433  0.540  0.500-   4 1.38  10 1.44
  12  0.406  0.488  0.500-   3 1.38  10 1.44
  13  0.613  0.489  0.503-   9 1.10
  14  0.615  0.527  0.480-   9 1.10
  15  0.614  0.528  0.524-   9 1.10
  16  0.556  0.541  0.501-   8 1.10
  17  0.559  0.464  0.503-   7 1.10
  18  0.502  0.543  0.501-   5 1.09
  19  0.393  0.527  0.468-  10 1.10
  20  0.383  0.532  0.512-  10 1.10
  21  0.447  0.430  0.501-   2 1.09
  22  0.509  0.434  0.502-   1 1.09
 
  LATTYP: Found a simple cubic cell.
 ALAT       =    40.0000000000
  
  Lattice vectors:
  
 A1 = (  40.0000000000,   0.0000000000,   0.0000000000)
 A2 = (   0.0000000000,  40.0000000000,   0.0000000000)
 A3 = (   0.0000000000,   0.0000000000,  40.0000000000)


Analysis of symmetry for initial positions (statically):
=====================================================================
 Subroutine PRICEL returns:
 Original cell was already a primitive cell.
 

 Routine SETGRP: Setting up the symmetry group for a 
 simple cubic supercell.


 Subroutine GETGRP returns: Found  1 space group operations
 (whereof  1 operations were pure point group operations)
 out of a pool of 48 trial point group operations.


The static configuration has the point symmetry C_1 .


Analysis of symmetry for dynamics (positions and initial velocities):
=====================================================================
 Subroutine PRICEL returns:
 Original cell was already a primitive cell.
 

 Routine SETGRP: Setting up the symmetry group for a 
 simple cubic supercell.


 Subroutine GETGRP returns: Found  1 space group operations
 (whereof  1 operations were pure point group operations)
 out of a pool of 48 trial point group operations.


The dynamic configuration has the point symmetry C_1 .


Analysis of constrained symmetry for selective dynamics:
=====================================================================
 Subroutine PRICEL returns:
 Original cell was already a primitive cell.
 

 Routine SETGRP: Setting up the symmetry group for a 
 simple cubic supercell.


 Subroutine GETGRP returns: Found  1 space group operations
 (whereof  1 operations were pure point group operations)
 out of a pool of 48 trial point group operations.


The constrained configuration has the point symmetry C_1 .


Analysis of structural, dynamic, and magnetic symmetry:
=====================================================================
 Subroutine PRICEL returns:
 Original cell was already a primitive cell.
 

 Routine SETGRP: Setting up the symmetry group for a 
 simple cubic supercell.


 Subroutine GETGRP returns: Found  1 space group operations
 (whereof  1 operations were pure point group operations)
 out of a pool of 48 trial point group operations.


The overall configuration has the point symmetry C_1 .


 Subroutine INISYM returns: Found  1 space group operations
 (whereof  1 operations are pure point group operations),
 and found     1 'primitive' translations


----------------------------------------------------------------------------------------

                                     Primitive cell                                     

  volume of cell :   64000.0000

  direct lattice vectors                    reciprocal lattice vectors
    40.000000000  0.000000000  0.000000000     0.025000000  0.000000000  0.000000000
     0.000000000 40.000000000  0.000000000     0.000000000  0.025000000  0.000000000
     0.000000000  0.000000000 40.000000000     0.000000000  0.000000000  0.025000000

  length of vectors
    40.000000000 40.000000000 40.000000000     0.025000000  0.025000000  0.025000000

  position of ions in fractional coordinates (direct lattice)
     0.493772995  0.457142023  0.501403546
     0.458745577  0.454061500  0.500675153
     0.440605671  0.483446571  0.499770451
     0.456449693  0.514623595  0.499801356
     0.490703730  0.517983118  0.500664793
     0.510172863  0.488275377  0.501385107
     0.546802323  0.488914780  0.502063255
     0.566934595  0.515891057  0.501622779
     0.604271708  0.514523079  0.502396135
     0.401248299  0.522983060  0.494426862
     0.432689648  0.539689667  0.500198099
     0.406372215  0.487692967  0.500098757
     0.613482667  0.488667947  0.503324031
     0.615175319  0.526736477  0.480234283
     0.614310589  0.527999457  0.524232162
     0.555966107  0.540952540  0.500616597
     0.558658317  0.464219775  0.502993334
     0.502187944  0.542669955  0.500919222
     0.393457084  0.526962530  0.468237677
     0.382549645  0.532419725  0.512144958
     0.446557985  0.429710832  0.500850572
     0.508886024  0.434432966  0.501939870

  ion indices of the primitive-cell ions
   primitive index   ion index
                 1           1
                 2           2
                 3           3
                 4           4
                 5           5
                 6           6
                 7           7
                 8           8
                 9           9
                10          10
                11          11
                12          12
                13          13
                14          14
                15          15
                16          16
                17          17
                18          18
                19          19
                20          20
                21          21
                22          22

----------------------------------------------------------------------------------------

 
 
 KPOINTS: K-Point Grid                            

Automatic generation of k-mesh.
 Grid dimensions read from file:
 generate k-points for:    1    1    1

 Generating k-lattice:

  Cartesian coordinates                     Fractional coordinates (reciprocal lattice)
     0.025000000  0.000000000  0.000000000     1.000000000  0.000000000  0.000000000
     0.000000000  0.025000000  0.000000000     0.000000000  1.000000000  0.000000000
     0.000000000  0.000000000  0.025000000     0.000000000  0.000000000  1.000000000

  Length of vectors
     0.025000000  0.025000000  0.025000000

  Shift w.r.t. Gamma in fractional coordinates (k-lattice)
     0.000000000  0.000000000  0.000000000

 
 Subroutine IBZKPT returns following result:
 ===========================================
 
 Found      1 irreducible k-points:
 
 Following reciprocal coordinates:
            Coordinates               Weight
  0.000000  0.000000  0.000000      1.000000
 
 Following cartesian coordinates:
            Coordinates               Weight
  0.000000  0.000000  0.000000      1.000000
 
 
 Subroutine IBZKPT_HF returns following result:
 ==============================================
 
 Found      1 k-points in 1st BZ
 the following      1 k-points will be used (e.g. in the exchange kernel)
 Following reciprocal coordinates:   # in IRBZ
  0.000000  0.000000  0.000000    1.00000000   1 t-inv F


--------------------------------------------------------------------------------------------------------




 Dimension of arrays:
   k-points           NKPTS =      1   k-points in BZ     NKDIM =      1   number of bands    NBANDS=     54
   number of dos      NEDOS =    301   number of ions     NIONS =     22
   non local maximal  LDIM  =      4   non local SUM 2l+1 LMDIM =      8
   total plane-waves  NPLWV = ******
   max r-space proj   IRMAX =   2915   max aug-charges    IRDMAX=   5350
   dimension x,y,z NGX =   294 NGY =  294 NGZ =  294
   dimension x,y,z NGXF=   588 NGYF=  588 NGZF=  588
   support grid    NGXF=   588 NGYF=  588 NGZF=  588
   ions per type =              10   2  10
   NGX,Y,Z   is equivalent  to a cutoff of  12.22, 12.22, 12.22 a.u.
   NGXF,Y,Z  is equivalent  to a cutoff of  24.44, 24.44, 24.44 a.u.

 SYSTEM =  010_red                                 
 POSCAR =  C O H                                   

 Startparameter for this run:
   NWRITE =      2    write-flag & timer
   PREC   = accura    normal or accurate (medium, high low for compatibility)
   ISTART =      1    job   : 0-new  1-cont  2-samecut
   ICHARG =      2    charge: 1-file 2-atom 10-const
   ISPIN  =      2    spin polarized calculation?
   LNONCOLLINEAR =      F non collinear calculations
   LSORBIT =      F    spin-orbit coupling
   INIWAV =      1    electr: 0-lowe 1-rand  2-diag
   LASPH  =      F    aspherical Exc in radial PAW
 Electronic Relaxation 1
   ENCUT  =  500.0 eV  36.75 Ry    6.06 a.u.  72.93 72.93 72.93*2*pi/ulx,y,z
   ENINI  =  500.0     initial cutoff
   ENAUG  =  644.9 eV  augmentation charge cutoff
   NELM   =    500;   NELMIN=  2; NELMDL=  0     # of ELM steps 
   EDIFF  = 0.1E-04   stopping-criterion for ELM
   LREAL  =      T    real-space projection
   NLSPLINE    = F    spline interpolate recip. space projectors
   LCOMPAT=      F    compatible to vasp.4.4
   GGA_COMPAT  = T    GGA compatible to vasp.4.4-vasp.4.6
   LMAXPAW     = -100 max onsite density
   LMAXMIX     =    2 max onsite mixed and CHGCAR
   VOSKOWN=      0    Vosko Wilk Nusair interpolation
   ROPT   =   -0.00025  -0.00025  -0.00025
 Ionic relaxation
   EDIFFG = -.2E-01   stopping-criterion for IOM
   NSW    =      0    number of steps for IOM
   NBLOCK =      1;   KBLOCK =      1    inner block; outer block 
   IBRION =     -1    ionic relax: 0-MD 1-quasi-New 2-CG
   NFREE  =      1    steps in history (QN), initial steepest desc. (CG)
   ISIF   =      2    stress and relaxation
   IWAVPR =     10    prediction:  0-non 1-charg 2-wave 3-comb
   ISYM   =      3    0-nonsym 1-usesym 2-fastsym
   LCORR  =      T    Harris-Foulkes like correction to forces

   POTIM  = 0.5000    time-step for ionic-motion
   TEIN   =    0.0    initial temperature
   TEBEG  =    0.0;   TEEND  =   0.0 temperature during run
   SMASS  =  -3.00    Nose mass-parameter (am)
   estimated Nose-frequenzy (Omega)   =  0.10E-29 period in steps = 0.13E+47 mass=  -0.366E-25a.u.
   SCALEE = 1.0000    scale energy and forces
   NPACO  =    256;   APACO  = 10.0  distance and # of slots for P.C.
   PSTRESS=    0.0 pullay stress

  Mass of Ions in am
   POMASS =  12.01 16.00  1.00
  Ionic Valenz
   ZVAL   =   4.00  6.00  1.00
  Atomic Wigner-Seitz radii
   RWIGS  =  -1.00 -1.00 -1.00
  virtual crystal weights 
   VCA    =   1.00  1.00  1.00
   NELECT =      62.0000    total number of electrons
   NUPDOWN=      -1.0000    fix difference up-down

 DOS related values:
   EMIN   =  10.00;   EMAX   =-10.00  energy-range for DOS
   EFERMI =   0.00
   ISMEAR =     0;   SIGMA  =   0.05  broadening in eV -4-tet -1-fermi 0-gaus

 Electronic relaxation 2 (details)
   IALGO  =     53    algorithm
   LDIAG  =      F    sub-space diagonalisation (order eigenvalues)
   LSUBROT=      F    optimize rotation matrix (better conditioning)
   TURBO    =      0    0=normal 1=particle mesh
   IRESTART =      0    0=no restart 2=restart with 2 vectors
   NREBOOT  =      0    no. of reboots
   NMIN     =      0    reboot dimension
   EREF     =   0.00    reference energy to select bands
   IMIX   =      4    mixing-type and parameters
     AMIX     =   0.40;   BMIX     =  1.00
     AMIX_MAG =   1.60;   BMIX_MAG =  1.00
     AMIN     =   0.10
     WC   =   100.;   INIMIX=   1;  MIXPRE=   1;  MAXMIX= -45

 Intra band minimization:
   WEIMIN = 0.0000     energy-eigenvalue tresh-hold
   EBREAK =  0.46E-07  absolut break condition
   DEPER  =   0.30     relativ break condition  

   TIME   =   0.40     timestep for ELM

  volume/ion in A,a.u.               =    2909.09     19631.51
  Fermi-wavevector in a.u.,A,eV,Ry     =   0.161986  0.306110  0.357012  0.026240
  Thomas-Fermi vector in A             =   0.858209
 
 Write flags
   LWAVE        =      T    write WAVECAR
   LDOWNSAMPLE  =      F    k-point downsampling of WAVECAR
   LCHARG       =      F    write CHGCAR
   LVTOT        =      F    write LOCPOT, total local potential
   LVHAR        =      F    write LOCPOT, Hartree potential only
   LELF         =      F    write electronic localiz. function (ELF)
   LORBIT       =      0    0 simple, 1 ext, 2 COOP (PROOUT), +10 PAW based schemes


 Dipole corrections
   LMONO  =      F    monopole corrections only (constant potential shift)
   LDIPOL =      F    correct potential (dipole corrections)
   IDIPOL =      0    1-x, 2-y, 3-z, 4-all directions 
   EPSILON=  1.0000000 bulk dielectric constant

 Exchange correlation treatment:
   GGA     =    --    GGA type
   LEXCH   =     8    internal setting for exchange type
   LIBXC   =     F    Libxc                    
   VOSKOWN =     0    Vosko Wilk Nusair interpolation
   EXXOEP  =     0    0=HF, 1=EXX-LHF (local Hartree Fock) 2=EXX OEP
   LHFCALC =     T    Hartree Fock is set to
   LSYMGRAD=     F    symmetrize gradient (conserves proper symmetry)
   PRECFOCK=normal    Normal, Fast or Accurate (Low or Medium for compatibility)
   LRHFCALC=     F    long range Hartree Fock
   LRSCOR  =     F    long range correlation only (use DFT for short range part)
   LTHOMAS =     F    Thomas Fermi screening in HF
   LMODELHF=     F    short range full HF, long range fraction AEXX
   FOCKCORR=     1    mode to apply convergence corrections
   LFOCKACE=     T    use Adeptively-Compressed-Exchange operator
   ENCUT4O =  -1.0   cutoff for four orbital integrals eV
   LMAXFOCK=     4    L truncation for augmentation on plane wave grid
   LMAXFOCKAE=  -1    L truncation for all-electron charge restoration on plane wave grid
   NMAXFOCKAE=   1    number of basis functions for all-electron charge restoration
   LFOCKAEDFT=     F  apply the AE augmentation even for DFT
   NKREDX  =     1    reduce k-point grid by
   NKREDY  =     1    reduce k-point grid by
   NKREDZ  =     1    reduce k-point grid by
   SHIFTRED=     F    shift reduced grid of Gamma
   HFKIDENT=     F    idential grid for each k-point
   ODDONLY =     F    use only odd q-grid points
   EVENONLY=     F    use only even q-grid points
   HFALPHA =   -1.0000 decay constant for conv. correction
   MCALPHA =    0.0000 extent of test-charge in conv. correction in multipole expansion
   AEXX    =    0.2500 exact exchange contribution
   HFSCREEN=    0.2000 screening length (either q_TF or 0.3 A-1)
   HFSCREENC=   0.2000 screening length for correlation (either q_TF or 0.3 A-1)
   HFRCUT  =    0.0000 spherical cutoff for potential kernel
   ALDAX   =    0.7500 LDA exchange part
   AGGAX   =    0.7500 GGA exchange part
   ALDAC   =    1.0000 LDA correlation
   AGGAC   =    1.0000 GGA correlation
   ENCUTFOCK=  -1.0 apply spherical cutoff to Coloumb kernel
   NBANDSGWLOW=     1    first orbital included in HF term
   NBLOCK_FOCK=    64    blocking factor in FOCK_ACC

 Linear response parameters
   LEPSILON=     F    determine dielectric tensor
   LRPA    =     F    only Hartree local field effects (RPA)
   LNABLA  =     F    use nabla operator in PAW spheres
   LVEL    =     F    velocity operator in full k-point grid
   CSHIFT  =0.1000    complex shift for real part using Kramers Kronig
   OMEGAMAX=  -1.0    maximum frequency
   DEG_THRESHOLD= 0.2000000E-02 threshold for treating states as degnerate
   RTIME   =   -0.100 relaxation time in fs
  (WPLASMAI=    0.000 imaginary part of plasma frequency in eV, 0.658/RTIME)
   DFIELD  = 0.0000000 0.0000000 0.0000000 field for delta impulse in time
 
  Optional k-point grid parameters
   LKPOINTS_OPT  =     F    use optional k-point grid
   KPOINTS_OPT_MODE=     1    mode for optional k-point grid
 
 Orbital magnetization related:
   ORBITALMAG=     F  switch on orbital magnetization
   LCHIMAG   =     F  perturbation theory with respect to B field
   DQ        =  0.001000  dq finite difference perturbation B field
   LLRAUG    =     F  two centre corrections for induced B field

 Solvation model:
   LSOL             =     T         switch on solvation model
   LSOL_SCF         =     T         include solvation in SCF
   ISOL             =     2         solvation model type
   EFERMI_ref       =  0.000000         reference Fermi level
   capacitance_init =  1.000000         initial capacitance
 Nonlinear solvation model:
   LNLDIEL     =     T         switch on non-linear dielectric mode
   LNLION      =     T         switch on non-linear ionic mode
   LNLTEST     =     F         test non-linear model in linear regime
   I_NLOC_SOL  =     1         type of nonlocal dielectric response
   NC_K        =  0.015000     cutoff charge density for cavities (1/Angstrom**3)
   TAU         =  0.000879     cavity formation energy (eV/Angstrom**2)
   SIGMA_K     =  0.600000     cavity width
   A_K         =  0.125000     smoothing length (Angstrom)
   R_SOLV      =  2.190000     solvent radius (Angstrom)
   R_CAV       =  0.000000     cavity radius (Angstrom)
   R_DIEL      =  1.000000     dielectric radius (Angstrom)
   R_ION       =  0.000000     ionic radius (Angstrom)
   R_B         =  0.000000     bound charge radius (Angstrom)
   SOLTEMP     =298.000000     solvent temperature (K)
   EB_K        = 35.688000     relative permittivity of the bulk solvent
   EPSILON_INF =  1.806900     optical relative permittivity of bulk solvent
   N_MOL       =  0.011500     molar density of solvent (1/Angstrom**3)
   P_MOL       =  0.820000     solvent dipole moment (e*Angstrom)
   C_MOLAR     =  0.000000     electrolyte concentration (mol/L)
   LAMBDA_D_K  =  0.000000     Debye length (Angstrom)
   ZION        =  1.000000     charge of ions in electrolyte (e)
   D_ION       = -1.000000     minimum ion packing diameter (Angstrom)



--------------------------------------------------------------------------------------------------------


 Static calculation
 charge density and potential will be updated during run
 spin polarized calculation
 Conjugate gradient for all bands (Kresse, et al. variant)
 perform Loewdin sub-space diagonalisation
    ordering is kept fixed
    before iterative eigenvector-optimisation
 modified Broyden-mixing scheme, WC =      100.0
 initial mixing is a Kerker type mixing with AMIX =  0.4000 and BMIX =      1.0000
 Hartree-type preconditioning will be used
 using additional bands           23
 real space projection scheme for non local part
 use partial core corrections
 no Harris-corrections to forces 
 use gradient corrections 
 use of overlap-Matrix (Vanderbilt PP)
 Gauss-broadening in eV      SIGMA  =   0.05


--------------------------------------------------------------------------------------------------------


  energy-cutoff  :      500.00
  volume of cell :    64000.00
      direct lattice vectors                 reciprocal lattice vectors
    40.000000000  0.000000000  0.000000000     0.025000000  0.000000000  0.000000000
     0.000000000 40.000000000  0.000000000     0.000000000  0.025000000  0.000000000
     0.000000000  0.000000000 40.000000000     0.000000000  0.000000000  0.025000000

  length of vectors
    40.000000000 40.000000000 40.000000000     0.025000000  0.025000000  0.025000000


 
 old parameters found on file WAVECAR:
  energy-cutoff  :      500.00
  volume of cell :    64000.00
      direct lattice vectors                 reciprocal lattice vectors
    40.000000000  0.000000000  0.000000000     0.025000000  0.000000000  0.000000000
     0.000000000 40.000000000  0.000000000     0.000000000  0.025000000  0.000000000
     0.000000000  0.000000000 40.000000000     0.000000000  0.000000000  0.025000000

  length of vectors

 
 k-points in units of 2pi/SCALE and weight: K-Point Grid                            
   0.00000000  0.00000000  0.00000000       1.000
 
 k-points in reciprocal lattice and weights: K-Point Grid                            
   0.00000000  0.00000000  0.00000000       1.000
 
 position of ions in fractional coordinates (direct lattice) 
   0.49377299  0.45714202  0.50140355
   0.45874558  0.45406150  0.50067515
   0.44060567  0.48344657  0.49977045
   0.45644969  0.51462359  0.49980136
   0.49070373  0.51798312  0.50066479
   0.51017286  0.48827538  0.50138511
   0.54680232  0.48891478  0.50206326
   0.56693459  0.51589106  0.50162278
   0.60427171  0.51452308  0.50239614
   0.40124830  0.52298306  0.49442686
   0.43268965  0.53968967  0.50019810
   0.40637221  0.48769297  0.50009876
   0.61348267  0.48866795  0.50332403
   0.61517532  0.52673648  0.48023428
   0.61431059  0.52799946  0.52423216
   0.55596611  0.54095254  0.50061660
   0.55865832  0.46421978  0.50299333
   0.50218794  0.54266996  0.50091922
   0.39345708  0.52696253  0.46823768
   0.38254965  0.53241972  0.51214496
   0.44655799  0.42971083  0.50085057
   0.50888602  0.43443297  0.50193987
 
 position of ions in cartesian coordinates  (Angst):
  19.75091980 18.28568091 20.05614183
  18.34982307 18.16246001 20.02700611
  17.62422682 19.33786285 19.99081805
  18.25798771 20.58494380 19.99205423
  19.62814922 20.71932471 20.02659171
  20.40691451 19.53101508 20.05540428
  21.87209293 19.55659120 20.08253021
  22.67738380 20.63564230 20.06491118
  24.17086833 20.58092317 20.09584541
  16.04993198 20.91932240 19.77707447
  17.30758593 21.58758669 20.00792397
  16.25488859 19.50771867 20.00395029
  24.53930669 19.54671789 20.13296123
  24.60701277 21.06945909 19.20937133
  24.57242358 21.11997827 20.96928649
  22.23864429 21.63810162 20.02466389
  22.34633270 18.56879101 20.11973335
  20.08751776 21.70679821 20.03676889
  15.73828335 21.07850119 18.72950707
  15.30198581 21.29678899 20.48579833
  17.86231942 17.18843328 20.03402288
  20.35544094 17.37731866 20.07759481
 


--------------------------------------------------------------------------------------------------------


 k-point   1 :   0.0000 0.0000 0.0000  plane waves: 1624525

 maximum and minimum number of plane-waves per node :    162473   162437

 maximum number of plane-waves:   1624525
 maximum index in each direction: 
   IXMAX=   72   IYMAX=   72   IZMAX=   72
   IXMIN=  -72   IYMIN=  -72   IZMIN=  -72


 real space projection operators:
  total allocation   :       2466.53 KBytes
  max/ min on nodes  :        251.80        239.95


 parallel 3D FFT for wavefunctions:
    minimum data exchange during FFTs selected (reduces bandwidth)
 parallel 3D FFT for charge:
    minimum data exchange during FFTs selected (reduces bandwidth)


 FFT grid for exact exchange (Hartree Fock) 
  NGX =224; NGY =224; NGZ =224

 
 Radii for the augmentation spheres in the non-local exchange
 for species   1 augmentation radius   0.874 (default was   0.699)
       energy cutoff for augmentation   2000.0
 for species   2 augmentation radius   0.902 (default was   0.722)
       energy cutoff for augmentation   2000.0
 for species   3 augmentation radius   0.650 (default was   0.520)
       energy cutoff for augmentation   2000.0

 real space projection operators:
  total allocation   :        560.53 KBytes
  max/ min on nodes  :         57.66         54.28

 Maximum index for augmentation-charges in exchange           76
  SETUP_FOCK is finished

 total amount of memory used by VASP MPI-rank0   770930. kBytes
=======================================================================

   base      :      30000. kBytes
   nonlr-proj:       1665. kBytes
   fftplans  :     224335. kBytes
   grid      :     421299. kBytes
   one-center:         18. kBytes
   HF        :         13. kBytes
   wavefun   :      93600. kBytes
 
     INWAV:  cpu time     14.5182: real time     14.5222
 Broyden mixing: mesh for mixing (old mesh)
   NGX =145   NGY =145   NGZ =145
  (NGX  =588   NGY  =588   NGZ  =588)
  gives a total of ****** points

 initial charge density was supplied:
 charge density of overlapping atoms calculated
 number of electron      62.0000000 magnetization      22.0000000
 charge density for first step will be calculated from the start-wavefunctions


--------------------------------------------------------------------------------------------------------


 Maximum index for non-local projection operator          319
 Maximum index for augmentation-charges          331 (set IRDMAX)


--------------------------------------------------------------------------------------------------------


 initial charge from wavefunction
 First call to EWALD:  gamma=   0.044
 Maximum number of real-space cells 3x 3x 3
 Maximum number of reciprocal cells 3x 3x 3

    FEWALD:  cpu time      0.0036: real time      0.0036


--------------------------------------- Iteration      1(   1)  ---------------------------------------


    POTLOK:  cpu time     13.5580: real time     13.5593
    SETDIJ:  cpu time      0.0717: real time      0.0717
    TRIAL :  cpu time    212.9315: real time    212.9476
    CORREC:  cpu time      0.1304: real time      0.1304
    CHARGE:  cpu time      3.1860: real time      3.1863
    --------------------------------------------
      LOOP:  cpu time    229.9306: real time    229.9485

 eigenvalue-minimisations  :     0
 total energy-change (2. order) :-0.1625115E+03  (-0.1794960E-01)
 number of electron      61.9999992 magnetization       0.0000000
 augmentation part        2.4107853 magnetization       0.0000004

 Free energy of the ion-electron system (eV)
  ---------------------------------------------------
  alpha Z        PSCENC =         0.26742016
  Ewald energy   TEWEN  =      7104.06878402
  -Hartree energ DENC   =     -9113.75149240
  -exchange      EXHF   =       146.95156613
  -V(xc)+E(xc)   XCENC  =       170.24380142
  PAW double counting   =      5585.99643919    -5592.93485981
  entropy T*S    EENTRO =        -0.00000000
  eigenvalues    EBANDS =      -896.07873390
  atomic energy  EATOM  =      2432.72555871
  ---------------------------------------------------
  free energy    TOTEN  =      -162.51151647 eV

  energy without entropy =     -162.51151647  energy(sigma->0) =     -162.51151647
  exchange ACFDT corr.  =         0.00000000  see jH, gK, PRB 81, 115126


--------------------------------------------------------------------------------------------------------




--------------------------------------- Iteration      1(   2)  ---------------------------------------


    --------------------------------------------
      INIT:  cpu time      0.3917: real time      0.3917
  FINALIZE:  cpu time     98.4557: real time     98.4637
    --------------------------------------------
    POTLOK:  cpu time    112.4954: real time    112.5046
    SETDIJ:  cpu time      0.0727: real time      0.0727
    TRIAL :  cpu time    246.9134: real time    246.9331
    CORREC:  cpu time      0.3791: real time      0.3792
    CHARGE:  cpu time      3.1792: real time      3.1794
    --------------------------------------------
      LOOP:  cpu time    363.1178: real time    363.1536

 eigenvalue-minimisations  :     0
 total energy-change (2. order) : 0.2334681E+00  (-0.1047788E-01)
 number of electron      61.9999992 magnetization       0.0000000
 augmentation part        2.4112269 magnetization       0.0000003

 Free energy of the ion-electron system (eV)
  ---------------------------------------------------
  alpha Z        PSCENC =         0.26742016
  Ewald energy   TEWEN  =      7104.06878402
  -Hartree energ DENC   =     -9114.98525400
  -exchange      EXHF   =       146.98303025
  -V(xc)+E(xc)   XCENC  =       170.27369846
  PAW double counting   =      5583.90231249    -5590.84339576
  entropy T*S    EENTRO =        -0.00000000
  eigenvalues    EBANDS =      -900.62435392
  atomic energy  EATOM  =      2432.72555871
  ---------------------------------------------------
  free energy    TOTEN  =      -162.27804836 eV

  energy without entropy =     -162.27804836  energy(sigma->0) =     -162.27804836
  exchange ACFDT corr.  =         0.00000000  see jH, gK, PRB 81, 115126


--------------------------------------------------------------------------------------------------------




--------------------------------------- Iteration      1(   3)  ---------------------------------------


    --------------------------------------------
      INIT:  cpu time      0.3924: real time      0.3924
  FINALIZE:  cpu time     50.6023: real time     50.6068
    --------------------------------------------
    POTLOK:  cpu time     65.8082: real time     65.8139
    SETDIJ:  cpu time      0.0753: real time      0.0753
    TRIAL :  cpu time    245.6103: real time    245.6444
    CORREC:  cpu time      0.0052: real time      0.0052
    CHARGE:  cpu time      3.1901: real time      3.1903
    --------------------------------------------
      LOOP:  cpu time    314.7259: real time    314.7710

 eigenvalue-minimisations  :     0
 total energy-change (2. order) :-0.6718354E-02  (-0.3568641E-02)
 number of electron      61.9999992 magnetization       0.0000000
 augmentation part        2.4106073 magnetization       0.0000001

 Free energy of the ion-electron system (eV)
  ---------------------------------------------------
  alpha Z        PSCENC =         0.26742016
  Ewald energy   TEWEN  =      7104.06878402
  -Hartree energ DENC   =     -9117.44477553
  -exchange      EXHF   =       147.01414805
  -V(xc)+E(xc)   XCENC  =       170.30387017
  PAW double counting   =      5586.28194406    -5593.22516006
  entropy T*S    EENTRO =        -0.00000000
  eigenvalues    EBANDS =      -898.47933914
  atomic energy  EATOM  =      2432.72555871
  ---------------------------------------------------
  free energy    TOTEN  =      -162.28476671 eV

  energy without entropy =     -162.28476671  energy(sigma->0) =     -162.28476671
  exchange ACFDT corr.  =         0.00000000  see jH, gK, PRB 81, 115126


--------------------------------------------------------------------------------------------------------




--------------------------------------- Iteration      1(   4)  ---------------------------------------


    --------------------------------------------
      INIT:  cpu time      0.3842: real time      0.3842
  FINALIZE:  cpu time     54.5071: real time     54.5121
    --------------------------------------------
    POTLOK:  cpu time     68.7470: real time     68.7533
    SETDIJ:  cpu time      0.0786: real time      0.0786
    TRIAL :  cpu time    245.3544: real time    245.3816
    CORREC:  cpu time      0.3692: real time      0.3692
    CHARGE:  cpu time      3.5562: real time      3.5565
    --------------------------------------------
      LOOP:  cpu time    318.1421: real time    318.1827

 eigenvalue-minimisations  :     0
 total energy-change (2. order) :-0.1887745E-02  (-0.9345757E-03)
 number of electron      61.9999992 magnetization       0.0000000
 augmentation part        2.4103602 magnetization       0.0000000

 Free energy of the ion-electron system (eV)
  ---------------------------------------------------
  alpha Z        PSCENC =         0.26742016
  Ewald energy   TEWEN  =      7104.06878402
  -Hartree energ DENC   =     -9117.92891225
  -exchange      EXHF   =       147.00502036
  -V(xc)+E(xc)   XCENC  =       170.29476241
  PAW double counting   =      5588.03315296    -5594.97395462
  entropy T*S    EENTRO =        -0.00000000
  eigenvalues    EBANDS =      -898.17834621
  atomic energy  EATOM  =      2432.72555871
  ---------------------------------------------------
  free energy    TOTEN  =      -162.28665446 eV

  energy without entropy =     -162.28665446  energy(sigma->0) =     -162.28665446
  exchange ACFDT corr.  =         0.00000000  see jH, gK, PRB 81, 115126


--------------------------------------------------------------------------------------------------------




--------------------------------------- Iteration      1(   5)  ---------------------------------------


    --------------------------------------------
      INIT:  cpu time      0.3926: real time      0.3926
  FINALIZE:  cpu time     46.4405: real time     46.4445
    --------------------------------------------
    POTLOK:  cpu time     63.4240: real time     63.4294
    SETDIJ:  cpu time      0.0742: real time      0.0742
    TRIAL :  cpu time    247.7722: real time    247.7928
    CORREC:  cpu time      0.0009: real time      0.0009
    CHARGE:  cpu time      3.1775: real time      3.1778
    --------------------------------------------
      LOOP:  cpu time    314.4850: real time    314.5208

 eigenvalue-minimisations  :     0
 total energy-change (2. order) :-0.4331544E-03  (-0.2837356E-03)
 number of electron      61.9999992 magnetization       0.0000000
 augmentation part        2.4105399 magnetization       0.0000000

 Free energy of the ion-electron system (eV)
  ---------------------------------------------------
  alpha Z        PSCENC =         0.26742016
  Ewald energy   TEWEN  =      7104.06878402
  -Hartree energ DENC   =     -9117.64193769
  -exchange      EXHF   =       146.99520499
  -V(xc)+E(xc)   XCENC  =       170.28397598
  PAW double counting   =      5588.43132387    -5595.37051669
  entropy T*S    EENTRO =        -0.00000000
  eigenvalues    EBANDS =      -898.49891200
  atomic energy  EATOM  =      2432.72555871
  ---------------------------------------------------
  free energy    TOTEN  =      -162.28708761 eV

  energy without entropy =     -162.28708761  energy(sigma->0) =     -162.28708761
  exchange ACFDT corr.  =         0.00000000  see jH, gK, PRB 81, 115126


--------------------------------------------------------------------------------------------------------




--------------------------------------- Iteration      1(   6)  ---------------------------------------


    --------------------------------------------
      INIT:  cpu time      0.5722: real time      0.5723
  FINALIZE:  cpu time     51.2095: real time     51.2143
    --------------------------------------------
    POTLOK:  cpu time     65.4377: real time     65.4438
    SETDIJ:  cpu time      0.0716: real time      0.0716
    TRIAL :  cpu time    244.9246: real time    244.9495
    CORREC:  cpu time      0.2049: real time      0.2050
    CHARGE:  cpu time      3.1701: real time      3.1704
    --------------------------------------------
      LOOP:  cpu time    313.8435: real time    313.8808

 eigenvalue-minimisations  :     0
 total energy-change (2. order) :-0.1315960E-03  (-0.1291379E-03)
 number of electron      61.9999992 magnetization       0.0000000
 augmentation part        2.4107140 magnetization       0.0000001

 Free energy of the ion-electron system (eV)
  ---------------------------------------------------
  alpha Z        PSCENC =         0.26742016
  Ewald energy   TEWEN  =      7104.06878402
  -Hartree energ DENC   =     -9117.57151961
  -exchange      EXHF   =       146.99661714
  -V(xc)+E(xc)   XCENC  =       170.28460360
  PAW double counting   =      5588.42591590    -5595.36580686
  entropy T*S    EENTRO =        -0.00000000
  eigenvalues    EBANDS =      -898.56490942
  atomic energy  EATOM  =      2432.72555871
  ---------------------------------------------------
  free energy    TOTEN  =      -162.28721921 eV

  energy without entropy =     -162.28721921  energy(sigma->0) =     -162.28721921
  exchange ACFDT corr.  =         0.00000000  see jH, gK, PRB 81, 115126


--------------------------------------------------------------------------------------------------------




--------------------------------------- Iteration      1(   7)  ---------------------------------------


    --------------------------------------------
      INIT:  cpu time      0.7605: real time      0.7606
  FINALIZE:  cpu time     54.6984: real time     54.7031
    --------------------------------------------
    POTLOK:  cpu time     69.1699: real time     69.1758
    SETDIJ:  cpu time      0.0726: real time      0.0726
    TRIAL :  cpu time    246.1203: real time    246.1501
    CORREC:  cpu time      0.1702: real time      0.1702
    CHARGE:  cpu time      3.5399: real time      3.5402
    --------------------------------------------
      LOOP:  cpu time    319.1202: real time    319.1626

 eigenvalue-minimisations  :     0
 total energy-change (2. order) :-0.7047313E-04  (-0.6317631E-04)
 number of electron      61.9999992 magnetization       0.0000000
 augmentation part        2.4107634 magnetization       0.0000000

 Free energy of the ion-electron system (eV)
  ---------------------------------------------------
  alpha Z        PSCENC =         0.26742016
  Ewald energy   TEWEN  =      7104.06878402
  -Hartree energ DENC   =     -9117.65900511
  -exchange      EXHF   =       147.00026949
  -V(xc)+E(xc)   XCENC  =       170.28817570
  PAW double counting   =      5588.27668059    -5595.21758319
  entropy T*S    EENTRO =        -0.00000000
  eigenvalues    EBANDS =      -898.47612680
  atomic energy  EATOM  =      2432.72555871
  ---------------------------------------------------
  free energy    TOTEN  =      -162.28728968 eV

  energy without entropy =     -162.28728968  energy(sigma->0) =     -162.28728968
  exchange ACFDT corr.  =         0.00000000  see jH, gK, PRB 81, 115126


--------------------------------------------------------------------------------------------------------




--------------------------------------- Iteration      1(   8)  ---------------------------------------


    --------------------------------------------
      INIT:  cpu time      0.3862: real time      0.3862
  FINALIZE:  cpu time     45.7722: real time     45.7760
    --------------------------------------------
    POTLOK:  cpu time     61.3692: real time     61.3747
    SETDIJ:  cpu time      0.0738: real time      0.0739
    TRIAL :  cpu time    243.7641: real time    243.7847
    CORREC:  cpu time      0.5596: real time      0.5596
    CHARGE:  cpu time      3.1783: real time      3.1786
    --------------------------------------------
      LOOP:  cpu time    308.9782: real time    309.0095

 eigenvalue-minimisations  :     0
 total energy-change (2. order) :-0.3659617E-04  (-0.3198019E-04)
 number of electron      61.9999992 magnetization       0.0000000
 augmentation part        2.4107701 magnetization       0.0000000

 Free energy of the ion-electron system (eV)
  ---------------------------------------------------
  alpha Z        PSCENC =         0.26742016
  Ewald energy   TEWEN  =      7104.06878402
  -Hartree energ DENC   =     -9117.70569121
  -exchange      EXHF   =       147.00137491
  -V(xc)+E(xc)   XCENC  =       170.28952055
  PAW double counting   =      5588.01292757    -5594.95409766
  entropy T*S    EENTRO =        -0.00000000
  eigenvalues    EBANDS =      -898.43041450
  atomic energy  EATOM  =      2432.72555871
  ---------------------------------------------------
  free energy    TOTEN  =      -162.28732628 eV

  energy without entropy =     -162.28732628  energy(sigma->0) =     -162.28732628
  exchange ACFDT corr.  =         0.00000000  see jH, gK, PRB 81, 115126


--------------------------------------------------------------------------------------------------------




--------------------------------------- Iteration      1(   9)  ---------------------------------------


    --------------------------------------------
      INIT:  cpu time      0.3839: real time      0.3839
  FINALIZE:  cpu time     55.0156: real time     55.0205
    --------------------------------------------
    POTLOK:  cpu time     72.3496: real time     72.3559
    SETDIJ:  cpu time      0.0746: real time      0.0746
    TRIAL :  cpu time    247.4502: real time    247.4734
    CORREC:  cpu time      0.3525: real time      0.3526
    CHARGE:  cpu time      3.3769: real time      3.3772
    --------------------------------------------
      LOOP:  cpu time    323.6399: real time    323.6755

 eigenvalue-minimisations  :     0
 total energy-change (2. order) :-0.1867351E-04  (-0.1254305E-04)
 number of electron      61.9999992 magnetization       0.0000000
 augmentation part        2.4107695 magnetization      -0.0000000

 Free energy of the ion-electron system (eV)
  ---------------------------------------------------
  alpha Z        PSCENC =         0.26742016
  Ewald energy   TEWEN  =      7104.06878402
  -Hartree energ DENC   =     -9117.69092125
  -exchange      EXHF   =       147.00070035
  -V(xc)+E(xc)   XCENC  =       170.28905920
  PAW double counting   =      5587.79339860    -5594.73448327
  entropy T*S    EENTRO =        -0.00000000
  eigenvalues    EBANDS =      -898.44436684
  atomic energy  EATOM  =      2432.72555871
  ---------------------------------------------------
  free energy    TOTEN  =      -162.28734495 eV

  energy without entropy =     -162.28734495  energy(sigma->0) =     -162.28734495
  exchange ACFDT corr.  =         0.00000000  see jH, gK, PRB 81, 115126


--------------------------------------------------------------------------------------------------------




--------------------------------------- Iteration      1(  10)  ---------------------------------------


    --------------------------------------------
      INIT:  cpu time      0.5800: real time      0.5800
  FINALIZE:  cpu time     50.9885: real time     50.9923
    --------------------------------------------
    POTLOK:  cpu time     66.1617: real time     66.1668
    SETDIJ:  cpu time      0.0719: real time      0.0719
    TRIAL :  cpu time    245.6971: real time    245.7155
    CORREC:  cpu time      0.2251: real time      0.2252
    CHARGE:  cpu time      3.3606: real time      3.3608
    --------------------------------------------
      LOOP:  cpu time    315.5524: real time    315.5824

 eigenvalue-minimisations  :     0
 total energy-change (2. order) :-0.6785811E-05  (-0.4608824E-05)
 number of electron      61.9999992 magnetization       0.0000000
 augmentation part        2.4107731 magnetization      -0.0000000

 Free energy of the ion-electron system (eV)
  ---------------------------------------------------
  alpha Z        PSCENC =         0.26742016
  Ewald energy   TEWEN  =      7104.06878402
  -Hartree energ DENC   =     -9117.66873164
  -exchange      EXHF   =       147.00012885
  -V(xc)+E(xc)   XCENC  =       170.28853735
  PAW double counting   =      5587.69567969    -5594.63671236
  entropy T*S    EENTRO =        -0.00000000
  eigenvalues    EBANDS =      -898.46526500
  atomic energy  EATOM  =      2432.72555871
  ---------------------------------------------------
  free energy    TOTEN  =      -162.28735174 eV

  energy without entropy =     -162.28735174  energy(sigma->0) =     -162.28735174
  exchange ACFDT corr.  =         0.00000000  see jH, gK, PRB 81, 115126


--------------------------------------------------------------------------------------------------------


  average scaling for gradient   1.2394


 average (electrostatic) potential at core
  the test charge radii are     0.6991  0.7215  0.5201
  (the norm of the test charge is              1.0000)
       1 -55.0397       2 -55.2254       3 -56.6479       4 -56.6669       5 -55.1772
       6 -55.3074       7 -54.8769       8 -54.9188       9 -54.6162      10 -57.7819
      11 -75.4697      12 -75.4880      13 -37.5448      14 -37.5740      15 -37.5752
      16 -37.8188      17 -37.7572      18 -38.2588      19 -38.3667      20 -38.5767
      21 -38.2477      22 -37.9512
 
 
 
 E-fermi :  -5.1752     XC(G=0):  -0.0313     alpha+bet : -0.0223

 Fermi energy:        -5.1751541392

 spin component 1

 k-point     1 :       0.0000    0.0000    0.0000
  band No.  band energies     occupation 
      1     -31.1371      1.00000
      2     -28.6958      1.00000
      3     -23.9052      1.00000
      4     -22.1251      1.00000
      5     -20.9528      1.00000
      6     -20.8013      1.00000
      7     -19.1950      1.00000
      8     -18.2696      1.00000
      9     -17.2740      1.00000
     10     -16.8590      1.00000
     11     -15.2767      1.00000
     12     -14.3320      1.00000
     13     -14.3538      1.00000
     14     -14.1120      1.00000
     15     -13.4905      1.00000
     16     -12.2279      1.00000
     17     -12.1876      1.00000
     18     -11.8330      1.00000
     19     -11.1752      1.00000
     20     -11.0079      1.00000
     21     -10.8584      1.00000
     22     -10.7958      1.00000
     23     -10.7085      1.00000
     24     -10.1323      1.00000
     25      -9.9648      1.00000
     26      -9.5033      1.00000
     27      -9.3247      1.00000
     28      -9.1741      1.00000
     29      -7.4849      1.00000
     30      -6.5870      1.00000
     31      -5.4874      1.00000
     32      -1.3432      0.00000
     33      -0.5819      0.00000
     34      -0.3054      0.00000
     35      -0.0971      0.00000
     36      -0.0100      0.00000
     37       0.0325      0.00000
     38       0.0879      0.00000
     39       0.1109      0.00000
     40       0.1161      0.00000
     41       0.1311      0.00000
     42       0.1327      0.00000
     43       0.1585      0.00000
     44       0.1472      0.00000
     45       0.1929      0.00000
     46       0.2108      0.00000
     47       0.2043      0.00000
     48       0.2108      0.00000
     49       0.1988      0.00000
     50       0.2090      0.00000
     51       0.2109      0.00000
     52       0.2090      0.00000
     53       0.2491      0.00000
     54       0.2629      0.00000
 Fermi energy:        -5.1751541392

 spin component 2

 k-point     1 :       0.0000    0.0000    0.0000
  band No.  band energies     occupation 
      1     -31.1371      1.00000
      2     -28.6958      1.00000
      3     -23.9052      1.00000
      4     -22.1251      1.00000
      5     -20.9528      1.00000
      6     -20.8013      1.00000
      7     -19.1950      1.00000
      8     -18.2696      1.00000
      9     -17.2740      1.00000
     10     -16.8590      1.00000
     11     -15.2767      1.00000
     12     -14.3320      1.00000
     13     -14.3538      1.00000
     14     -14.1120      1.00000
     15     -13.4905      1.00000
     16     -12.2279      1.00000
     17     -12.1876      1.00000
     18     -11.8330      1.00000
     19     -11.1752      1.00000
     20     -11.0079      1.00000
     21     -10.8584      1.00000
     22     -10.7958      1.00000
     23     -10.7085      1.00000
     24     -10.1323      1.00000
     25      -9.9648      1.00000
     26      -9.5033      1.00000
     27      -9.3247      1.00000
     28      -9.1741      1.00000
     29      -7.4849      1.00000
     30      -6.5870      1.00000
     31      -5.4874      1.00000
     32      -1.3432      0.00000
     33      -0.5819      0.00000
     34      -0.3054      0.00000
     35      -0.0971      0.00000
     36      -0.0100      0.00000
     37       0.0325      0.00000
     38       0.0879      0.00000
     39       0.1109      0.00000
     40       0.1161      0.00000
     41       0.1311      0.00000
     42       0.1327      0.00000
     43       0.1472      0.00000
     44       0.1585      0.00000
     45       0.1931      0.00000
     46       0.2086      0.00000
     47       0.2043      0.00000
     48       0.2094      0.00000
     49       0.1988      0.00000
     50       0.2108      0.00000
     51       0.2108      0.00000
     52       0.2109      0.00000
     53       0.2634      0.00000
     54       0.2477      0.00000


--------------------------------------------------------------------------------------------------------


 soft charge-density along one line, spin component           1
         0         1         2         3         4         5         6         7         8         9
 total charge-density along one line
 
 soft charge-density along one line, spin component           2
         0         1         2         3         4         5         6         7         8         9
 total charge-density along one line
 
 pseudopotential strength for first ion, spin component:           1
  9.986  13.278   0.000  -0.000  -0.001  -0.001   0.000   0.004
 13.278  17.654   0.000  -0.000  -0.002  -0.002   0.001   0.005
  0.000   0.000  -4.206  -0.000  -0.000   8.202   0.000   0.001
 -0.000  -0.000  -0.000  -4.205  -0.000   0.000   8.202   0.000
 -0.001  -0.002  -0.000  -0.000  -4.207   0.001   0.000   8.203
 -0.001  -0.002   8.202   0.000   0.001 -18.108  -0.000  -0.001
  0.000   0.001   0.000   8.202   0.000  -0.000 -18.115  -0.000
  0.004   0.005   0.001   0.000   8.203  -0.001  -0.000 -18.111
 pseudopotential strength for first ion, spin component:           2
  9.986  13.278   0.000  -0.000  -0.001  -0.001   0.000   0.004
 13.278  17.654   0.000  -0.000  -0.002  -0.002   0.001   0.005
  0.000   0.000  -4.206  -0.000  -0.000   8.202   0.000   0.001
 -0.000  -0.000  -0.000  -4.205  -0.000   0.000   8.202   0.000
 -0.001  -0.002  -0.000  -0.000  -4.207   0.001   0.000   8.203
 -0.001  -0.002   8.202   0.000   0.001 -18.108  -0.000  -0.001
  0.000   0.001   0.000   8.202   0.000  -0.000 -18.115  -0.000
  0.004   0.005   0.001   0.000   8.203  -0.001  -0.000 -18.111
 total augmentation occupancy for first ion, spin component:           1
  8.685  -3.909   0.170  -0.005  -0.111   0.035  -0.001  -0.024
 -3.909   1.793  -0.108   0.005   0.082  -0.021   0.001   0.015
  0.170  -0.108   1.779  -0.006   0.048   0.166  -0.001   0.010
 -0.005   0.005  -0.006   1.180   0.011  -0.001   0.074   0.002
 -0.111   0.082   0.048   0.011   1.817   0.010   0.002   0.175
  0.035  -0.021   0.166  -0.001   0.010   0.016  -0.000   0.002
 -0.001   0.001  -0.001   0.074   0.002  -0.000   0.005   0.000
 -0.024   0.015   0.010   0.002   0.175   0.002   0.000   0.018
 total augmentation occupancy for first ion, spin component:           2
 -0.000   0.000  -0.000   0.000   0.000  -0.000   0.000   0.000
  0.000  -0.000   0.000  -0.000  -0.000   0.000  -0.000  -0.000
 -0.000   0.000   0.000   0.000  -0.000   0.000  -0.000   0.000
  0.000  -0.000   0.000   0.000  -0.000   0.000  -0.000   0.000
  0.000  -0.000  -0.000  -0.000   0.000  -0.000   0.000  -0.000
 -0.000   0.000   0.000   0.000  -0.000   0.000   0.000  -0.000
  0.000  -0.000  -0.000  -0.000   0.000   0.000  -0.000   0.000
  0.000  -0.000   0.000   0.000  -0.000  -0.000   0.000  -0.000


------------------------ aborting loop because EDIFF is reached ----------------------------------------


    FORLOC:  cpu time      0.3431: real time      0.3431
    FORHF :  cpu time    108.9007: real time    108.9100
    FORNL :  cpu time      4.8671: real time      4.8675
    STRESS:  cpu time     14.4897: real time     14.4910
    FORCOR:  cpu time     12.5040: real time     12.5051
    OFIELD:  cpu time      0.0203: real time      0.0203
 WARNING: Using user supplied parameters
     VDW_A1 = 0.383
     VDW_A2 = 5.685
     VDW_S8 = 2.31
     because the xc functional is not supported. Required parameters not
     defined in the INCAR file will be replaced with PBE defaults ones.


 ---------------------------------------------------------------------------------------------

         DFTD3 V3.0 Rev 1        
 IVDW         = 12
 DF unknown   
 parameters
 VDW_S6       =    1.0000
 VDW_S8       =    2.3100
 VDW_A1       =    0.3830
 VDW_A2       =    5.6850
 k1-k3        =   16.0000    1.3333   -4.0000
 VDW_RADIUS   =   50.2022 A
 VDW_CNRADIUS =   21.1671 A
 Edisp (eV)   -0.41427

 E6    (eV) :    -0.2132
 E8    (eV) :    -0.2011
 % E8        : 48.54
    FORVDW:  cpu time      0.0097: real time      0.0097

  FORCE on cell =-STRESS in cart. coord.  units (eV):
  Direction    XX          YY          ZZ          XY          YZ          ZX
  --------------------------------------------------------------------------------------
  Alpha Z     0.26742     0.26742     0.26742
  Ewald    4939.20021  2586.17082  -421.30289  -104.03666   -66.81701   156.27509
  Hartree  5055.88995  3006.59680  1048.97748   -68.40128   -44.51819   114.21212
  E(xc)    -180.94146  -181.36901  -183.67578    -0.11121    -0.04785     0.08284
  Local  -10599.91396 -6203.97121 -1355.35551   161.76710   108.79056  -266.30979
  n-local   -92.59478   -96.90308   -97.54513    -0.97696    -0.23428     0.56207
  augment     8.26041     9.34011    12.39058     0.80439     0.12699    -0.25989
  Kinetic   935.69389   945.82657  1063.23793    10.99087     2.76486    -4.70740
  Fock      -71.62882   -72.09672   -68.07212    -0.26069     0.02755     0.00160
  vdW        -0.19327    -0.04820    -0.00321    -0.02091     0.00070    -0.00366
  -------------------------------------------------------------------------------------
  Total      -5.96041    -6.18650    -1.08123    -0.24533     0.09332    -0.14701
  in kB      -0.14921    -0.15487    -0.02707    -0.00614     0.00234    -0.00368
  external pressure =       -0.11 kB  Pullay stress =        0.00 kB


 VOLUME and BASIS-vectors are now :
 -----------------------------------------------------------------------------
  energy-cutoff  :      500.00
  volume of cell :    64000.00
      direct lattice vectors                 reciprocal lattice vectors
    40.000000000  0.000000000  0.000000000     0.025000000  0.000000000  0.000000000
     0.000000000 40.000000000  0.000000000     0.000000000  0.025000000  0.000000000
     0.000000000  0.000000000 40.000000000     0.000000000  0.000000000  0.025000000

  length of vectors
    40.000000000 40.000000000 40.000000000     0.025000000  0.025000000  0.025000000


 FORCES acting on ions:
    Electron-Ion                     Ewald-Force                    Non-Local-Force
 -----------------------------------------------------------------------------------------------
   -.783E+02 0.206E+03 -.481E+01   0.795E+02 -.207E+03 0.493E+01   -.116E+01 0.621E+00 -.117E+00
   0.537E+02 0.241E+03 -.239E+01   -.530E+02 -.243E+03 0.242E+01   -.666E+00 0.253E+01 -.327E-01
   0.331E+02 0.129E+03 0.246E+01   -.263E+02 -.130E+03 -.243E+01   -.648E+01 0.180E+01 0.178E-02
   -.573E+02 -.771E+02 0.253E+01   0.628E+02 0.727E+02 -.248E+01   -.528E+01 0.426E+01 -.152E-01
   -.954E+02 -.162E+03 -.136E+01   0.977E+02 0.163E+03 0.138E+01   -.231E+01 -.933E+00 -.251E-01
   -.954E+02 0.250E+02 -.334E+01   0.957E+02 -.254E+02 0.342E+01   -.582E+00 0.337E+00 -.835E-01
   -.108E+03 0.897E+02 -.513E+01   0.109E+03 -.897E+02 0.516E+01   -.679E+00 0.251E+00 -.282E-01
   -.960E+02 -.108E+03 0.151E+01   0.959E+02 0.108E+03 -.154E+01   -.128E+00 -.168E+00 0.232E-01
   -.172E+03 -.239E+02 -.266E+01   0.173E+03 0.235E+02 0.268E+01   -.528E+00 0.399E+00 -.200E-01
   0.267E+03 -.127E+03 0.505E+02   -.273E+03 0.131E+03 -.526E+02   0.680E+01 -.346E+01 0.214E+01
   0.638E+02 -.413E+03 -.285E+02   -.598E+02 0.460E+03 0.350E+02   -.354E+01 -.412E+02 -.574E+01
   0.370E+03 0.223E+03 -.273E+02   -.405E+03 -.253E+03 0.335E+02   0.313E+02 0.272E+02 -.553E+01
   -.528E+02 0.542E+02 -.260E+01   0.546E+02 -.593E+02 0.279E+01   -.185E+01 0.505E+01 -.182E+00
   -.500E+02 -.311E+02 0.504E+02   0.521E+02 0.334E+02 -.546E+02   -.214E+01 -.234E+01 0.426E+01
   -.480E+02 -.340E+02 -.504E+02   0.500E+02 0.365E+02 0.546E+02   -.197E+01 -.258E+01 -.420E+01
   -.147E+01 -.764E+02 0.248E+01   -.728E+00 0.814E+02 -.268E+01   0.220E+01 -.504E+01 0.204E+00
   -.483E+02 0.715E+02 -.310E+01   0.507E+02 -.764E+02 0.329E+01   -.243E+01 0.492E+01 -.187E+00
   -.324E+02 -.841E+02 -.829E+00   0.347E+02 0.892E+02 0.882E+00   -.236E+01 -.512E+01 -.536E-01
   0.558E+02 -.268E+02 0.786E+02   -.574E+02 0.277E+02 -.840E+02   0.163E+01 -.836E+00 0.536E+01
   0.818E+02 -.400E+02 -.437E+02   -.858E+02 0.420E+02 0.475E+02   0.398E+01 -.201E+01 -.374E+01
   0.339E+02 0.896E+02 -.811E+00   -.364E+02 -.947E+02 0.849E+00   0.253E+01 0.507E+01 -.352E-01
   -.397E+02 0.841E+02 -.180E+01   0.428E+02 -.887E+02 0.191E+01   -.310E+01 0.467E+01 -.110E+00
 -----------------------------------------------------------------------------------------------
   -.165E+02 0.826E+01 0.962E+01   0.782E-13 -.284E-12 0.202E-13   0.132E+02 -.660E+01 -.811E+01
 
 
 POSITION                                       TOTAL-FORCE (eV/Angst)
 -----------------------------------------------------------------------------------
     19.75092     18.28568     20.05614        -0.008312      0.217391     -0.008567
     18.34982     18.16246     20.02701         0.033186      0.275897     -0.008290
     17.62423     19.33786     19.99082        -0.026084      0.101918      0.038209
     18.25799     20.58494     19.99205        -0.124772     -0.034348      0.036028
     19.62815     20.71932     20.02659        -0.124130     -0.189460     -0.007663
     20.40691     19.53102     20.05540        -0.353303     -0.037859     -0.013754
     21.87209     19.55659     20.08253         0.355096      0.249995     -0.002020
     22.67738     20.63564     20.06491        -0.308440     -0.270603      0.001391
     24.17087     20.58092     20.09585         0.063318     -0.015218      0.002024
     16.04993     20.91932     19.77707         0.271334     -0.148673      0.058900
     17.30759     21.58759     20.00792        -0.122185     -0.741217     -0.099662
     16.25489     19.50772     20.00395         0.520896      0.549872     -0.094732
     24.53931     19.54672     20.13296        -0.098790      0.224733     -0.008065
     24.60701     21.06946     19.20937        -0.120410     -0.114653      0.187163
     24.57242     21.11998     20.96929        -0.113092     -0.124688     -0.183842
     22.23864     21.63810     20.02466         0.088827     -0.238730      0.007765
     22.34633     18.56879     20.11973        -0.117831      0.238569     -0.008257
     20.08752     21.70680     20.03677        -0.113601     -0.236544     -0.002806
     15.73828     21.07850     18.72951         0.108952     -0.058600      0.283992
     15.30199     21.29679     20.48580         0.212706     -0.111276     -0.174473
     17.86232     17.18843     20.03402         0.115571      0.238622      0.001139
     20.35544     17.37732     20.07759        -0.138938      0.224872     -0.004480
 -----------------------------------------------------------------------------------
    total drift:                                0.008193     -0.001938     -0.003002


--------------------------------------------------------------------------------------------------------



  FREE ENERGIE OF THE ION-ELECTRON SYSTEM (eV)
  ---------------------------------------------------
  free  energy   TOTEN  =      -162.70162478 eV

  energy  without entropy=     -162.70162478  energy(sigma->0) =     -162.70162478
 


--------------------------------------------------------------------------------------------------------


    --------------------------------------------
      INIT:  cpu time      0.3871: real time      0.3871
  FINALIZE:  cpu time     61.2598: real time     61.2654
    --------------------------------------------
    POTLOK:  cpu time     74.9550: real time     74.9618


--------------------------------------------------------------------------------------------------------


 writing wavefunctions
     LOOP+:  cpu time   3412.1812: real time   3415.0843
    4ORBIT:  cpu time      0.0000: real time      0.0000

 total amount of memory used by VASP MPI-rank0  3047776. kBytes
=======================================================================

   base      :      30000. kBytes
   nonlr-proj:       3510. kBytes
   fftplans  :     224335. kBytes
   grid      :     421299. kBytes
   one-center:         18. kBytes
   HF        :         13. kBytes
   wavefun   :      93600. kBytes
   fock_wrk  :    2275001. kBytes
 
  
  
 General timing and accounting informations for this job:
 ========================================================
  
                  Total CPU time used (sec):     3469.892
                            User time (sec):     2311.792
                          System time (sec):     1158.100
                         Elapsed time (sec):     3474.060
  
                   Maximum memory used (kb):     4635000.
                   Average memory used (kb):          N/A
  
                          Minor page faults:     34416687
                          Major page faults:            0
                 Voluntary context switches:        11713
