
                                 *****************
                                 * O   R   C   A *
                                 *****************

                                            #,                                       
                                            ###                                      
                                            ####                                     
                                            #####                                    
                                            ######                                   
                                           ########,                                 
                                     ,,################,,,,,                         
                               ,,#################################,,                 
                          ,,##########################################,,             
                       ,#########################################, ''#####,          
                    ,#############################################,,   '####,        
                  ,##################################################,,,,####,       
                ,###########''''           ''''###############################       
              ,#####''   ,,,,##########,,,,          '''####'''          '####       
            ,##' ,,,,###########################,,,                        '##       
           ' ,,###''''                  '''############,,,                           
         ,,##''                                '''############,,,,        ,,,,,,###''
      ,#''                                            '''#######################'''  
     '                                                          ''''####''''         
             ,#######,   #######,   ,#######,      ##                                
            ,#'     '#,  ##    ##  ,#'     '#,    #''#        ,####,   ,####,        
            ##       ##  ##   ,#'  ##            #'  '#       #'       #'  '#        
            ##       ##  #######   ##           ,######,      #####,   #    #        
            '#,     ,#'  ##    ##  '#,     ,#' ,#      #,     #,   #   #,  ,#        
             '#######'   ##     ##  '#######'  #'      '#     '####' # '####'        



                #########################################################
                #                        -***-                          #
                #          Department of theory and spectroscopy        #
                #                                                       #
                #                      Frank Neese                      #
                #                                                       #
                #     Directorship, Architecture, Infrastructure        #
                #                    SHARK, DRIVERS                     #
                #        Core code/Algorithms in most modules           #
                #                                                       #
                #        Max Planck Institute fuer Kohlenforschung      #
                #                Kaiser Wilhelm Platz 1                 #
                #                 D-45470 Muelheim/Ruhr                 #
                #                      Germany                          #
                #                                                       #
                #                  All rights reserved                  #
                #                        -***-                          #
                #########################################################


                         Program Version 6.0.0  -   RELEASE  -


 With contributions from (in alphabetic order):
   Daniel Aravena         : Magnetic Suceptibility
   Michael Atanasov       : Ab Initio Ligand Field Theory (pilot matlab implementation)
   Alexander A. Auer      : GIAO ZORA, VPT2 properties, NMR spectrum
   Ute Becker             : All parallelization in ORCA, NUMFREQ, NUMCALC
   Giovanni Bistoni       : ED, misc. LED, open-shell LED, HFLD
   Martin Brehm           : Molecular dynamics
   Dmytro Bykov           : pre 5.0 version of the SCF Hessian
   Marcos Casanova-Páez   : Triplet and SCS-CIS(D). UHF-(DLPNO)-IP/EA/STEOM-CCSD. UHF-CVS-IP/STEOM-CCSD
   Vijay G. Chilkuri      : MRCI spin determinant printing, contributions to CSF-ICE
   Pauline Colinet        : FMM embedding
   Dipayan Datta          : RHF DLPNO-CCSD density
   Achintya Kumar Dutta   : EOM-CC, STEOM-CC
   Nicolas Foglia         : Exact transition moments, OPA infrastructure, MCD improvements
   Dmitry Ganyushin       : Spin-Orbit,Spin-Spin,Magnetic field MRCI
   Miquel Garcia          : C-PCM and meta-GGA Hessian, CCSD/C-PCM, Gaussian charge scheme
   Tiago L. C. Gouveia    : GS-ROHF, GS-ROCIS
   Yang Guo               : DLPNO-NEVPT2, F12-NEVPT2, CIM, IAO-localization
   Andreas Hansen         : Spin unrestricted coupled pair/coupled cluster methods
   Ingolf Harden          : AUTO-CI MPn and infrastructure 
   Benjamin Helmich-Paris : MC-RPA, TRAH-(SCF,CASSCF), AVAS, COSX integrals, SCF dyn. polar.
   Lee Huntington         : MR-EOM, pCC
   Robert Izsak           : Overlap fitted RIJCOSX, COSX-SCS-MP3, EOM
   Riya Kayal             : Wick's Theorem for AUTO-CI, AUTO-CI UHF-CCSDT
   Emily Kempfer          : AUTO-CI, RHF CISDT and CCSDT
   Christian Kollmar      : KDIIS, OOCD, Brueckner-CCSD(T), CCSD density, CASPT2, CASPT2-K, improved NEVPT2
   Axel Koslowski         : Symmetry handling
   Simone Kossmann        : Meta GGA functionals, TD-DFT gradient, OOMP2, (MP2 Hessian; deprecated post 5.0)
   Lucas Lang             : DCDCAS
   Marvin Lechner         : AUTO-CI (C++ implementation), FIC-MRCC
   Spencer Leger          : CASSCF response
   Dagmar Lenk            : GEPOL surface, SMD, ORCA-2-JSON
   Dimitrios Liakos       : Extrapolation schemes; Compound Job, initial MDCI parallelization
   Dimitrios Manganas     : Further ROCIS development; embedding schemes. LFT, Crystal Embedding
   Dimitrios Pantazis     : SARC Basis sets
   Anastasios Papadopoulos: AUTO-CI, single reference methods and gradients
   Taras Petrenko         : pre 6.0 DFT Hessian and TD-DFT gradient, (ASA, deprecated), ECA, 1-Electron XAS/XES, NRVS
   Peter Pinski           : DLPNO-MP2, DLPNO-MP2 Gradient
   Christoph Reimann      : Effective Core Potentials
   Marius Retegan         : Local ZFS, SOC
   Christoph Riplinger    : Optimizer, TS searches, QM/MM, DLPNO-CCSD(T), (RO)-DLPNO pert. Triples
   Michael Roemelt        : Original ROCIS implementation
   Masaaki Saitow         : Open-shell DLPNO-CCSD energy and density
   Barbara Sandhoefer     : DKH picture change effects
   Kantharuban Sivalingam : CASSCF convergence/infrastructure, NEVPT2 and variants, FIC-MRCI
   Bernardo de Souza      : ESD, SOC TD-DFT
   Georgi Stoychev        : AutoAux, RI-MP2 NMR, DLPNO-MP2 response, X2C
   Van Anh Tran           : RI-MP2 g-tensors
   Willem Van den Heuvel  : Paramagnetic NMR
   Zikuan Wang            : NOTCH, Electric field optimization 
   Frank Wennmohs         : Technical directorship and infrastructure
   Hang Xu                : AUTO-CI-Response properties 


 We gratefully acknowledge several colleagues who have allowed us to
 interface, adapt or use parts of their codes:
   Stefan Grimme, W. Hujo, H. Kruse, P. Pracht,  : VdW corrections, initial TS optimization,
                  C. Bannwarth, S. Ehlert,         DFT functionals, gCP, sTDA/sTD-DF
                  L. Wittmann, M. Mueller
   Ed Valeev, F. Pavosevic, A. Kumar             : LibInt (2-el integral package), F12 methods
   Garnet Chan, S. Sharma, J. Yang, R. Olivares  : DMRG
   Ulf Ekstrom                                   : XCFun DFT Library
   Mihaly Kallay                                 : mrcc  (arbitrary order and MRCC methods)
   Frank Weinhold                                : gennbo (NPA and NBO analysis)
   Simon Mueller                                 : openCOSMO-RS
   Christopher J. Cramer and Donald G. Truhlar   : smd solvation model
   Lars Goerigk                                  : TD-DFT with DH, B97 family of functionals
   V. Asgeirsson, H. Jonsson                     : NEB implementation
   FAccTs GmbH                                   : IRC, NEB, NEB-TS, DLPNO-Multilevel, CI-OPT
                                                   MM, QMMM, 2- and 3-layer-ONIOM, Crystal-QMMM,
                                                   LR-CPCM, SF, NACMEs, symmetry and pop. for TD-DFT,
                                                   nearIR, NL-DFT gradient (VV10), updates on ESD,
                                                   ML-optimized integration grids, MBIS, APM,
                                                   GOAT, DOCKER, SOLVATOR, interface openCOSMO-RS
   S Lehtola, MJT Oliveira, MAL Marques          : LibXC Library
   Liviu Ungur et al                             : ANISO software


 Your calculation uses the libint2 library for the computation of 2-el integrals
 For citations please refer to: http://libint.valeyev.net

 Your ORCA version has been built with support for libXC version: 6.2.2
 For citations please refer to: https://libxc.gitlab.io

 This ORCA versions uses:
   CBLAS   interface :  Fast vector & matrix operations
   LAPACKE interface :  Fast linear algebra routines
   SCALAPACK package :  Parallel linear algebra routines
   Shared memory     :  Shared parallel matrices
   BLAS/LAPACK       :  OpenBLAS 0.3.27  USE64BITINT DYNAMIC_ARCH NO_AFFINITY Sandybridge SINGLE_THREADED
        Core in use  :  Sandybridge
   Copyright (c) 2011-2014, The OpenBLAS Project


NOTE: MaxCore=3000 MB was set to SCF,MP2,MDCI,CIPSI,MRCI and CIS
      => If you want to overwrite this, your respective input block should be placed after the MaxCore statement
Your calculation utilizes the atom-pairwise dispersion correction
with the Becke-Johnson damping scheme (D3BJ)


Your calculation utilizes the SMD solvation module
Please cite in your paper:
A.V. Marenich, C.J. Cramer, D.G. Truhlar J. Phys. Chem. B, 113, (2009), 6378 

Warning: RI is on but no J-basis has been assigned. Assigning Def2/J (nothing to worry about!)
================================================================================

----- Orbital basis set information -----
Your calculation utilizes the basis: aug-cc-pVTZ 
    H, B-Ne : Obtained from the ccRepo (grant-hill.group.shef.ac.uk/ccrepo) Feb. 2017
              R. A. Kendall, T. H. Dunning, Jr., R. J. Harrison, J. Chem. Phys. 96, 6796 (1992)
         He : Obtained from the ccRepo (grant-hill.group.shef.ac.uk/ccrepo) Feb. 2017
              D. E. Woon, T. H. Dunning, Jr., J. Chem. Phys. 100, 2975 (1994)
  Li-Be, Na : Obtained from the ccRepo (grant-hill.group.shef.ac.uk/ccrepo) Feb. 2017
              B. P. Prascher, D. E. Woon, K. A. Peterson, T. H. Dunning, Jr., A. K. Wilson, Theor. Chem. Acc. 128, 69 (2011)
         Mg : Obtained from the Peterson Research Group Website (tyr0.chem.wsu.edu/~kipeters) Feb. 2017
              B. P. Prascher, D. E. Woon, K. A. Peterson, T. H. Dunning, Jr., A. K. Wilson, Theor. Chem. Acc. 128, 69 (2011)
      Al-Ar : Obtained from the ccRepo (grant-hill.group.shef.ac.uk/ccrepo) Feb. 2017
              D. E. Woon, T. H. Dunning, Jr., J. Chem. Phys. 98, 1358 (1993)
      Sc-Zn : Obtained from the ccRepo (grant-hill.group.shef.ac.uk/ccrepo) Feb. 2017
              N. B. Balabanov, K. A. Peterson, J. Chem. Phys. 123, 064107 (2005)
              N. B. Balabanov, K. A. Peterson, J. Chem. Phys. 125, 074110 (2006)
      Ga-Kr : Obtained from the ccRepo (grant-hill.group.shef.ac.uk/ccrepo) Feb. 2017
              A. K. Wilson, D. E. Woon, K. A. Peterson, T. H. Dunning, Jr., J. Chem. Phys. 110, 7667 (1999)
     Ag, Au : Obtained from the Peterson Research Group Website (tyr0.chem.wsu.edu/~kipeters) Feb. 2017
              K. A. Peterson, C. Puzzarini, Theor. Chem. Acc. 114, 283 (2005)

----- AuxJ basis set information -----
Your calculation utilizes the auxiliary basis: def2/J
   F. Weigend, Phys. Chem. Chem. Phys. 8, 1057 (2006).

================================================================================
                                        WARNINGS
                       Please study these warnings very carefully!
================================================================================

Using LibXC functional ID 497 : Re-regularized SCAN exchange by Furness et al
[ 1]  J. W. Furness, A. D. Kaplan, J. Ning, J. P. Perdew, and J. Sun.,  J. Phys. Chem. Lett. 11, 8208-8215 (2020)
[ 2]  J. W. Furness, A. D. Kaplan, J. Ning, J. P. Perdew, and J. Sun.,  J. Phys. Chem. Lett. 11, 9248-9248 (2020)
Using LibXC functional ID 498 : Re-regularized SCAN correlation by Furness et al
[ 1]  J. W. Furness, A. D. Kaplan, J. Ning, J. P. Perdew, and J. Sun.,  J. Phys. Chem. Lett. 11, 8208-8215 (2020)
[ 2]  J. W. Furness, A. D. Kaplan, J. Ning, J. P. Perdew, and J. Sun.,  J. Phys. Chem. Lett. 11, 9248-9248 (2020)
Using LibXC functional ID 497 : Re-regularized SCAN exchange by Furness et al
[ 1]  J. W. Furness, A. D. Kaplan, J. Ning, J. P. Perdew, and J. Sun.,  J. Phys. Chem. Lett. 11, 8208-8215 (2020)
[ 2]  J. W. Furness, A. D. Kaplan, J. Ning, J. P. Perdew, and J. Sun.,  J. Phys. Chem. Lett. 11, 9248-9248 (2020)
Using LibXC functional ID 498 : Re-regularized SCAN correlation by Furness et al
[ 1]  J. W. Furness, A. D. Kaplan, J. Ning, J. P. Perdew, and J. Sun.,  J. Phys. Chem. Lett. 11, 8208-8215 (2020)
[ 2]  J. W. Furness, A. D. Kaplan, J. Ning, J. P. Perdew, and J. Sun.,  J. Phys. Chem. Lett. 11, 9248-9248 (2020)

================================================================================
                                       INPUT FILE
================================================================================
NAME = cs_rporg_003_red_solv_04.inp
|  1> !r2SCANh aug-cc-pVTZ d3 TightSCF SlowConv RIJCOSX defgrid2
|  2>  
|  3> %pal
|  4> nprocs 4
|  5> end
|  6>  
|  7> %scf
|  8> MaxIter 1500
|  9> end
| 10>  
| 11> %maxcore 3000
| 12>  
| 13> !CPCM
| 14> %cpcm smd true
| 15> SMDsolvent "MeCN"
| 16> surfacetype gepol_ses
| 17> rsolv 2.19
| 18> end 
| 19>  
| 20> * xyz 0 1
| 21> C           4.13966964128756      1.20735034805801      0.00018109983423
| 22> C           4.83985938717942      0.00012909944918     -0.00011080706815
| 23> C           4.13977283020272     -1.20715138721907     -0.00030540880609
| 24> C           2.74896974902717     -1.21166073629652     -0.00020947111922
| 25> C           2.03371707188302      0.00000535590610      0.00007936492405
| 26> C           2.74886648576486      1.21173557633403      0.00027305110837
| 27> H           2.19700573398250      2.15507580320245      0.00050096603306
| 28> C           0.60926575165477     -0.00003899905682      0.00017121398327
| 29> C          -0.60926677013399     -0.00011851011831      0.00032726130009
| 30> C          -2.03371710027454     -0.00005107798655      0.00019494163829
| 31> C          -2.74898416366441     -1.21170960248422      0.00036780306847
| 32> C          -4.13978643826222     -1.20718728138590      0.00021041667338
| 33> C          -4.83985863236214      0.00010214935927     -0.00011716793755
| 34> C          -4.13965447812715      1.20731478629068     -0.00028483680888
| 35> C          -2.74885097774675      1.21168640857502     -0.00012607465811
| 36> H          -2.19698244285642      2.15502223469334     -0.00025694123114
| 37> H          -4.68454348342066      2.15603211713716     -0.00054208004626
| 38> H          -5.93383287072922      0.00016036307699     -0.00023936958784
| 39> H          -4.68478251870500     -2.15584320000508      0.00034538941345
| 40> H          -2.19721645884462     -2.15510431633366      0.00062541194967
| 41> H           2.19719446528860     -2.15505107012925     -0.00036096765238
| 42> H           4.68475743011085     -2.15581340727935     -0.00053331434756
| 43> H           5.93383355030704      0.00017426906263     -0.00018342642694
| 44> H           4.68456993843861      2.15606107714988      0.00033824576380
| 45> *
| 46> 
| 47>                          ****END OF INPUT****
================================================================================

                       ****************************
                       * Single Point Calculation *
                       ****************************

---------------------------------
CARTESIAN COORDINATES (ANGSTROEM)
---------------------------------
  C      4.139670    1.207350    0.000181
  C      4.839859    0.000129   -0.000111
  C      4.139773   -1.207151   -0.000305
  C      2.748970   -1.211661   -0.000209
  C      2.033717    0.000005    0.000079
  C      2.748866    1.211736    0.000273
  H      2.197006    2.155076    0.000501
  C      0.609266   -0.000039    0.000171
  C     -0.609267   -0.000119    0.000327
  C     -2.033717   -0.000051    0.000195
  C     -2.748984   -1.211710    0.000368
  C     -4.139786   -1.207187    0.000210
  C     -4.839859    0.000102   -0.000117
  C     -4.139654    1.207315   -0.000285
  C     -2.748851    1.211686   -0.000126
  H     -2.196982    2.155022   -0.000257
  H     -4.684543    2.156032   -0.000542
  H     -5.933833    0.000160   -0.000239
  H     -4.684783   -2.155843    0.000345
  H     -2.197216   -2.155104    0.000625
  H      2.197194   -2.155051   -0.000361
  H      4.684757   -2.155813   -0.000533
  H      5.933834    0.000174   -0.000183
  H      4.684570    2.156061    0.000338

----------------------------
CARTESIAN COORDINATES (A.U.)
----------------------------
  NO LB      ZA    FRAG     MASS         X           Y           Z
   0 C     6.0000    0    12.011    7.822842    2.281562    0.000342
   1 C     6.0000    0    12.011    9.146009    0.000244   -0.000209
   2 C     6.0000    0    12.011    7.823037   -2.281186   -0.000577
   3 C     6.0000    0    12.011    5.194800   -2.289707   -0.000396
   4 C     6.0000    0    12.011    3.843168    0.000010    0.000150
   5 C     6.0000    0    12.011    5.194605    2.289848    0.000516
   6 H     1.0000    0     1.008    4.151739    4.072503    0.000947
   7 C     6.0000    0    12.011    1.151345   -0.000074    0.000324
   8 C     6.0000    0    12.011   -1.151347   -0.000224    0.000618
   9 C     6.0000    0    12.011   -3.843168   -0.000097    0.000368
  10 C     6.0000    0    12.011   -5.194827   -2.289799    0.000695
  11 C     6.0000    0    12.011   -7.823063   -2.281253    0.000398
  12 C     6.0000    0    12.011   -9.146007    0.000193   -0.000221
  13 C     6.0000    0    12.011   -7.822813    2.281494   -0.000538
  14 C     6.0000    0    12.011   -5.194576    2.289755   -0.000238
  15 H     1.0000    0     1.008   -4.151695    4.072402   -0.000486
  16 H     1.0000    0     1.008   -8.852504    4.074310   -0.001024
  17 H     1.0000    0     1.008  -11.213319    0.000303   -0.000452
  18 H     1.0000    0     1.008   -8.852956   -4.073953    0.000653
  19 H     1.0000    0     1.008   -4.152137   -4.072557    0.001182
  20 H     1.0000    0     1.008    4.152096   -4.072456   -0.000682
  21 H     1.0000    0     1.008    8.852909   -4.073897   -0.001008
  22 H     1.0000    0     1.008   11.213320    0.000329   -0.000347
  23 H     1.0000    0     1.008    8.852554    4.074365    0.000639

--------------------------------
INTERNAL COORDINATES (ANGSTROEM)
--------------------------------
 C      0   0   0     0.000000000000     0.00000000     0.00000000
 C      1   0   0     1.395581924702     0.00000000     0.00000000
 C      2   1   0     1.395581383732   119.77731845     0.00000000
 C      3   2   1     1.390810394713   120.29466508     0.00000000
 C      4   3   2     1.407025655268   120.36780316     0.00000000
 C      1   2   3     1.390810071898   120.29443782     0.00000000
 H      6   1   2     1.092904902053   120.50859233   180.00003009
 C      5   4   3     1.424451323880   120.55178634   179.99965847
 C      8   5   4     1.218532534375   179.99586584    61.79665553
 C      9   8   5     1.424450337882   179.98579145   181.21293635
 C     10   9   8     1.407026432530   120.55151799   117.01320078
 C     11  10   9     1.390809635854   120.36792826   180.00130408
 C     12  11  10     1.395581940931   120.29450694     0.00000000
 C     13  12  11     1.395581683918   119.77732351     0.00000000
 C     14  13  12     1.390810379943   120.29456486     0.00000000
 H     15  14  13     1.092905017724   120.50849899   179.99997632
 H     14  13  12     1.094060632740   120.01493108   179.99997472
 H     13  12  11     1.093974246741   120.11125399   180.00005290
 H     12  11  10     1.094060692031   119.69075806   179.99987603
 H     11  10   9     1.092904960444   119.12348397     0.00000000
 H      4   3   2     1.092904986110   120.50851052   180.00001466
 H      3   2   1     1.094060279136   120.01472132   180.00006759
 H      2   1   3     1.093974166470   120.11141805   180.00020592
 H      1   2   3     1.094060512963   120.01493538   179.99976663

---------------------------
INTERNAL COORDINATES (A.U.)
---------------------------
 C      0   0   0     0.000000000000     0.00000000     0.00000000
 C      1   0   0     2.637267635137     0.00000000     0.00000000
 C      2   1   0     2.637266612852   119.77731845     0.00000000
 C      3   2   1     2.628250750218   120.29466508     0.00000000
 C      4   3   2     2.658893151857   120.36780316     0.00000000
 C      1   2   3     2.628250140187   120.29443782     0.00000000
 H      6   1   2     2.065290955300   120.50859233   180.00003009
 C      5   4   3     2.691822893235   120.55178634   179.99965847
 C      8   5   4     2.302692775241   179.99586584    61.79665553
 C      9   8   5     2.691821029969   179.98579145   181.21293635
 C     10   9   8     2.658894620671   120.55151799   117.01320078
 C     11  10   9     2.628249316183   120.36792826   180.00130408
 C     12  11  10     2.637267665806   120.29450694     0.00000000
 C     13  12  11     2.637267180122   119.77732351     0.00000000
 C     14  13  12     2.628250722307   120.29456486     0.00000000
 H     15  14  13     2.065291173887   120.50849899   179.99997632
 H     14  13  12     2.067474969784   120.01493108   179.99997472
 H     13  12  11     2.067311723904   120.11125399   180.00005290
 H     12  11  10     2.067475081827   119.69075806   179.99987603
 H     11  10   9     2.065291065644   119.12348397     0.00000000
 H      4   3   2     2.065291114146   120.50851052   180.00001466
 H      3   2   1     2.067474301568   120.01472132   180.00006759
 H      2   1   3     2.067311572214   120.11141805   180.00020592
 H      1   2   3     2.067474743437   120.01493538   179.99976663

---------------------
BASIS SET INFORMATION
---------------------
There are 2 groups of distinct atoms

 Group   1 Type C   : 19s6p3d2f contracted to 5s4p3d2f pattern {88111/3111/111/11}
 Group   2 Type H   : 6s3p2d contracted to 4s3p2d pattern {3111/111/11}

Atom   0C    basis set group =>   1
Atom   1C    basis set group =>   1
Atom   2C    basis set group =>   1
Atom   3C    basis set group =>   1
Atom   4C    basis set group =>   1
Atom   5C    basis set group =>   1
Atom   6H    basis set group =>   2
Atom   7C    basis set group =>   1
Atom   8C    basis set group =>   1
Atom   9C    basis set group =>   1
Atom  10C    basis set group =>   1
Atom  11C    basis set group =>   1
Atom  12C    basis set group =>   1
Atom  13C    basis set group =>   1
Atom  14C    basis set group =>   1
Atom  15H    basis set group =>   2
Atom  16H    basis set group =>   2
Atom  17H    basis set group =>   2
Atom  18H    basis set group =>   2
Atom  19H    basis set group =>   2
Atom  20H    basis set group =>   2
Atom  21H    basis set group =>   2
Atom  22H    basis set group =>   2
Atom  23H    basis set group =>   2
---------------------------------
AUXILIARY/J BASIS SET INFORMATION
---------------------------------
There are 2 groups of distinct atoms

 Group   1 Type C   : 12s5p4d2f1g contracted to 6s4p3d1f1g pattern {711111/2111/211/2/1}
 Group   2 Type H   : 5s2p1d contracted to 3s1p1d pattern {311/2/1}

Atom   0C    basis set group =>   1
Atom   1C    basis set group =>   1
Atom   2C    basis set group =>   1
Atom   3C    basis set group =>   1
Atom   4C    basis set group =>   1
Atom   5C    basis set group =>   1
Atom   6H    basis set group =>   2
Atom   7C    basis set group =>   1
Atom   8C    basis set group =>   1
Atom   9C    basis set group =>   1
Atom  10C    basis set group =>   1
Atom  11C    basis set group =>   1
Atom  12C    basis set group =>   1
Atom  13C    basis set group =>   1
Atom  14C    basis set group =>   1
Atom  15H    basis set group =>   2
Atom  16H    basis set group =>   2
Atom  17H    basis set group =>   2
Atom  18H    basis set group =>   2
Atom  19H    basis set group =>   2
Atom  20H    basis set group =>   2
Atom  21H    basis set group =>   2
Atom  22H    basis set group =>   2
Atom  23H    basis set group =>   2


           ************************************************************
           *        Program running with 4 parallel MPI-processes     *
           *              working on a common directory               *
           ************************************************************
------------------------------------------------------------------------------
                             ORCA STARTUP CALCULATIONS
                           -- RI-GTO INTEGRALS CHOSEN --
------------------------------------------------------------------------------
------------------------------------------------------------------------------
                   ___                                                        
                  /   \      - P O W E R E D   B Y -                         
                 /     \                                                     
                 |  |  |   _    _      __       _____    __    __             
                 |  |  |  | |  | |    /  \     |  _  \  |  |  /  |          
                  \  \/   | |  | |   /    \    | | | |  |  | /  /          
                 / \  \   | |__| |  /  /\  \   | |_| |  |  |/  /          
                |  |  |   |  __  | /  /__\  \  |    /   |      \           
                |  |  |   | |  | | |   __   |  |    \   |  |\   \          
                \     /   | |  | | |  |  |  |  | |\  \  |  | \   \       
                 \___/    |_|  |_| |__|  |__|  |_| \__\ |__|  \__/        
                                                                              
                      - O R C A' S   B I G   F R I E N D -                    
                                      &                                       
                       - I N T E G R A L  F E E D E R -                       
                                                                              
 v1 FN, 2020, v2 2021, v3 2022-2024                                           
------------------------------------------------------------------------------


----------------------
SHARK INTEGRAL PACKAGE
----------------------

Number of atoms                             ...     24
Number of basis functions                   ...    958
Number of shells                            ...    370
Maximum angular momentum                    ...      3
Integral batch strategy                     ... SHARK/LIBINT Hybrid
RI-J (if used) integral strategy            ... SPLIT-RIJ (Revised 2003 algorithm where possible)
Printlevel                                  ...      1
Contraction scheme used                     ... PARTIAL GENERAL contraction
Prescreening option                         ... SCHWARTZ
   Thresh                                   ... 2.500e-11
   Tcut                                     ... 2.500e-12
   Tpresel                                  ... 2.500e-12 
Coulomb Range Separation                    ... NOT USED
Exchange Range Separation                   ... NOT USED
Multipole approximations                    ... NOT USED
Finite Nucleus Model                        ... NOT USED
CABS basis                                  ... NOT available
Auxiliary Coulomb fitting basis             ... AVAILABLE
   # of basis functions in Aux-J            ...    796
   # of shells in Aux-J                     ...    260
   Maximum angular momentum in Aux-J        ...      4
Auxiliary J/K fitting basis                 ... NOT available
Auxiliary Correlation fitting basis         ... NOT available
Auxiliary 'external' fitting basis          ... NOT available

Checking pre-screening integrals            ... done (  0.0 sec) Dimension = 370
Save PGC pre-screening integrals            ... done (  0.0 sec) Dimension = 370
Calculate PGC overlap integrals             ... done (  0.1 sec) Dimension = 286
Calculating pre-screening integrals (ORCA)  ... done (  0.3 sec) Dimension = 286
Check shell pair data                       ... done (  0.0 sec)
Shell pair information
Shell pair cut-off parameter TPreSel        ...   2.5e-12
Total number of shell pairs                 ...     68635
Shell pairs after pre-screening             ...     48814
Total number of primitive shell pairs       ...     87643
Primitive shell pairs kept                  ...     57128
          la=0 lb=0:  11043 shell pairs
          la=1 lb=0:  12536 shell pairs
          la=1 lb=1:   3164 shell pairs
          la=2 lb=0:   8574 shell pairs
          la=2 lb=1:   4386 shell pairs
          la=2 lb=2:   1557 shell pairs
          la=3 lb=0:   3860 shell pairs
          la=3 lb=1:   1992 shell pairs
          la=3 lb=2:   1370 shell pairs
          la=3 lb=3:    332 shell pairs

Calculating one electron integrals          ... done (  0.1 sec)
Calculating RI/J V-Matrix + Cholesky decomp.... done (  0.1 sec)
Calculating Nuclear repulsion               ... done (  0.0 sec) ENN=    693.334398508629 Eh

Diagonalization of the overlap matrix:
Smallest eigenvalue                        ... 2.083e-07
Time for diagonalization                   ...    0.265 sec
Threshold for overlap eigenvalues          ... 1.000e-07
Number of eigenvalues below threshold      ... 0

IMPORTANT:
Smallest eigenvalue of S below the DiffSThresh (1.000e-06) while
Thresh>1e-12 and/or TCut>1e-13! In order to avoid SCF convergence issues,
Thresh will be set to at least 1e-12 and TCut to at least 1e-13.
This can be turned off by adding %SCF DiffSThresh -1 END to the input.

Time for construction of square roots      ...    0.180 sec
Total time needed                          ...    0.477 sec

-------------------
DFT GRID GENERATION
-------------------

General Integration Accuracy     IntAcc      ... 4.388
Radial Grid Type                 RadialGrid  ... OptM3 with GC (2021)
Angular Grid (max. ang.)         AngularGrid ... 4 (Lebedev-302)
Angular grid pruning method      GridPruning ... 4 (adaptive)
Weight generation scheme         WeightScheme... mBecke (2022)
Basis function cutoff            BFCut       ... 1.0000e-11
Integration weight cutoff        WCut        ... 1.0000e-14
Partially contracted basis set               ... off
Rotationally invariant grid construction     ... off
Angular grids for H and He will be reduced by one unit
Diffuse basis detected: some atoms will have their outermost
                        angular grid increased by 1.

Total number of grid points                  ...   121738
Total number of batches                      ...     1914
Average number of points per batch           ...       63
Average number of grid points per atom       ...     5072

---------------------
SHARK GRID GENERATION
---------------------

General Integration Accuracy     IntAcc      ... 4.388
Radial Grid Type                 RadialGrid  ... OptM3 with GC (2021)
Angular Grid (max. ang.)         AngularGrid ... 4 (Lebedev-302)
Angular grid pruning method      GridPruning ... 4 (adaptive)
Weight generation scheme         WeightScheme... mBecke (2022)
Basis function cutoff            BFCut       ... 1.0000e-11
Integration weight cutoff        WCut        ... 1.0000e-14
Partially contracted basis set               ... off
Rotationally invariant grid construction     ... off
Angular grids for H and He will be reduced by one unit
Diffuse basis detected: some atoms will have their outermost
                        angular grid increased by 1.
Steep s-basis detected: some atoms will have their radial
                        grid points doubled.

Total number of grid points                  ...   209917
Total number of batches                      ...     3290
Average number of points per batch           ...       63
Average number of grid points per atom       ...     8747

--------------------
COSX GRID GENERATION
--------------------

GRIDX 1
-------
General Integration Accuracy     IntAcc      ... 3.816
Radial Grid Type                 RadialGrid  ... OptM3 with GC (2021)
Angular Grid (max. ang.)         AngularGrid ... 1 (Lebedev-50)
Angular grid pruning method      GridPruning ... 4 (adaptive)
Weight generation scheme         WeightScheme... mBecke (2022)
Basis function cutoff            BFCut       ... 1.0000e-11
Integration weight cutoff        WCut        ... 1.0000e-14
Partially contracted basis set               ... on
Rotationally invariant grid construction     ... off
Angular grids for H and He will be reduced by one unit
Diffuse basis detected: some atoms will have their outermost
                        angular grid increased by 1.

Total number of grid points                  ...    15306
Total number of batches                      ...      128
Average number of points per batch           ...      119
Average number of grid points per atom       ...      638
UseSFitting                                  ... on

GRIDX 2
-------
General Integration Accuracy     IntAcc      ... 4.020
Radial Grid Type                 RadialGrid  ... OptM3 with GC (2021)
Angular Grid (max. ang.)         AngularGrid ... 2 (Lebedev-110)
Angular grid pruning method      GridPruning ... 4 (adaptive)
Weight generation scheme         WeightScheme... mBecke (2022)
Basis function cutoff            BFCut       ... 1.0000e-11
Integration weight cutoff        WCut        ... 1.0000e-14
Partially contracted basis set               ... on
Rotationally invariant grid construction     ... off
Angular grids for H and He will be reduced by one unit
Diffuse basis detected: some atoms will have their outermost
                        angular grid increased by 1.

Total number of grid points                  ...    37421
Total number of batches                      ...      310
Average number of points per batch           ...      120
Average number of grid points per atom       ...     1559
UseSFitting                                  ... on

GRIDX 3
-------
General Integration Accuracy     IntAcc      ... 4.338
Radial Grid Type                 RadialGrid  ... OptM3 with GC (2021)
Angular Grid (max. ang.)         AngularGrid ... 3 (Lebedev-194)
Angular grid pruning method      GridPruning ... 4 (adaptive)
Weight generation scheme         WeightScheme... mBecke (2022)
Basis function cutoff            BFCut       ... 1.0000e-11
Integration weight cutoff        WCut        ... 1.0000e-14
Partially contracted basis set               ... on
Rotationally invariant grid construction     ... off
Angular grids for H and He will be reduced by one unit
Diffuse basis detected: some atoms will have their outermost
                        angular grid increased by 1.

Total number of grid points                  ...    83050
Total number of batches                      ...      662
Average number of points per batch           ...      125
Average number of grid points per atom       ...     3460
UseSFitting                                  ... on
Initializing property integral containers    ... done (  0.0 sec)

SHARK setup successfully completed in  14.1 seconds

Maximum memory used throughout the entire STARTUP-calculation: 112.8 MB


           ************************************************************
           *        Program running with 4 parallel MPI-processes     *
           *              working on a common directory               *
           ************************************************************
-------------------------------------------------------------------------------
                                 ORCA GUESS
                   Start orbitals & Density for SCF / CASSCF
-------------------------------------------------------------------------------

------------
SCF SETTINGS
------------
Hamiltonian:
 Density Functional     Method          .... DFT(GTOs)
  Functional kind                       .... Exchange
  Functional name                       .... Re-regularized SCAN exchange by Furness et al
  Functional family                     .... MGGA
  Functional refs                              
    [ 0] J. W. Furness, A. D. Kaplan, J. Ning, J. P. Perdew, and J. Sun.,  J. Phys. Chem. Lett. 11, 8208-8215 (2020), doi: 10.1021/acs.jpclett.0c02405
    [ 1] J. W. Furness, A. D. Kaplan, J. Ning, J. P. Perdew, and J. Sun.,  J. Phys. Chem. Lett. 11, 9248-9248 (2020), doi: 10.1021/acs.jpclett.0c03077
  Functional external parameters        .... 6
    Parameter  0 _c1        =  6.670000e-01 : c1 parameter        
    Parameter  1 _c2        =  8.000000e-01 : c2 parameter        
    Parameter  2 _d         =  1.240000e+00 : d parameter         
    Parameter  3 _k1        =  6.500000e-02 : k1 parameter        
    Parameter  4 _eta       =  1.000000e-03 : eta parameter       
    Parameter  5 _dp2       =  3.610000e-01 : dp2 parameter       
  Functional kind                       .... Correlation
  Functional name                       .... Re-regularized SCAN correlation by Furness et al
  Functional family                     .... MGGA
  Functional refs                              
    [ 0] J. W. Furness, A. D. Kaplan, J. Ning, J. P. Perdew, and J. Sun.,  J. Phys. Chem. Lett. 11, 8208-8215 (2020), doi: 10.1021/acs.jpclett.0c02405
    [ 1] J. W. Furness, A. D. Kaplan, J. Ning, J. P. Perdew, and J. Sun.,  J. Phys. Chem. Lett. 11, 9248-9248 (2020), doi: 10.1021/acs.jpclett.0c03077
  Functional external parameters        .... 1
    Parameter  0 _eta       =  1.000000e-03 : Regularization parameter
 Gradients option       PostSCFGGA      .... off
 Hybrid DFT is turned on
   Fraction HF Exchange ScalHFX         ....  0.100000
   Scaling of DF-GGA-X  ScalDFX         ....  0.900000
   Scaling of DF-GGA-C  ScalDFC         ....  1.000000
   Scaling of DF-LDA-C  ScalLDAC        ....  1.000000
   Perturbative correction              ....  0.000000
   NL short-range parameter             .... 11.900000
 RI-approximation to the Coulomb term is turned on
   Number of AuxJ basis functions       .... 796
   RIJ-COSX (HFX calculated with COS-X)).... on


General Settings:
 Integral files         IntName         .... cs_rporg_003_red_solv_04
 Hartree-Fock type      HFTyp           .... RHF
 Total Charge           Charge          ....    0
 Multiplicity           Mult            ....    1
 Number of Electrons    NEL             ....   94
 Basis Dimension        Dim             ....  874
 Nuclear Repulsion      ENuc            ....    693.3343985086 Eh

Convergence Acceleration:
 AO-DIIS                CNVDIIS         .... on
   Start iteration      DIISMaxIt       ....     0
   Startup error        DIISStart       ....  0.200000
   # of expansion vecs  DIISMaxEq       ....     5
   Bias factor          DIISBfac        ....   1.050
   Max. coefficient     DIISMaxC        ....  10.000
 MO-DIIS                CNVKDIIS        .... off
 Trust-Rad. Augm. Hess. CNVTRAH         .... auto
   Auto Start mean grad. ratio tolernc. ....  1.125000
   Auto Start start iteration           ....    50
   Auto Start num. interpolation iter.  ....    10
   Max. Number of Micro iterations      ....    24
   Max. Number of Macro iterations      .... Maxiter - #DIIS iter
   Number of Davidson start vectors     ....     2
   Converg. threshold    (grad. norm)   ....   1.000e-05
   Grad. Scal. Fac. for Micro threshold ....   0.100
   Minimum threshold for Micro iter.    ....   1.000e-02
   NR start threshold (gradient norm)   ....   1.000e-04
   Initial trust radius                 ....   0.400
   Minimum AH scaling param. (alpha)    ....   1.000
   Maximum AH scaling param. (alpha)    .... 1000.000
   Quad. conv. algorithm                .... NR
   White noise on init. David. guess    .... on
   Maximum white noise                  ....   0.010
   Pseudo random numbers                .... off
   Inactive MOs                         .... canonical
   Orbital update algorithm             .... Taylor
   Preconditioner                       .... Diag
   Full preconditioner red. dimension   ....   250
 SOSCF                  CNVSOSCF        .... on
   Start iteration      SOSCFMaxIt      ....   150
   Startup grad/error   SOSCFStart      ....  0.001000
   Hessian update       SOSCFHessUp     .... L-BFGS
 Level Shifting         CNVShift        .... on
   Level shift para.    LevelShift      ....    0.2500
   Turn off err/grad.   ShiftErr        ....    0.0000
 Zerner damping         CNVZerner       .... off
 Static damping         CNVDamp         .... on
   Fraction old density DampFac         ....    0.8500
   Max. Damping (<1)    DampMax         ....    0.9800
   Min. Damping (>=0)   DampMin         ....    0.0000
   Turn off err/grad.   DampErr         ....    0.0300

SCF Procedure:
 Maximum # iterations   MaxIter         ....  1500
 SCF integral mode      SCFMode         .... Direct
   Integral package                     .... SHARK and LIBINT hybrid scheme
 Reset frequency        DirectResetFreq ....    20
 Integral Threshold     Thresh          ....  1.000e-12 Eh
 Primitive CutOff       TCut            ....  1.000e-13 Eh

Convergence Tolerance:
 Convergence Check Mode ConvCheckMode   .... Total+1el-Energy
 Convergence forced     ConvForced      .... 0
 Energy Change          TolE            ....  1.000e-08 Eh
 1-El. energy change                    ....  1.000e-05 Eh
 Orbital Gradient       TolG            ....  1.000e-05
 Orbital Rotation angle TolX            ....  1.000e-05
 DIIS Error             TolErr          ....  5.000e-07

------------------------------
INITIAL GUESS: MODEL POTENTIAL
------------------------------
Loading Hartree-Fock densities                     ... done
Calculating cut-offs                               ... done
Initializing the effective Hamiltonian             ... done
Setting up the integral package (SHARK)            ... done
Starting the Coulomb interaction                   ... done (   1.4 sec)
Making the grid                                    ... done (   0.6 sec)
Mapping shells                                     ... done
Starting the XC term evaluation                    ... done (   1.3 sec)
  promolecular density results
     # of electrons  =     93.998806959
     EX              =    -74.470741419
     EC              =     -3.090993234
     EX+EC           =    -77.561734653
Transforming the Hamiltonian                       ... done (   0.2 sec)
Diagonalizing the Hamiltonian                      ... done (   0.3 sec)
Back transforming the eigenvectors                 ... done (   0.1 sec)
Now organizing SCF variables                       ... done
                      ------------------
                      INITIAL GUESS DONE (   4.1 sec)
                      ------------------
             **** ENERGY FILE WAS UPDATED (cs_rporg_003_red_solv_04.en.tmp) ****
Finished Guess after   4.9 sec
Maximum memory used throughout the entire GUESS-calculation: 88.2 MB


           ************************************************************
           *        Program running with 4 parallel MPI-processes     *
           *              working on a common directory               *
           ************************************************************

-------------------------------------------------------------------------------------------
                                      ORCA LEAN-SCF
                              memory conserving SCF solver
-------------------------------------------------------------------------------------------

--------------------
CPCM SOLVATION MODEL
--------------------
CPCM parameters:
  Epsilon                                         ...      35.6880
  Refrac                                          ...       1.3442
  Rsolv                                           ...       2.1900
  Surface type                                    ...    GEPOL SES
  Discretization scheme                           ... Constant num. charges
  Epsilon function type                           ...         CPCM
Solvent:                                          ... ACETONITRILE
SMD-CDS solvent descriptors:
  Soln                                            ...       1.3442
  Soln25                                          ...       1.3416
  Sola                                            ...       0.0700
  Solb                                            ...       0.3200
  Solg                                            ...      41.2500
  Solc                                            ...       0.0000
  Solh                                            ...       0.0000
Radii:
  Scheme                                          ... Element-dependent radii
  Radius for C  used is    3.4960 Bohr (=   1.8500 Ang.)
  Radius for H  used is    2.2677 Bohr (=   1.2000 Ang.)
Calculating surface                               ...        done! (  0.1s)
Cavity surface points                             ...         1183
Cavity Volume                                     ...    1392.2664
Cavity Surface-area                               ...     801.2658
Calculating surface distance matrix               ...        done! (  0.0s)
Performing Cholesky decomposition & store         ...        done! (  0.1s)
Overall time for CPCM initialization              ...                 0.2s

----------------------------------------D-I-I-S--------------------------------------------
Iteration    Energy (Eh)           Delta-E    RMSDP     MaxDP     DIISErr   Damp  Time(sec)
-------------------------------------------------------------------------------------------
               ***  Starting incremental Fock matrix formation  ***
    1    -539.0416126916616122     0.00e+00  2.33e-03  2.15e-01  1.33e-01  0.850  49.6
    2    -539.1047259436611512    -6.31e-02  2.01e-03  1.44e-01  1.03e-01  0.850  28.8
                               ***Turning on AO-DIIS***
    3    -539.1503411579305975    -4.56e-02  1.90e-03  1.03e-01  7.42e-02  0.850  28.2
    4    -539.1816636578171256    -3.13e-02  1.81e-03  1.04e-01  5.99e-02  0.850  27.8
    5    -539.2049492083237965    -2.33e-02  1.62e-03  9.33e-02  5.00e-02  0.850  27.5
    6    -539.2233607850880617    -1.84e-02  1.41e-03  7.96e-02  4.25e-02  0.850  27.4
    7    -539.2384083607767025    -1.50e-02  1.21e-03  7.03e-02  3.60e-02  0.850  27.2
    8    -539.2508141623209212    -1.24e-02  1.03e-03  6.08e-02  3.02e-02  0.850  26.9
    9    -539.2610300923772684    -1.02e-02  8.79e-04  5.16e-02  2.54e-02  0.850  26.9
   10    -539.2694653557325637    -8.44e-03  5.01e-03  2.92e-01  2.15e-02  0.000  26.8
   11    -539.3134276062758090    -4.40e-02  2.45e-04  2.95e-02  1.60e-03  0.000  28.4
                              *** Initializing SOSCF ***
---------------------------------------S-O-S-C-F--------------------------------------
Iteration    Energy (Eh)           Delta-E    RMSDP     MaxDP     MaxGrad    Time(sec)
--------------------------------------------------------------------------------------
   12    -539.3134543531834879    -2.67e-05  4.27e-05  8.52e-03  4.47e-04    25.8
               *** Restarting incremental Fock matrix formation ***
   13    -539.3134533661007026     9.87e-07  2.70e-03  1.86e-01  7.50e-05    49.4
   14    -539.3134535151409636    -1.49e-07  5.66e-04  3.94e-02  5.91e-05    41.9
   15    -539.3134534107987292     1.04e-07  5.56e-04  3.76e-02  5.88e-05    39.8
   16    -539.3134536086424760    -1.98e-07  1.48e-05  3.50e-03  2.88e-06    39.5
   17    -539.3134536042712170     4.37e-09  3.37e-05  6.64e-03  4.12e-06    32.0
                 **** Energy Check signals convergence ****

               *****************************************************
               *                     SUCCESS                       *
               *           SCF CONVERGED AFTER  17 CYCLES          *
               *****************************************************

Recomputing exchange energy using gridx3       ... done (   70.929 sec)
Old exchange energy                            :     -7.607007319 Eh
New exchange energy                            :     -7.607000145 Eh
Exchange energy change after final integration :      0.000007174 Eh
Total energy after final integration           :   -539.313446431 Eh

SMD CDS free energy correction energy :                -3.80108     Kcal/mol
Total Energy after SMD CDS correction =              -539.319503840 Eh
             **** ENERGY FILE WAS UPDATED (cs_rporg_003_red_solv_04.en.tmp) ****

----------------
TOTAL SCF ENERGY
----------------

Total Energy       :       -539.31950384008883 Eh          -14675.62979 eV

Components:
Nuclear Repulsion  :        693.33439850862896 Eh           18866.58814 eV
Electronic Energy  :      -1232.63376651888098 Eh          -33541.67001 eV
One Electron Energy:      -2101.42190475494499 Eh          -57182.59714 eV
Two Electron Energy:        868.78813823606401 Eh           23640.92712 eV
CPCM Dielectric    :         -0.01408559401916 Eh              -0.38329 eV
SMD CDS (Gcds)     :         -0.00605740935343 Eh              -0.16483 eV

Virial components:
Potential Energy   :      -1075.39648682625193 Eh          -29263.02611 eV
Kinetic Energy     :        536.07698298616299 Eh           14587.39632 eV
Virial Ratio       :          2.00604861047356

DFT components:
N(Alpha)           :       47.000002463206 electrons
N(Beta)            :       47.000002463206 electrons
N(Total)           :       94.000004926412 electrons
E(X)               :      -68.700732006319 Eh       
E(C)               :       -3.020759710976 Eh       
E(XC)              :      -71.721491717295 Eh       

CPCM Solvation Model Properties:
Surface-charge          :         -0.05491687732504
Corrected charge        :          0.00000000000000
Outlying charge corr.   :          0.00018421225329 Eh               0.00501 eV
Free-energy (cav+disp)  :         -0.00605740935343 Eh              -0.16483 eV

---------------
SCF CONVERGENCE
---------------

  Last Energy change         ...   -4.3713e-09  Tolerance :   1.0000e-08
  Last MAX-Density change    ...    6.6421e-03  Tolerance :   1.0000e-07
  Last RMS-Density change    ...    3.3666e-05  Tolerance :   5.0000e-09
  Last DIIS Error            ...    4.4655e-04  Tolerance :   5.0000e-07
  Last Orbital Gradient      ...    4.1235e-06  Tolerance :   1.0000e-05
  Last Orbital Rotation      ...    6.4156e-06  Tolerance :   1.0000e-05


----------------
ORBITAL ENERGIES
----------------

  NO   OCC          E(Eh)            E(eV) 
   0   2.0000     -10.195150      -277.4241 
   1   2.0000     -10.195145      -277.4240 
   2   2.0000     -10.171006      -276.7671 
   3   2.0000     -10.170692      -276.7586 
   4   2.0000     -10.170687      -276.7585 
   5   2.0000     -10.170685      -276.7584 
   6   2.0000     -10.170683      -276.7583 
   7   2.0000     -10.168854      -276.7086 
   8   2.0000     -10.167081      -276.6603 
   9   2.0000     -10.167080      -276.6603 
  10   2.0000     -10.166706      -276.6501 
  11   2.0000     -10.166706      -276.6501 
  12   2.0000     -10.166345      -276.6403 
  13   2.0000     -10.166341      -276.6402 
  14   2.0000      -0.872269       -23.7356 
  15   2.0000      -0.868721       -23.6391 
  16   2.0000      -0.798566       -21.7301 
  17   2.0000      -0.771918       -21.0049 
  18   2.0000      -0.752680       -20.4815 
  19   2.0000      -0.752527       -20.4773 
  20   2.0000      -0.720825       -19.6147 
  21   2.0000      -0.635339       -17.2885 
  22   2.0000      -0.607040       -16.5184 
  23   2.0000      -0.605757       -16.4835 
  24   2.0000      -0.605641       -16.4803 
  25   2.0000      -0.540789       -14.7156 
  26   2.0000      -0.523284       -14.2393 
  27   2.0000      -0.478286       -13.0148 
  28   2.0000      -0.466232       -12.6868 
  29   2.0000      -0.455458       -12.3936 
  30   2.0000      -0.450446       -12.2572 
  31   2.0000      -0.428409       -11.6576 
  32   2.0000      -0.422650       -11.5009 
  33   2.0000      -0.413384       -11.2488 
  34   2.0000      -0.413089       -11.2407 
  35   2.0000      -0.391816       -10.6619 
  36   2.0000      -0.379073       -10.3151 
  37   2.0000      -0.349987        -9.5236 
  38   2.0000      -0.345721        -9.4075 
  39   2.0000      -0.340250        -9.2587 
  40   2.0000      -0.335853        -9.1390 
  41   2.0000      -0.323538        -8.8039 
  42   2.0000      -0.276360        -7.5201 
  43   2.0000      -0.273394        -7.4394 
  44   2.0000      -0.260649        -7.0926 
  45   2.0000      -0.260535        -7.0895 
  46   2.0000      -0.219613        -5.9760 
  47   0.0000      -0.073202        -1.9919 
  48   0.0000      -0.031728        -0.8634 
  49   0.0000      -0.030088        -0.8187 
  50   0.0000      -0.018056        -0.4913 
  51   0.0000       0.005889         0.1602 
  52   0.0000       0.016686         0.4541 
  53   0.0000       0.025134         0.6839 
  54   0.0000       0.026324         0.7163 
  55   0.0000       0.029580         0.8049 
  56   0.0000       0.035652         0.9701 
  57   0.0000       0.045189         1.2297 
*Only the first 10 virtual orbitals were printed.

                    ********************************
                    * MULLIKEN POPULATION ANALYSIS *
                    ********************************

-----------------------
MULLIKEN ATOMIC CHARGES
-----------------------
   0 C :   -0.831122
   1 C :    0.107105
   2 C :   -0.831046
   3 C :   -1.153020
   4 C :    1.846548
   5 C :   -1.140174
   6 H :   -0.419047
   7 C :    1.209566
   8 C :    1.205820
   9 C :    1.875977
  10 C :   -1.126073
  11 C :   -0.810162
  12 C :    0.131192
  13 C :   -0.783564
  14 C :   -1.154027
  15 H :   -0.468382
  16 H :    0.527173
  17 H :    0.490066
  18 H :    0.494244
  19 H :   -0.389702
  20 H :   -0.431494
  21 H :    0.535735
  22 H :    0.553993
  23 H :    0.560394
Sum of atomic charges:    0.0000000

--------------------------------
MULLIKEN REDUCED ORBITAL CHARGES
--------------------------------
  0 C s       :     3.739573  s :     3.739573
      pz      :     0.953326  p :     2.863576
      px      :     1.026466
      py      :     0.883784
      dz2     :     0.011650  d :     0.235260
      dxz     :     0.020259
      dyz     :     0.013368
      dx2y2   :    -0.045569
      dxy     :     0.235552
      f0      :     0.000506  f :    -0.007287
      f+1     :     0.000582
      f-1     :     0.000186
      f+2     :     0.000380
      f-2     :     0.000391
      f+3     :     0.002799
      f-3     :    -0.012131

  1 C s       :     3.465238  s :     3.465238
      pz      :     0.943622  p :     2.651809
      px      :     0.885233
      py      :     0.822954
      dz2     :    -0.032683  d :    -0.217856
      dxz     :     0.005333
      dyz     :     0.023548
      dx2y2   :    -0.189142
      dxy     :    -0.024913
      f0      :     0.000497  f :    -0.006295
      f+1     :     0.000506
      f-1     :     0.000330
      f+2     :     0.000660
      f-2     :    -0.000028
      f+3     :     0.000556
      f-3     :    -0.008817

  2 C s       :     3.736429  s :     3.736429
      pz      :     0.953317  p :     2.868032
      px      :     1.031469
      py      :     0.883246
      dz2     :     0.012531  d :     0.233824
      dxz     :     0.020256
      dyz     :     0.013371
      dx2y2   :    -0.042456
      dxy     :     0.230121
      f0      :     0.000506  f :    -0.007238
      f+1     :     0.000572
      f-1     :     0.000195
      f+2     :     0.000379
      f-2     :     0.000390
      f+3     :     0.002814
      f-3     :    -0.012094

  3 C s       :     4.115547  s :     4.115547
      pz      :     0.955424  p :     2.747607
      px      :     0.751859
      py      :     1.040324
      dz2     :    -0.032531  d :     0.310354
      dxz     :     0.011885
      dyz     :     0.009315
      dx2y2   :    -0.082329
      dxy     :     0.404014
      f0      :     0.000543  f :    -0.020488
      f+1     :    -0.000226
      f-1     :     0.000005
      f+2     :     0.000152
      f-2     :     0.000331
      f+3     :     0.001823
      f-3     :    -0.023116

  4 C s       :     2.588303  s :     2.588303
      pz      :     1.030738  p :     1.403766
      px      :    -0.081436
      py      :     0.454464
      dz2     :     0.021653  d :     0.242082
      dxz     :    -0.040571
      dyz     :    -0.009819
      dx2y2   :     0.288795
      dxy     :    -0.017975
      f0      :     0.001117  f :    -0.080699
      f+1     :    -0.007090
      f-1     :    -0.001194
      f+2     :    -0.000026
      f-2     :    -0.002103
      f+3     :    -0.020654
      f-3     :    -0.050749

  5 C s       :     4.106978  s :     4.106978
      pz      :     0.955430  p :     2.748439
      px      :     0.754243
      py      :     1.038766
      dz2     :    -0.033510  d :     0.305176
      dxz     :     0.011900
      dyz     :     0.009329
      dx2y2   :    -0.080222
      dxy     :     0.397680
      f0      :     0.000543  f :    -0.020420
      f+1     :    -0.000237
      f-1     :    -0.000004
      f+2     :     0.000152
      f-2     :     0.000331
      f+3     :     0.001874
      f-3     :    -0.023079

  6 H s       :     1.292612  s :     1.292612
      pz      :     0.018895  p :     0.118507
      px      :    -0.013379
      py      :     0.112991
      dz2     :    -0.000523  d :     0.007929
      dxz     :     0.001265
      dyz     :     0.003824
      dx2y2   :     0.002451
      dxy     :     0.000911

  7 C s       :     2.537106  s :     2.537106
      pz      :     1.074184  p :     2.343099
      px      :     0.045636
      py      :     1.223279
      dz2     :     0.045130  d :    -0.060277
      dxz     :    -0.077322
      dyz     :     0.003289
      dx2y2   :     0.040054
      dxy     :    -0.071428
      f0      :    -0.000359  f :    -0.029494
      f+1     :    -0.003625
      f-1     :    -0.001364
      f+2     :    -0.001664
      f-2     :    -0.000246
      f+3     :    -0.000353
      f-3     :    -0.021883

  8 C s       :     2.545440  s :     2.545440
      pz      :     1.074249  p :     2.332800
      px      :     0.038566
      py      :     1.219984
      dz2     :     0.046207  d :    -0.054511
      dxz     :    -0.077385
      dyz     :     0.003289
      dx2y2   :     0.040722
      dxy     :    -0.067344
      f0      :    -0.000360  f :    -0.029548
      f+1     :    -0.003614
      f-1     :    -0.001365
      f+2     :    -0.001667
      f-2     :    -0.000246
      f+3     :    -0.000388
      f-3     :    -0.021909

  9 C s       :     2.588309  s :     2.588309
      pz      :     1.030785  p :     1.405800
      px      :    -0.070815
      py      :     0.445831
      dz2     :     0.020425  d :     0.210457
      dxz     :    -0.040726
      dyz     :    -0.009800
      dx2y2   :     0.260845
      dxy     :    -0.020287
      f0      :     0.001117  f :    -0.080544
      f+1     :    -0.007102
      f-1     :    -0.001187
      f+2     :    -0.000036
      f-2     :    -0.002101
      f+3     :    -0.020692
      f-3     :    -0.050543

 10 C s       :     4.105017  s :     4.105017
      pz      :     0.955441  p :     2.753478
      px      :     0.760234
      py      :     1.037802
      dz2     :    -0.033391  d :     0.287976
      dxz     :     0.011902
      dyz     :     0.009327
      dx2y2   :    -0.087228
      dxy     :     0.387366
      f0      :     0.000543  f :    -0.020399
      f+1     :    -0.000194
      f-1     :    -0.000003
      f+2     :     0.000152
      f-2     :     0.000329
      f+3     :     0.001801
      f-3     :    -0.023026

 11 C s       :     3.737936  s :     3.737936
      pz      :     0.953327  p :     2.874530
      px      :     1.033684
      py      :     0.887519
      dz2     :     0.013280  d :     0.204681
      dxz     :     0.020254
      dyz     :     0.013369
      dx2y2   :    -0.056878
      dxy     :     0.214656
      f0      :     0.000506  f :    -0.006985
      f+1     :     0.000561
      f-1     :     0.000198
      f+2     :     0.000376
      f-2     :     0.000394
      f+3     :     0.002808
      f-3     :    -0.011829

 12 C s       :     3.466292  s :     3.466292
      pz      :     0.943633  p :     2.660336
      px      :     0.893321
      py      :     0.823382
      dz2     :    -0.031460  d :    -0.251344
      dxz     :     0.005352
      dyz     :     0.023534
      dx2y2   :    -0.225655
      dxy     :    -0.023113
      f0      :     0.000497  f :    -0.006476
      f+1     :     0.000509
      f-1     :     0.000321
      f+2     :     0.000657
      f-2     :    -0.000028
      f+3     :     0.000576
      f-3     :    -0.009009

 13 C s       :     3.739796  s :     3.739796
      pz      :     0.953301  p :     2.865929
      px      :     1.028963
      py      :     0.883666
      dz2     :     0.013639  d :     0.185255
      dxz     :     0.020230
      dyz     :     0.013353
      dx2y2   :    -0.056079
      dxy     :     0.194112
      f0      :     0.000505  f :    -0.007416
      f+1     :     0.000553
      f-1     :     0.000198
      f+2     :     0.000378
      f-2     :     0.000394
      f+3     :     0.002850
      f-3     :    -0.012294

 14 C s       :     4.114407  s :     4.114407
      pz      :     0.955476  p :     2.755383
      px      :     0.759575
      py      :     1.040331
      dz2     :    -0.031913  d :     0.304550
      dxz     :     0.011909
      dyz     :     0.009341
      dx2y2   :    -0.085220
      dxy     :     0.400433
      f0      :     0.000543  f :    -0.020313
      f+1     :    -0.000202
      f-1     :     0.000018
      f+2     :     0.000151
      f-2     :     0.000329
      f+3     :     0.001867
      f-3     :    -0.023018

 15 H s       :     1.337823  s :     1.337823
      pz      :     0.018904  p :     0.122616
      px      :    -0.013366
      py      :     0.117077
      dz2     :    -0.000524  d :     0.007944
      dxz     :     0.001266
      dyz     :     0.003824
      dx2y2   :     0.002473
      dxy     :     0.000905

 16 H s       :     0.481856  s :     0.481856
      pz      :     0.019070  p :    -0.017577
      px      :    -0.025365
      py      :    -0.011282
      dz2     :    -0.000077  d :     0.008548
      dxz     :     0.001036
      dyz     :     0.004275
      dx2y2   :     0.001057
      dxy     :     0.002256

 17 H s       :     0.510777  s :     0.510777
      pz      :     0.015522  p :    -0.009001
      px      :    -0.018705
      py      :    -0.005819
      dz2     :    -0.000405  d :     0.008158
      dxz     :     0.005430
      dyz     :    -0.000310
      dx2y2   :     0.001801
      dxy     :     0.001643

 18 H s       :     0.510520  s :     0.510520
      pz      :     0.019070  p :    -0.013398
      px      :    -0.019334
      py      :    -0.013134
      dz2     :    -0.000086  d :     0.008634
      dxz     :     0.001036
      dyz     :     0.004274
      dx2y2   :     0.001165
      dxy     :     0.002245

 19 H s       :     1.269793  s :     1.269793
      pz      :     0.018899  p :     0.111892
      px      :    -0.019039
      py      :     0.112032
      dz2     :    -0.000490  d :     0.008017
      dxz     :     0.001265
      dyz     :     0.003824
      dx2y2   :     0.002478
      dxy     :     0.000941

 20 H s       :     1.302143  s :     1.302143
      pz      :     0.018903  p :     0.121442
      px      :    -0.013472
      py      :     0.116012
      dz2     :    -0.000546  d :     0.007909
      dxz     :     0.001265
      dyz     :     0.003824
      dx2y2   :     0.002456
      dxy     :     0.000909

 21 H s       :     0.469688  s :     0.469688
      pz      :     0.019070  p :    -0.013951
      px      :    -0.025357
      py      :    -0.007664
      dz2     :    -0.000117  d :     0.008528
      dxz     :     0.001036
      dyz     :     0.004274
      dx2y2   :     0.001083
      dxy     :     0.002252

 22 H s       :     0.442577  s :     0.442577
      pz      :     0.015531  p :    -0.004696
      px      :    -0.014851
      py      :    -0.005376
      dz2     :    -0.000442  d :     0.008125
      dxz     :     0.005430
      dyz     :    -0.000310
      dx2y2   :     0.001803
      dxy     :     0.001644

 23 H s       :     0.449193  s :     0.449193
      pz      :     0.019068  p :    -0.018179
      px      :    -0.023789
      py      :    -0.013458
      dz2     :    -0.000089  d :     0.008592
      dxz     :     0.001036
      dyz     :     0.004274
      dx2y2   :     0.001121
      dxy     :     0.002250



                     *******************************
                     * LOEWDIN POPULATION ANALYSIS *
                     *******************************

----------------------
LOEWDIN ATOMIC CHARGES
----------------------
   0 C :    0.193601
   1 C :    0.191369
   2 C :    0.193595
   3 C :    0.194284
   4 C :   -0.220736
   5 C :    0.194291
   6 H :   -0.163115
   7 C :    0.083124
   8 C :    0.083117
   9 C :   -0.220729
  10 C :    0.194291
  11 C :    0.193609
  12 C :    0.191374
  13 C :    0.193610
  14 C :    0.194291
  15 H :   -0.163133
  16 H :   -0.167519
  17 H :   -0.168288
  18 H :   -0.167520
  19 H :   -0.163109
  20 H :   -0.163124
  21 H :   -0.167514
  22 H :   -0.168265
  23 H :   -0.167502

-------------------------------
LOEWDIN REDUCED ORBITAL CHARGES
-------------------------------
  0 C s       :     2.493751  s :     2.493751
      pz      :     0.599126  p :     2.287611
      px      :     0.848751
      py      :     0.839735
      dz2     :     0.067921  d :     0.691927
      dxz     :     0.099411
      dyz     :     0.060193
      dx2y2   :     0.203344
      dxy     :     0.261058
      f0      :     0.019175  f :     0.333110
      f+1     :     0.028106
      f-1     :     0.022523
      f+2     :     0.046624
      f-2     :     0.022821
      f+3     :     0.056755
      f-3     :     0.137106

  1 C s       :     2.494887  s :     2.494887
      pz      :     0.596150  p :     2.286201
      px      :     0.834001
      py      :     0.856050
      dz2     :     0.067690  d :     0.694110
      dxz     :     0.039096
      dyz     :     0.121181
      dx2y2   :     0.292531
      dxy     :     0.173613
      f0      :     0.019437  f :     0.333433
      f+1     :     0.019825
      f-1     :     0.030673
      f+2     :     0.010858
      f-2     :     0.058927
      f+3     :     0.055917
      f-3     :     0.137796

  2 C s       :     2.493750  s :     2.493750
      pz      :     0.599126  p :     2.287611
      px      :     0.848746
      py      :     0.839739
      dz2     :     0.067922  d :     0.691934
      dxz     :     0.099406
      dyz     :     0.060200
      dx2y2   :     0.203327
      dxy     :     0.261080
      f0      :     0.019175  f :     0.333109
      f+1     :     0.028106
      f-1     :     0.022524
      f+2     :     0.046631
      f-2     :     0.022814
      f+3     :     0.056753
      f-3     :     0.137107

  3 C s       :     2.487425  s :     2.487425
      pz      :     0.595357  p :     2.274336
      px      :     0.852870
      py      :     0.826108
      dz2     :     0.069141  d :     0.703106
      dxz     :     0.108967
      dyz     :     0.059893
      dx2y2   :     0.206429
      dxy     :     0.258676
      f0      :     0.020632  f :     0.340850
      f+1     :     0.029375
      f-1     :     0.022248
      f+2     :     0.046136
      f-2     :     0.027907
      f+3     :     0.059092
      f-3     :     0.135459

  4 C s       :     2.473382  s :     2.473382
      pz      :     0.630192  p :     2.309947
      px      :     0.822498
      py      :     0.857257
      dz2     :     0.084205  d :     0.945760
      dxz     :     0.141527
      dyz     :     0.121337
      dx2y2   :     0.338315
      dxy     :     0.260376
      f0      :     0.031821  f :     0.491648
      f+1     :     0.033121
      f-1     :     0.032998
      f+2     :     0.050814
      f-2     :     0.061895
      f+3     :     0.079912
      f-3     :     0.201087

  5 C s       :     2.487425  s :     2.487425
      pz      :     0.595356  p :     2.274330
      px      :     0.852870
      py      :     0.826105
      dz2     :     0.069140  d :     0.703101
      dxz     :     0.108960
      dyz     :     0.059900
      dx2y2   :     0.206411
      dxy     :     0.258690
      f0      :     0.020633  f :     0.340853
      f+1     :     0.029375
      f-1     :     0.022249
      f+2     :     0.046143
      f-2     :     0.027900
      f+3     :     0.059094
      f-3     :     0.135461

  6 H s       :     0.651332  s :     0.651332
      pz      :     0.078036  p :     0.297801
      px      :     0.095344
      py      :     0.124421
      dz2     :     0.023298  d :     0.213982
      dxz     :     0.018390
      dyz     :     0.044431
      dx2y2   :     0.071954
      dxy     :     0.055909

  7 C s       :     2.575814  s :     2.575814
      pz      :     0.712097  p :     2.442019
      px      :     1.026658
      py      :     0.703264
      dz2     :     0.060249  d :     0.631550
      dxz     :     0.203255
      dyz     :     0.005282
      dx2y2   :     0.146822
      dxy     :     0.215942
      f0      :     0.026624  f :     0.267494
      f+1     :     0.038832
      f-1     :     0.006551
      f+2     :     0.045709
      f-2     :     0.003399
      f+3     :     0.064126
      f-3     :     0.082251

  8 C s       :     2.575814  s :     2.575814
      pz      :     0.712096  p :     2.442026
      px      :     1.026660
      py      :     0.703270
      dz2     :     0.060249  d :     0.631552
      dxz     :     0.203255
      dyz     :     0.005282
      dx2y2   :     0.146822
      dxy     :     0.215943
      f0      :     0.026625  f :     0.267491
      f+1     :     0.038832
      f-1     :     0.006551
      f+2     :     0.045709
      f-2     :     0.003399
      f+3     :     0.064127
      f-3     :     0.082249

  9 C s       :     2.473380  s :     2.473380
      pz      :     0.630192  p :     2.309951
      px      :     0.822504
      py      :     0.857254
      dz2     :     0.084205  d :     0.945749
      dxz     :     0.141526
      dyz     :     0.121337
      dx2y2   :     0.338305
      dxy     :     0.260377
      f0      :     0.031821  f :     0.491648
      f+1     :     0.033121
      f-1     :     0.032998
      f+2     :     0.050814
      f-2     :     0.061895
      f+3     :     0.079911
      f-3     :     0.201088

 10 C s       :     2.487426  s :     2.487426
      pz      :     0.595357  p :     2.274336
      px      :     0.852874
      py      :     0.826104
      dz2     :     0.069141  d :     0.703095
      dxz     :     0.108968
      dyz     :     0.059892
      dx2y2   :     0.206425
      dxy     :     0.258669
      f0      :     0.020633  f :     0.340852
      f+1     :     0.029375
      f-1     :     0.022248
      f+2     :     0.046135
      f-2     :     0.027907
      f+3     :     0.059095
      f-3     :     0.135459

 11 C s       :     2.493751  s :     2.493751
      pz      :     0.599127  p :     2.287612
      px      :     0.848749
      py      :     0.839736
      dz2     :     0.067922  d :     0.691919
      dxz     :     0.099404
      dyz     :     0.060200
      dx2y2   :     0.203318
      dxy     :     0.261075
      f0      :     0.019175  f :     0.333109
      f+1     :     0.028106
      f-1     :     0.022524
      f+2     :     0.046631
      f-2     :     0.022813
      f+3     :     0.056755
      f-3     :     0.137104

 12 C s       :     2.494889  s :     2.494889
      pz      :     0.596149  p :     2.286203
      px      :     0.834003
      py      :     0.856050
      dz2     :     0.067692  d :     0.694101
      dxz     :     0.039096
      dyz     :     0.121180
      dx2y2   :     0.292520
      dxy     :     0.173613
      f0      :     0.019437  f :     0.333433
      f+1     :     0.019824
      f-1     :     0.030674
      f+2     :     0.010858
      f-2     :     0.058927
      f+3     :     0.055917
      f-3     :     0.137796

 13 C s       :     2.493754  s :     2.493754
      pz      :     0.599126  p :     2.287607
      px      :     0.848746
      py      :     0.839735
      dz2     :     0.067924  d :     0.691919
      dxz     :     0.099411
      dyz     :     0.060192
      dx2y2   :     0.203344
      dxy     :     0.261048
      f0      :     0.019175  f :     0.333109
      f+1     :     0.028107
      f-1     :     0.022524
      f+2     :     0.046623
      f-2     :     0.022822
      f+3     :     0.056753
      f-3     :     0.137106

 14 C s       :     2.487423  s :     2.487423
      pz      :     0.595356  p :     2.274334
      px      :     0.852871
      py      :     0.826107
      dz2     :     0.069142  d :     0.703100
      dxz     :     0.108959
      dyz     :     0.059901
      dx2y2   :     0.206407
      dxy     :     0.258692
      f0      :     0.020633  f :     0.340853
      f+1     :     0.029375
      f-1     :     0.022249
      f+2     :     0.046144
      f-2     :     0.027899
      f+3     :     0.059092
      f-3     :     0.135461

 15 H s       :     0.651341  s :     0.651341
      pz      :     0.078036  p :     0.297809
      px      :     0.095347
      py      :     0.124426
      dz2     :     0.023300  d :     0.213983
      dxz     :     0.018390
      dyz     :     0.044431
      dx2y2   :     0.071954
      dxy     :     0.055908

 16 H s       :     0.659917  s :     0.659917
      pz      :     0.079625  p :     0.296192
      px      :     0.091698
      py      :     0.124869
      dz2     :     0.022498  d :     0.211410
      dxz     :     0.017574
      dyz     :     0.045110
      dx2y2   :     0.072157
      dxy     :     0.054071

 17 H s       :     0.661540  s :     0.661540
      pz      :     0.079683  p :     0.296496
      px      :     0.140865
      py      :     0.075948
      dz2     :     0.022433  d :     0.210252
      dxz     :     0.058718
      dyz     :     0.003185
      dx2y2   :     0.044777
      dxy     :     0.081140

 18 H s       :     0.659921  s :     0.659921
      pz      :     0.079625  p :     0.296191
      px      :     0.091707
      py      :     0.124859
      dz2     :     0.022499  d :     0.211407
      dxz     :     0.017580
      dyz     :     0.045104
      dx2y2   :     0.072162
      dxy     :     0.054063

 19 H s       :     0.651330  s :     0.651330
      pz      :     0.078036  p :     0.297799
      px      :     0.095336
      py      :     0.124427
      dz2     :     0.023297  d :     0.213980
      dxz     :     0.018385
      dyz     :     0.044436
      dx2y2   :     0.071947
      dxy     :     0.055915

 20 H s       :     0.651333  s :     0.651333
      pz      :     0.078036  p :     0.297808
      px      :     0.095341
      py      :     0.124430
      dz2     :     0.023300  d :     0.213983
      dxz     :     0.018385
      dyz     :     0.044436
      dx2y2   :     0.071948
      dxy     :     0.055914

 21 H s       :     0.659909  s :     0.659909
      pz      :     0.079626  p :     0.296194
      px      :     0.091704
      py      :     0.124864
      dz2     :     0.022499  d :     0.211411
      dxz     :     0.017579
      dyz     :     0.045105
      dx2y2   :     0.072163
      dxy     :     0.054065

 22 H s       :     0.661517  s :     0.661517
      pz      :     0.079683  p :     0.296495
      px      :     0.140865
      py      :     0.075947
      dz2     :     0.022434  d :     0.210253
      dxz     :     0.058718
      dyz     :     0.003185
      dx2y2   :     0.044777
      dxy     :     0.081140

 23 H s       :     0.659907  s :     0.659907
      pz      :     0.079625  p :     0.296188
      px      :     0.091698
      py      :     0.124864
      dz2     :     0.022498  d :     0.211408
      dxz     :     0.017575
      dyz     :     0.045109
      dx2y2   :     0.072156
      dxy     :     0.054070



                      *****************************
                      * MAYER POPULATION ANALYSIS *
                      *****************************

  NA   - Mulliken gross atomic population
  ZA   - Total nuclear charge
  QA   - Mulliken gross atomic charge
  VA   - Mayer's total valence
  BVA  - Mayer's bonded valence
  FA   - Mayer's free valence

  ATOM       NA         ZA         QA         VA         BVA        FA
  0 C      6.8311     6.0000    -0.8311     2.8335     2.8335    -0.0000
  1 C      5.8929     6.0000     0.1071     2.2827     2.2827    -0.0000
  2 C      6.8310     6.0000    -0.8310     2.8373     2.8373     0.0000
  3 C      7.1530     6.0000    -1.1530     3.0241     3.0241    -0.0000
  4 C      4.1535     6.0000     1.8465     0.6925     0.6925    -0.0000
  5 C      7.1402     6.0000    -1.1402     3.0202     3.0202     0.0000
  6 H      1.4190     1.0000    -0.4190     1.5707     1.5707     0.0000
  7 C      4.7904     6.0000     1.2096     4.1501     4.1501     0.0000
  8 C      4.7942     6.0000     1.2058     4.2127     4.2127    -0.0000
  9 C      4.1240     6.0000     1.8760     0.6403     0.6403    -0.0000
 10 C      7.1261     6.0000    -1.1261     2.9883     2.9883     0.0000
 11 C      6.8102     6.0000    -0.8102     2.8294     2.8294     0.0000
 12 C      5.8688     6.0000     0.1312     2.2204     2.2204     0.0000
 13 C      6.7836     6.0000    -0.7836     2.7554     2.7554     0.0000
 14 C      7.1540     6.0000    -1.1540     3.0126     3.0126     0.0000
 15 H      1.4684     1.0000    -0.4684     1.5576     1.5576     0.0000
 16 H      0.4728     1.0000     0.5272     0.4881     0.4881     0.0000
 17 H      0.5099     1.0000     0.4901     0.5992     0.5992    -0.0000
 18 H      0.5058     1.0000     0.4942     0.5453     0.5453    -0.0000
 19 H      1.3897     1.0000    -0.3897     1.5458     1.5458     0.0000
 20 H      1.4315     1.0000    -0.4315     1.5833     1.5833    -0.0000
 21 H      0.4643     1.0000     0.5357     0.5062     0.5062    -0.0000
 22 H      0.4460     1.0000     0.5540     0.5524     0.5524     0.0000
 23 H      0.4396     1.0000     0.5604     0.4476     0.4476    -0.0000

  Mayer bond orders larger than 0.100000
B(  0-C ,  1-C ) :   1.0529 B(  0-C ,  2-C ) :   0.4014 B(  0-C ,  3-C ) :   0.1802 
B(  0-C ,  4-C ) :   0.2821 B(  0-C ,  5-C ) :   1.2266 B(  0-C ,  7-C ) :   0.6591 
B(  0-C ,  8-C ) :  -0.9114 B(  0-C , 22-H ) :  -0.1119 B(  0-C , 23-H ) :   0.3358 
B(  1-C ,  2-C ) :   1.0517 B(  1-C ,  3-C ) :  -0.4943 B(  1-C ,  4-C ) :  -0.2545 
B(  1-C ,  5-C ) :  -0.4760 B(  1-C ,  6-H ) :  -0.1522 B(  1-C ,  7-C ) :  -0.2494 
B(  1-C ,  8-C ) :   1.0330 B(  1-C , 20-H ) :  -0.1682 B(  1-C , 21-H ) :   0.1779 
B(  1-C , 22-H ) :   0.5569 B(  1-C , 23-H ) :   0.1726 B(  2-C ,  3-C ) :   1.2280 
B(  2-C ,  4-C ) :   0.2612 B(  2-C ,  5-C ) :   0.1751 B(  2-C ,  7-C ) :   0.6803 
B(  2-C ,  8-C ) :  -0.9314 B(  2-C , 21-H ) :   0.3876 B(  2-C , 22-H ) :  -0.1227 
B(  3-C ,  5-C ) :  -0.9524 B(  3-C ,  6-H ) :   0.4176 B(  3-C ,  9-C ) :   0.1225 
B(  3-C , 20-H ) :   2.6571 B(  3-C , 21-H ) :  -0.2222 B(  4-C ,  9-C ) :   0.3757 
B(  4-C , 10-C ) :   0.1254 B(  4-C , 14-C ) :   0.1119 B(  4-C , 15-H ) :  -0.2125 
B(  4-C , 18-H ) :   0.1356 B(  4-C , 19-H ) :  -0.1518 B(  5-C ,  6-H ) :   2.5909 
B(  5-C , 20-H ) :   0.4168 B(  5-C , 23-H ) :  -0.2184 B(  6-H ,  7-C ) :  -0.5883 
B(  6-H ,  8-C ) :  -0.8200 B(  6-H ,  9-C ) :  -0.1671 B(  6-H , 20-H ) :   0.7086 
B(  6-H , 21-H ) :  -0.1576 B(  7-C ,  8-C ) :   5.6747 B(  7-C , 10-C ) :   0.1468 
B(  7-C , 11-C ) :  -0.8403 B(  7-C , 12-C ) :   1.1563 B(  7-C , 13-C ) :  -0.7469 
B(  7-C , 15-H ) :  -0.9858 B(  7-C , 17-H ) :   0.7664 B(  7-C , 18-H ) :  -0.2032 
B(  7-C , 19-H ) :  -0.7107 B(  7-C , 20-H ) :  -0.5699 B(  7-C , 21-H ) :   0.3894 
B(  7-C , 22-H ) :  -0.8595 B(  7-C , 23-H ) :   0.3066 B(  8-C , 11-C ) :   0.5883 
B(  8-C , 12-C ) :  -0.3296 B(  8-C , 13-C ) :   0.5547 B(  8-C , 15-H ) :  -0.5047 
B(  8-C , 16-H ) :   0.4139 B(  8-C , 17-H ) :  -0.6879 B(  8-C , 18-H ) :   0.4785 
B(  8-C , 19-H ) :  -0.6508 B(  8-C , 20-H ) :  -0.8642 B(  8-C , 22-H ) :   1.0182 
B(  9-C , 11-C ) :   0.2403 B(  9-C , 12-C ) :  -0.2325 B(  9-C , 13-C ) :   0.2580 
B(  9-C , 20-H ) :  -0.1679 B(  9-C , 23-H ) :   0.1471 B( 10-C , 11-C ) :   1.2039 
B( 10-C , 12-C ) :  -0.4729 B( 10-C , 13-C ) :   0.1563 B( 10-C , 14-C ) :  -0.9707 
B( 10-C , 15-H ) :   0.4175 B( 10-C , 18-H ) :  -0.1845 B( 10-C , 19-H ) :   2.5272 
B( 11-C , 12-C ) :   1.0056 B( 11-C , 13-C ) :   0.3508 B( 11-C , 14-C ) :   0.2154 
B( 11-C , 17-H ) :  -0.1315 B( 11-C , 18-H ) :   0.4928 B( 11-C , 19-H ) :  -0.1142 
B( 12-C , 13-C ) :   1.0045 B( 12-C , 14-C ) :  -0.5173 B( 12-C , 15-H ) :  -0.2070 
B( 12-C , 16-H ) :   0.1567 B( 12-C , 17-H ) :   0.6407 B( 12-C , 18-H ) :   0.1301 
B( 12-C , 19-H ) :  -0.1781 B( 13-C , 14-C ) :   1.1689 B( 13-C , 15-H ) :  -0.1050 
B( 13-C , 16-H ) :   0.4263 B( 13-C , 17-H ) :  -0.1210 B( 13-C , 19-H ) :  -0.1282 
B( 14-C , 15-H ) :   2.7504 B( 14-C , 16-H ) :  -0.2382 B( 14-C , 19-H ) :   0.3970 
B( 15-H , 18-H ) :  -0.1392 B( 15-H , 19-H ) :   0.7145 B( 16-H , 19-H ) :  -0.1443 
B( 20-H , 23-H ) :  -0.1769 

-------
TIMINGS
-------

Total SCF time: 0 days 0 hours 10 min 27 sec 

Total time                  ....     627.577 sec
Sum of individual times     ....     627.355 sec  (100.0%)

SCF preparation             ....       1.135 sec  (  0.2%)
Fock matrix formation       ....     607.512 sec  ( 96.8%)
  Startup                   ....       0.673 sec  (  0.1% of F)
  Split-RI-J                ....      34.730 sec  (  5.7% of F)
  Chain of spheres X        ....     383.708 sec  ( 63.2% of F)
  XC integration            ....     164.912 sec  ( 27.1% of F)
    XC Preparation          ....       0.000 sec  (  0.0% of XC)
    Basis function eval.    ....      12.352 sec  (  7.5% of XC)
    Density eval.           ....      65.234 sec  ( 39.6% of XC)
    XC-Functional eval.     ....       2.218 sec  (  1.3% of XC)
    XC-Potential eval.      ....      81.144 sec  ( 49.2% of XC)
  CPCM terms                ....      21.415 sec  (  3.5% of F)
Diagonalization             ....       0.000 sec  (  0.0%)
Density matrix formation    ....       1.732 sec  (  0.3%)
Total Energy calculation    ....       0.833 sec  (  0.1%)
Population analysis         ....       0.498 sec  (  0.1%)
Orbital Transformation      ....       1.443 sec  (  0.2%)
Orbital Orthonormalization  ....       0.000 sec  (  0.0%)
DIIS solution               ....      11.268 sec  (  1.8%)
SOSCF solution              ....       2.934 sec  (  0.5%)
Finished LeanSCF after 627.8 sec

Maximum memory used throughout the entire LEANSCF-calculation: 152.1 MB


-------------------------------------------------------------------------------
                          DFT DISPERSION CORRECTION                            
                                                                               
                              DFTD3 V3.1  Rev 1                                
                          USING Becke-Johnson damping                          
-------------------------------------------------------------------------------
The R2SCANh functional is recognized
Active option DFTDOPT                   ...         4   

molecular C6(AA) [au] = 7869.190933 


            DFT-D V3
 parameters
 s6 scaling factor         :     1.0000 
 a1 scaling factor         :     0.4709 
 s8 scaling factor         :     1.1236 
 a2 scaling factor         :     5.9157 
 ad hoc parameters k1-k3   :    16.0000     1.3333    -4.0000 

 Edisp/kcal,au: -5.429944731091  -0.008653166807 
 E6   /kcal   :  -3.875823421 
 E8   /kcal   :  -1.554121310 
 % E8         :  28.621309921 

-------------------------   ----------------
Dispersion correction           -0.008653167
-------------------------   ----------------


-------------------------   --------------------
FINAL SINGLE POINT ENERGY      -539.328157006896
-------------------------   --------------------



           ************************************************************
           *        Program running with 4 parallel MPI-processes     *
           *              working on a common directory               *
           ************************************************************

------------------------------------------------------------------------------
                              ORCA PROPERTY CALCULATIONS
------------------------------------------------------------------------------

GBWName                                 ... cs_rporg_003_red_solv_04.gbw
Number of atoms                         ...     24
Number of basis functions               ...    958
Max core memory                         ...   3000 MB

Electric properties:
Dipole moment                           ... YES
Quadrupole moment                       ...  NO
Static polarizability (Dipole/Dipole)   ...  NO
Static polarizability (Dipole/Quad.)    ...  NO
Static polarizability (Quad./Quad.)     ...  NO
Static polarizability (Velocity)        ...  NO

Atomic electric properties:
Dipole moment                           ...  NO
Quadrupole moment                       ...  NO
Static polarizability                   ...  NO

Choice of electric origin               ... Center of mass
Position of electric origin             ...     0.000000     0.000059     0.000080

General magnetic properties:
Magnetizability                         ...  NO

EPR properties:
g-Tensor (aka g-matrix)                 ...  NO
Zero-Field splitting spin-orbit         ...  NO
Zero-field splitting spin-spin          ...  NO
Hyperfine couplings                     ...  NO (   0 nuclei)
Quadrupole couplings                    ...  NO (   0 nuclei)
Contact density                         ...  NO (   0 nuclei)

NMR properties:
Chemical shifts                         ...  NO (   0 nuclei)
Spin-rotation constants                 ...  NO (   0 nuclei)
Spin-spin couplings                     ...  NO (   0 nuclei,    0 pairs)

Choice of magnetic origin               ... GIAO
Position of magnetic origin             ...     0.000000     0.000000     0.000000

Properties with geometric perturbations:
SCF Hessian                             ...  NO
IR spectrum                             ...  NO
VCD spectrum                            ...  NO
X-ray spectroscopy properties:
SCF XES/XAS/RIXS spectra                ...  NO


-------------
DIPOLE MOMENT
-------------

Method             : SCF
Type of density    : Electron Density
Multiplicity       :   1
Irrep              :   0
Energy             :  -539.3195038400888279 Eh
Relativity type    : 
Basis              : AO
                                X                 Y                 Z
Electronic contribution:      0.000009699      -0.000230815       0.000464571
Nuclear contribution   :      0.000001470       0.000375094      -0.000682746
                        -----------------------------------------
Total Dipole Moment    :      0.000011169       0.000144279      -0.000218176
                        -----------------------------------------
Magnitude (a.u.)       :      0.000261805
Magnitude (Debye)      :      0.000665455



--------------------
Rotational spectrum 
--------------------
 
Rotational constants in cm-1:             0.094691             0.008279             0.007613 
Rotational constants in MHz :          2838.770806           248.185899           228.232190 

Dipole components along the rotational axes: 
x,y,z [a.u.] :     0.000011    -0.000144    -0.000218 
x,y,z [Debye]:     0.000028    -0.000367    -0.000555 

 

Dipole moment calculation done in   0.1 sec 

Maximum memory used throughout the entire PROP-calculation: 91.3 MB

--------------------------------
SUGGESTED CITATIONS FOR THIS RUN
--------------------------------

Below you find a list of papers that are relevant to this ORCA run
We neither can nor want to force you to cite these papers, but we appreciate if you do
You receive ORCA, which is the product of decades of hard work by many enthusiastic individuals, for free
The only thing we kindly ask in return is that you cite our papers,
We deeply appreciate it, if you show your appreciation for ORCA by not just citing the generic ORCA reference.

Please note that relegating all ORCA citations to the supporting information does *not* help us.
SI sections are not indexed - citations you put there will not count into any citation statistics
But we need these citations in order to attract the funding resources that allow us to do what we are doing

Therefore, if you are a happy ORCA user, please consider citing a few of the papers listed below in the main body of your paper

In addition to the list printed below, the program has created the file cs_rporg_003_red_solv_04.bibtex that contains the list in bibtex format
You can import this file easily into all common literature databanks and citation aid programs


List of essential papers. We consider these as the minimum necessary citations

  1. Neese,F.
     Software update: the ORCA program system, version 5.0
     WIRES Comput. Molec. Sci., 2022 12(1)e1606
     doi.org/10.1002/wcms.1606

List of papers to cite with high priority. The work reported in these papers was absolutely
necessary for this run to complete.
Our perspective: the developers of density functionals and basis sets usually get cited in chemistry papers
Good! But without the algorithms to do something with them, the functionals or basis sets would not do anything.
Hence, in our opinion, the algorithm design and method developments papers are equally worthy of getting cited

  1. Neese,F.
     An improvement of the resolution of the identity approximation for the formation of the Coulomb matrix
     J. Comp. Chem., 2003 24(14)1740-1747
     doi.org/10.1002/jcc.10318
  2. Neese,F.; Wennmohs,F.; Hansen,A.; Becker,U.
     Efficient, approximate and parallel Hartree-Fock and hybrid DFT calculations. A 'chain-of-spheres' algorithm for the Hartree-Fock exchange
     Chem. Phys., 2009 356(1-3)98-109
     doi.org/10.1016/j.chemphys.2008.10.036
  3. Garcia-Rates,M.; Neese,F.
     Effect of the Solute Cavity on the Solvation Energy and its Derivatives within the Framework of the Gaussian Charge Scheme
     J. Comput. Chem., 2020 41 922-939
     doi.org/10.1002/jcc.26139
  4. Helmich-Paris,B.; de Souza,B.; Neese,F.; Izsák,R.
     An improved chain of spheres for exchange algorithm
     J. Chem. Phys., 2021 155 104109
     doi.org/doi: 10.1063/5.0058766.
  5. Neese,F.
     The SHARK Integral Generation and Digestion System
     J. Comp. Chem., 2022  1-16
     doi.org/10.1002/jcc.26942
  6. Lehtola,S.; Steigemann,C.; Oliveira,M.; Marques,M.
     Recent developments in Libxc - A comprehensive library of functionals for density functional theory
     Software X, 2018 7 
     doi.org/10.1016/j.softx.2017.11.002
  7. Grimme,S.; Antony,J.; Ehrlich,S.; Krieg,H.
     A consistent and accurate ab initio parametrization of density functional dispersion correction (DFT-D) for the 94 elements H-Pu
     J. Chem. Phys., 2010 132 154104-XXXX
     doi.org/10.1063/1.3382344
  8. Grimme,S.; Ehrlich,S.; Goerigk,L.
     Effect of the damping function in dispersion corrected density functional theory
     J. Comput. Chem., 2011 32(7)1456-1465
     doi.org/10.1002/jcc.21759
  9. Bursch,M.; Neugebauer,H.; Ehlert,S.; Grimme,S.
     Dispersion corrected r2SCAN based global hybrid functionals: r2SCANh, r2SCAN0, and r2SCAN50
     J. Phys. Chem., 2022 156(13)134105
     doi.org/10.1063/5.0086040

List of suggested additional citations. These are papers that are important in the 'surrounding' of 
of this run, or papers that preceded the highly important papers. If you like your results we are grateful for a citation.

  1. Izsak,R.; Neese,F.
     An overlap fitted chain of spheres exchange method
     J. Chem. Phys., 2011 135 144105
     doi.org/10.1063/1.3646921
  2. Izsak,R.; Hansen,A.; Neese,F.
     The resolution of identity and chain of spheres approximations for the LPNO-CCSD singles Fock term
     Molec. Phys., 2012 110 2413-2417
     doi.org/10.1080/00268976.2012.687466
  3. Neese,F.
     The ORCA program system
     WIRES Comput. Molec. Sci., 2012 2(1)73-78
     doi.org/10.1002/wcms.81
  4. Izsak,R.; Neese,F.; Klopper,W.
     Robust fitting techniques in the chain of spheres approximation to the Fock exchange: The role of the complementary space
     J. Chem. Phys., 2013 139 
     doi.org/10.1063/1.4819264
  5. Neese,F.
     Software update: the ORCA program system, version 4.0
     WIRES Comput. Molec. Sci., 2018 8(1)1-6
     doi.org/10.1002/wcms.1327
  6. Neese,F.; Wennmohs,F.; Becker,U.; Riplinger,C.
     The ORCA quantum chemistry program package
     J. Chem. Phys., 2020 152 Art. No. L224108
     doi.org/10.1063/5.0004608
  7. Wittmann,L.; Neugebauer,H.; Grimme,S.; Bursch,M.
     Dispersion-corrected r2SCAN based double-hybrid functionals
     J. Chem. Phys., 2023 159(22)224103
     doi.org/10.1063/5.0174988

List of optional additional citations

  1. Neese,F.
     Approximate second-order SCF convergence for spin unrestricted wavefunctions
     Chem. Phys. Lett., 2000 325(1-3)93-98
     doi.org/10.1016/s0009-2614(00)00662-x

Timings for individual modules:

Sum of individual times          ...      655.865 sec (=  10.931 min)
Startup calculation              ...       18.362 sec (=   0.306 min)   2.8 %
SCF iterations                   ...      635.426 sec (=  10.590 min)  96.9 %
Property calculations            ...        2.078 sec (=   0.035 min)   0.3 %
                             ****ORCA TERMINATED NORMALLY****
TOTAL RUN TIME: 0 days 0 hours 10 minutes 59 seconds 376 msec
