
                                 *****************
                                 * O   R   C   A *
                                 *****************

                                            #,                                       
                                            ###                                      
                                            ####                                     
                                            #####                                    
                                            ######                                   
                                           ########,                                 
                                     ,,################,,,,,                         
                               ,,#################################,,                 
                          ,,##########################################,,             
                       ,#########################################, ''#####,          
                    ,#############################################,,   '####,        
                  ,##################################################,,,,####,       
                ,###########''''           ''''###############################       
              ,#####''   ,,,,##########,,,,          '''####'''          '####       
            ,##' ,,,,###########################,,,                        '##       
           ' ,,###''''                  '''############,,,                           
         ,,##''                                '''############,,,,        ,,,,,,###''
      ,#''                                            '''#######################'''  
     '                                                          ''''####''''         
             ,#######,   #######,   ,#######,      ##                                
            ,#'     '#,  ##    ##  ,#'     '#,    #''#        ,####,   ,####,        
            ##       ##  ##   ,#'  ##            #'  '#       #'       #'  '#        
            ##       ##  #######   ##           ,######,      #####,   #    #        
            '#,     ,#'  ##    ##  '#,     ,#' ,#      #,     #,   #   #,  ,#        
             '#######'   ##     ##  '#######'  #'      '#     '####' # '####'        



                #########################################################
                #                        -***-                          #
                #          Department of theory and spectroscopy        #
                #                                                       #
                #                      Frank Neese                      #
                #                                                       #
                #     Directorship, Architecture, Infrastructure        #
                #                    SHARK, DRIVERS                     #
                #        Core code/Algorithms in most modules           #
                #                                                       #
                #        Max Planck Institute fuer Kohlenforschung      #
                #                Kaiser Wilhelm Platz 1                 #
                #                 D-45470 Muelheim/Ruhr                 #
                #                      Germany                          #
                #                                                       #
                #                  All rights reserved                  #
                #                        -***-                          #
                #########################################################


                         Program Version 6.0.0  -   RELEASE  -


 With contributions from (in alphabetic order):
   Daniel Aravena         : Magnetic Suceptibility
   Michael Atanasov       : Ab Initio Ligand Field Theory (pilot matlab implementation)
   Alexander A. Auer      : GIAO ZORA, VPT2 properties, NMR spectrum
   Ute Becker             : All parallelization in ORCA, NUMFREQ, NUMCALC
   Giovanni Bistoni       : ED, misc. LED, open-shell LED, HFLD
   Martin Brehm           : Molecular dynamics
   Dmytro Bykov           : pre 5.0 version of the SCF Hessian
   Marcos Casanova-Páez   : Triplet and SCS-CIS(D). UHF-(DLPNO)-IP/EA/STEOM-CCSD. UHF-CVS-IP/STEOM-CCSD
   Vijay G. Chilkuri      : MRCI spin determinant printing, contributions to CSF-ICE
   Pauline Colinet        : FMM embedding
   Dipayan Datta          : RHF DLPNO-CCSD density
   Achintya Kumar Dutta   : EOM-CC, STEOM-CC
   Nicolas Foglia         : Exact transition moments, OPA infrastructure, MCD improvements
   Dmitry Ganyushin       : Spin-Orbit,Spin-Spin,Magnetic field MRCI
   Miquel Garcia          : C-PCM and meta-GGA Hessian, CCSD/C-PCM, Gaussian charge scheme
   Tiago L. C. Gouveia    : GS-ROHF, GS-ROCIS
   Yang Guo               : DLPNO-NEVPT2, F12-NEVPT2, CIM, IAO-localization
   Andreas Hansen         : Spin unrestricted coupled pair/coupled cluster methods
   Ingolf Harden          : AUTO-CI MPn and infrastructure 
   Benjamin Helmich-Paris : MC-RPA, TRAH-(SCF,CASSCF), AVAS, COSX integrals, SCF dyn. polar.
   Lee Huntington         : MR-EOM, pCC
   Robert Izsak           : Overlap fitted RIJCOSX, COSX-SCS-MP3, EOM
   Riya Kayal             : Wick's Theorem for AUTO-CI, AUTO-CI UHF-CCSDT
   Emily Kempfer          : AUTO-CI, RHF CISDT and CCSDT
   Christian Kollmar      : KDIIS, OOCD, Brueckner-CCSD(T), CCSD density, CASPT2, CASPT2-K, improved NEVPT2
   Axel Koslowski         : Symmetry handling
   Simone Kossmann        : Meta GGA functionals, TD-DFT gradient, OOMP2, (MP2 Hessian; deprecated post 5.0)
   Lucas Lang             : DCDCAS
   Marvin Lechner         : AUTO-CI (C++ implementation), FIC-MRCC
   Spencer Leger          : CASSCF response
   Dagmar Lenk            : GEPOL surface, SMD, ORCA-2-JSON
   Dimitrios Liakos       : Extrapolation schemes; Compound Job, initial MDCI parallelization
   Dimitrios Manganas     : Further ROCIS development; embedding schemes. LFT, Crystal Embedding
   Dimitrios Pantazis     : SARC Basis sets
   Anastasios Papadopoulos: AUTO-CI, single reference methods and gradients
   Taras Petrenko         : pre 6.0 DFT Hessian and TD-DFT gradient, (ASA, deprecated), ECA, 1-Electron XAS/XES, NRVS
   Peter Pinski           : DLPNO-MP2, DLPNO-MP2 Gradient
   Christoph Reimann      : Effective Core Potentials
   Marius Retegan         : Local ZFS, SOC
   Christoph Riplinger    : Optimizer, TS searches, QM/MM, DLPNO-CCSD(T), (RO)-DLPNO pert. Triples
   Michael Roemelt        : Original ROCIS implementation
   Masaaki Saitow         : Open-shell DLPNO-CCSD energy and density
   Barbara Sandhoefer     : DKH picture change effects
   Kantharuban Sivalingam : CASSCF convergence/infrastructure, NEVPT2 and variants, FIC-MRCI
   Bernardo de Souza      : ESD, SOC TD-DFT
   Georgi Stoychev        : AutoAux, RI-MP2 NMR, DLPNO-MP2 response, X2C
   Van Anh Tran           : RI-MP2 g-tensors
   Willem Van den Heuvel  : Paramagnetic NMR
   Zikuan Wang            : NOTCH, Electric field optimization 
   Frank Wennmohs         : Technical directorship and infrastructure
   Hang Xu                : AUTO-CI-Response properties 


 We gratefully acknowledge several colleagues who have allowed us to
 interface, adapt or use parts of their codes:
   Stefan Grimme, W. Hujo, H. Kruse, P. Pracht,  : VdW corrections, initial TS optimization,
                  C. Bannwarth, S. Ehlert,         DFT functionals, gCP, sTDA/sTD-DF
                  L. Wittmann, M. Mueller
   Ed Valeev, F. Pavosevic, A. Kumar             : LibInt (2-el integral package), F12 methods
   Garnet Chan, S. Sharma, J. Yang, R. Olivares  : DMRG
   Ulf Ekstrom                                   : XCFun DFT Library
   Mihaly Kallay                                 : mrcc  (arbitrary order and MRCC methods)
   Frank Weinhold                                : gennbo (NPA and NBO analysis)
   Simon Mueller                                 : openCOSMO-RS
   Christopher J. Cramer and Donald G. Truhlar   : smd solvation model
   Lars Goerigk                                  : TD-DFT with DH, B97 family of functionals
   V. Asgeirsson, H. Jonsson                     : NEB implementation
   FAccTs GmbH                                   : IRC, NEB, NEB-TS, DLPNO-Multilevel, CI-OPT
                                                   MM, QMMM, 2- and 3-layer-ONIOM, Crystal-QMMM,
                                                   LR-CPCM, SF, NACMEs, symmetry and pop. for TD-DFT,
                                                   nearIR, NL-DFT gradient (VV10), updates on ESD,
                                                   ML-optimized integration grids, MBIS, APM,
                                                   GOAT, DOCKER, SOLVATOR, interface openCOSMO-RS
   S Lehtola, MJT Oliveira, MAL Marques          : LibXC Library
   Liviu Ungur et al                             : ANISO software


 Your calculation uses the libint2 library for the computation of 2-el integrals
 For citations please refer to: http://libint.valeyev.net

 Your ORCA version has been built with support for libXC version: 6.2.2
 For citations please refer to: https://libxc.gitlab.io

 This ORCA versions uses:
   CBLAS   interface :  Fast vector & matrix operations
   LAPACKE interface :  Fast linear algebra routines
   SCALAPACK package :  Parallel linear algebra routines
   Shared memory     :  Shared parallel matrices
   BLAS/LAPACK       :  OpenBLAS 0.3.27  USE64BITINT DYNAMIC_ARCH NO_AFFINITY SkylakeX SINGLE_THREADED
        Core in use  :  SkylakeX
   Copyright (c) 2011-2014, The OpenBLAS Project


NOTE: MaxCore=3000 MB was set to SCF,MP2,MDCI,CIPSI,MRCI and CIS
      => If you want to overwrite this, your respective input block should be placed after the MaxCore statement
Your calculation utilizes the atom-pairwise dispersion correction
with the Becke-Johnson damping scheme (D3BJ)


Warning: RI is on but no J-basis has been assigned. Assigning Def2/J (nothing to worry about!)
================================================================================

----- Orbital basis set information -----
Your calculation utilizes the basis: def2-SV(P)
   F. Weigend and R. Ahlrichs, Phys. Chem. Chem. Phys. 7, 3297 (2005).

----- AuxJ basis set information -----
Your calculation utilizes the auxiliary basis: def2/J
   F. Weigend, Phys. Chem. Chem. Phys. 8, 1057 (2006).

================================================================================
                                        WARNINGS
                       Please study these warnings very carefully!
================================================================================


WARNING: your system is open-shell and RHF/RKS was chosen
  ===> : WILL SWITCH to UHF/UKS


WARNING: Geometry Optimization
  ===> : Switching off AutoStart
         For restart on a previous wavefunction, please use MOREAD

================================================================================
                                       INPUT FILE
================================================================================
NAME = cs_rporg_102_ox_opt_01.inp
|  1> !PBE0 def2-SV(p) Opt Freq d3 TightSCF SlowConv RIJCOSX defgrid2
|  2>  
|  3> %pal
|  4> nprocs 4
|  5> end
|  6>  
|  7> %scf
|  8> MaxIter 1500
|  9> end
| 10>  
| 11> %maxcore 3000
| 12>  
| 13> 
| 14>  
| 15> * xyz 1 2
| 16> C     1.2565320   -1.3881458   -0.0000046 
| 17> C     2.4296140   -0.6861813   -0.0000152 
| 18> C     2.4037950    0.7203555   -0.0000178 
| 19> C     1.2133389    1.3901671   -0.0000094 
| 20> C    -0.0108880    0.6988001    0.0000002 
| 21> N    -1.1890609    1.2796571    0.0000067 
| 22> C    -2.3418830    0.7216198    0.0000211 
| 23> C    -2.4244743   -0.6912103    0.0000263 
| 24> C    -1.2506812   -1.3897656    0.0000219 
| 25> C     0.0042775   -0.7533374    0.0000075 
| 26> H    -1.2733837   -2.4728656    0.0000331 
| 27> H    -3.3947525   -1.1610529    0.0000342 
| 28> H    -3.2265654    1.3435990    0.0000270 
| 29> H     1.1759861    2.4700754   -0.0000049 
| 30> H     3.3350222    1.2654815   -0.0000265 
| 31> H     3.3774576   -1.2001163   -0.0000228 
| 32> H     1.2715231   -2.4698305   -0.0000114
| 33> *
| 34> 
| 35>                          ****END OF INPUT****
================================================================================

                       *****************************
                       * Geometry Optimization Run *
                       *****************************

Geometry optimization settings:
Update method            Update   .... BFGS
Choice of coordinates    CoordSys .... (2022) Redundant Internals
Initial Hessian          InHess   .... Almloef's Model
Max. no of cycles        MaxIter  .... 51

Convergence Tolerances:
Energy Change            TolE     ....  5.0000e-06 Eh
Max. Gradient            TolMAXG  ....  3.0000e-04 Eh/bohr
RMS Gradient             TolRMSG  ....  1.0000e-04 Eh/bohr
Max. Displacement        TolMAXD  ....  4.0000e-03 bohr
RMS Displacement         TolRMSD  ....  2.0000e-03 bohr
Strict Convergence                .... False

------------------------------------------------------------------------------
                        ORCA OPTIMIZATION COORDINATE SETUP
------------------------------------------------------------------------------

The optimization will be done in redundant internal coordinates (2022)
Making redundant internal coordinates   ...  (2022 redundants) done
Evaluating the initial hessian          ...  (Almloef) done
Evaluating the coordinates              ...  done
Calculating the B-matrix                .... done
Calculating the G-matrix                .... done
Diagonalizing the G-matrix              .... done
The first mode is                       ....   41
The number of degrees of freedom        ....   45

    -----------------------------------------------------------------
                    Redundant Internal Coordinates


    -----------------------------------------------------------------
         Definition                    Initial Value    Approx d2E/dq
    -----------------------------------------------------------------
      1. B(C   1,C   0)                  1.3671         0.679712   
      2. B(C   2,C   1)                  1.4068         0.587458   
      3. B(C   3,C   2)                  1.3660         0.682497   
      4. B(C   4,C   3)                  1.4060         0.589220   
      5. B(N   5,C   4)                  1.3136         0.740973   
      6. B(C   6,N   5)                  1.2808         0.835843   
      7. B(C   7,C   6)                  1.4152         0.569464   
      8. B(C   8,C   7)                  1.3659         0.682555   
      9. B(C   9,C   8)                  1.4071         0.586730   
     10. B(C   9,C   4)                  1.4522         0.497137   
     11. B(C   9,C   0)                  1.4040         0.593547   
     12. B(H  10,C   8)                  1.0833         0.369022   
     13. B(H  11,C   7)                  1.0781         0.376260   
     14. B(H  12,C   6)                  1.0814         0.371598   
     15. B(H  13,C   3)                  1.0806         0.372815   
     16. B(H  14,C   2)                  1.0790         0.374882   
     17. B(H  15,C   1)                  1.0782         0.376039   
     18. B(H  16,C   0)                  1.0818         0.371128   
     19. A(C   9,C   0,H  16)          117.6759         0.352108   
     20. A(C   1,C   0,C   9)          122.2220         0.437863   
     21. A(C   1,C   0,H  16)          120.1020         0.360305   
     22. A(C   2,C   1,H  15)          119.5188         0.352276   
     23. A(C   0,C   1,C   2)          119.8444         0.437049   
     24. A(C   0,C   1,H  15)          120.6368         0.361113   
     25. A(C   3,C   2,H  14)          120.2916         0.361175   
     26. A(C   1,C   2,H  14)          119.2924         0.352093   
     27. A(C   1,C   2,C   3)          120.4160         0.437372   
     28. A(C   2,C   3,C   4)          121.1806         0.437608   
     29. A(C   2,C   3,H  13)          121.3453         0.360835   
     30. A(C   4,C   3,H  13)          117.4740         0.351942   
     31. A(N   5,C   4,C   9)          116.8423         0.427942   
     32. A(C   3,C   4,C   9)          118.8567         0.413480   
     33. A(C   3,C   4,N   5)          124.3010         0.441233   
     34. A(C   4,N   5,C   6)          127.9262         0.467103   
     35. A(N   5,C   6,C   7)          119.1754         0.448186   
     36. A(C   7,C   6,H  12)          121.7637         0.349727   
     37. A(N   5,C   6,H  12)          119.0609         0.371045   
     38. A(C   6,C   7,C   8)          117.4124         0.434934   
     39. A(C   8,C   7,H  11)          123.4041         0.361407   
     40. A(C   6,C   7,H  11)          119.1835         0.350464   
     41. A(C   7,C   8,H  10)          119.5572         0.360212   
     42. A(C   7,C   8,C   9)          122.3510         0.437281   
     43. A(C   9,C   8,H  10)          118.0918         0.351083   
     44. A(C   4,C   9,C   8)          116.2926         0.413169   
     45. A(C   0,C   9,C   8)          126.2271         0.426439   
     46. A(C   0,C   9,C   4)          117.4803         0.414018   
     47. D(C   2,C   1,C   0,H  16)    179.9995         0.032383   
     48. D(H  15,C   1,C   0,H  16)     -0.0005         0.032383   
     49. D(C   2,C   1,C   0,C   9)     -0.0002         0.032383   
     50. D(H  15,C   1,C   0,C   9)    179.9999         0.032383   
     51. D(H  14,C   2,C   1,C   0)   -180.0000         0.023739   
     52. D(C   3,C   2,C   1,H  15)    179.9999         0.023739   
     53. D(H  14,C   2,C   1,H  15)     -0.0001         0.023739   
     54. D(C   3,C   2,C   1,C   0)      0.0000         0.023739   
     55. D(H  13,C   3,C   2,H  14)     -0.0004         0.032670   
     56. D(H  13,C   3,C   2,C   1)    179.9996         0.032670   
     57. D(C   4,C   3,C   2,C   1)     -0.0001         0.032670   
     58. D(C   4,C   3,C   2,H  14)    179.9999         0.032670   
     59. D(C   9,C   4,C   3,C   2)      0.0003         0.023889   
     60. D(N   5,C   4,C   3,H  13)      0.0004         0.023889   
     61. D(N   5,C   4,C   3,C   2)   -179.9999         0.023889   
     62. D(C   9,C   4,C   3,H  13)   -179.9994         0.023889   
     63. D(C   6,N   5,C   4,C   9)      0.0001         0.041591   
     64. D(C   6,N   5,C   4,C   3)   -179.9997         0.041591   
     65. D(H  12,C   6,N   5,C   4)    179.9999         0.054427   
     66. D(C   7,C   6,N   5,C   4)     -0.0003         0.054427   
     67. D(H  11,C   7,C   6,H  12)      0.0001         0.022244   
     68. D(H  11,C   7,C   6,N   5)   -179.9997         0.022244   
     69. D(C   8,C   7,C   6,H  12)   -179.9998         0.022244   
     70. D(C   8,C   7,C   6,N   5)      0.0003         0.022244   
     71. D(H  10,C   8,C   7,H  11)     -0.0004         0.032677   
     72. D(H  10,C   8,C   7,C   6)    179.9995         0.032677   
     73. D(C   9,C   8,C   7,H  11)    179.9998         0.032677   
     74. D(C   9,C   8,C   7,C   6)     -0.0002         0.032677   
     75. D(C   8,C   9,C   0,C   1)   -179.9998         0.024259   
     76. D(C   4,C   9,C   0,H  16)   -179.9993         0.024259   
     77. D(C   4,C   9,C   0,C   1)      0.0004         0.024259   
     78. D(C   4,C   9,C   8,H  10)   -179.9997         0.023677   
     79. D(C   0,C   9,C   8,H  10)      0.0005         0.023677   
     80. D(C   0,C   9,C   8,C   7)   -179.9997         0.023677   
     81. D(C   8,C   9,C   4,N   5)     -0.0000         0.016832   
     82. D(C   8,C   9,C   4,C   3)    179.9998         0.016832   
     83. D(C   0,C   9,C   4,N   5)    179.9998         0.016832   
     84. D(C   4,C   9,C   8,C   7)      0.0001         0.023677   
     85. D(C   0,C   9,C   4,C   3)     -0.0004         0.016832   
     86. D(C   8,C   9,C   0,H  16)      0.0005         0.024259   
    -----------------------------------------------------------------

Number of atoms                         .... 17
Number of degrees of freedom            .... 86


         *************************************************************
         *                GEOMETRY OPTIMIZATION CYCLE   1            *
         *************************************************************
---------------------------------
CARTESIAN COORDINATES (ANGSTROEM)
---------------------------------
  C      1.256532   -1.388146   -0.000005
  C      2.429614   -0.686181   -0.000015
  C      2.403795    0.720356   -0.000018
  C      1.213339    1.390167   -0.000009
  C     -0.010888    0.698800    0.000000
  N     -1.189061    1.279657    0.000007
  C     -2.341883    0.721620    0.000021
  C     -2.424474   -0.691210    0.000026
  C     -1.250681   -1.389766    0.000022
  C      0.004278   -0.753337    0.000008
  H     -1.273384   -2.472866    0.000033
  H     -3.394753   -1.161053    0.000034
  H     -3.226565    1.343599    0.000027
  H      1.175986    2.470075   -0.000005
  H      3.335022    1.265481   -0.000026
  H      3.377458   -1.200116   -0.000023
  H      1.271523   -2.469831   -0.000011

----------------------------
CARTESIAN COORDINATES (A.U.)
----------------------------
  NO LB      ZA    FRAG     MASS         X           Y           Z
   0 C     6.0000    0    12.011    2.374501   -2.623215   -0.000009
   1 C     6.0000    0    12.011    4.591305   -1.296695   -0.000029
   2 C     6.0000    0    12.011    4.542514    1.361275   -0.000034
   3 C     6.0000    0    12.011    2.292878    2.627035   -0.000018
   4 C     6.0000    0    12.011   -0.020575    1.320541    0.000000
   5 N     7.0000    0    14.007   -2.246999    2.418201    0.000013
   6 C     6.0000    0    12.011   -4.425518    1.363664    0.000040
   7 C     6.0000    0    12.011   -4.581592   -1.306198    0.000050
   8 C     6.0000    0    12.011   -2.363445   -2.626276    0.000041
   9 C     6.0000    0    12.011    0.008083   -1.423601    0.000014
  10 H     1.0000    0     1.008   -2.406346   -4.673039    0.000063
  11 H     1.0000    0     1.008   -6.415153   -2.194072    0.000065
  12 H     1.0000    0     1.008   -6.097325    2.539034    0.000051
  13 H     1.0000    0     1.008    2.222292    4.667766   -0.000009
  14 H     1.0000    0     1.008    6.302279    2.391413   -0.000050
  15 H     1.0000    0     1.008    6.382470   -2.267891   -0.000043
  16 H     1.0000    0     1.008    2.402830   -4.667303   -0.000022

--------------------------------
INTERNAL COORDINATES (ANGSTROEM)
--------------------------------
 C      0   0   0     0.000000000000     0.00000000     0.00000000
 C      1   0   0     1.367068227301     0.00000000     0.00000000
 C      2   1   0     1.406773752429   119.84439466     0.00000000
 C      3   2   1     1.365955089156   120.41596380     0.00000000
 C      4   3   2     1.405958687681   121.18061232     0.00000000
 N      5   4   3     1.313577647795   124.30095594   180.00009877
 C      6   5   4     1.280782738269   127.92615060   180.00031557
 C      7   6   5     1.415242104493   119.17544960     0.00000000
 C      8   7   6     1.365931824355   117.41240296     0.00000000
 C      1   2   3     1.403966893352   122.22204943     0.00000000
 H      9   8   7     1.083337903718   119.55721325   179.99954724
 H      8   7   6     1.078050023994   119.18347935   180.00025691
 H      7   6   5     1.081443976421   119.06086680   179.99985784
 H      4   3   2     1.080554102346   121.34534181   179.99960558
 H      3   2   1     1.079048865423   119.29241792   180.00001886
 H      2   1   3     1.078209939828   120.63676469   180.00007346
 H      1   2   3     1.081788576081   120.10200969   179.99945895

---------------------------
INTERNAL COORDINATES (A.U.)
---------------------------
 C      0   0   0     0.000000000000     0.00000000     0.00000000
 C      1   0   0     2.583384555985     0.00000000     0.00000000
 C      2   1   0     2.658417124479   119.84439466     0.00000000
 C      3   2   1     2.581281029742   120.41596380     0.00000000
 C      4   3   2     2.656876875324   121.18061232     0.00000000
 N      5   4   3     2.482302009972   124.30095594   180.00009877
 C      6   5   4     2.420328612382   127.92615060   180.00031557
 C      7   6   5     2.674419990685   119.17544960     0.00000000
 C      8   7   6     2.581237065638   117.41240296     0.00000000
 C      1   2   3     2.653112929527   122.22204943     0.00000000
 H      9   8   7     2.047211948523   119.55721325   179.99954724
 H      8   7   6     2.037219304015   119.18347935   180.00025691
 H      7   6   5     2.043632944614   119.06086680   179.99985784
 H      4   3   2     2.041951326319   121.34534181   179.99960558
 H      3   2   1     2.039106840769   119.29241792   180.00001886
 H      2   1   3     2.037521501146   120.63676469   180.00007346
 H      1   2   3     2.044284143598   120.10200969   179.99945895

---------------------
BASIS SET INFORMATION
---------------------
There are 3 groups of distinct atoms

 Group   1 Type C   : 7s4p1d contracted to 3s2p1d pattern {511/31/1}
 Group   2 Type N   : 7s4p1d contracted to 3s2p1d pattern {511/31/1}
 Group   3 Type H   : 4s contracted to 2s pattern {31}

Atom   0C    basis set group =>   1
Atom   1C    basis set group =>   1
Atom   2C    basis set group =>   1
Atom   3C    basis set group =>   1
Atom   4C    basis set group =>   1
Atom   5N    basis set group =>   2
Atom   6C    basis set group =>   1
Atom   7C    basis set group =>   1
Atom   8C    basis set group =>   1
Atom   9C    basis set group =>   1
Atom  10H    basis set group =>   3
Atom  11H    basis set group =>   3
Atom  12H    basis set group =>   3
Atom  13H    basis set group =>   3
Atom  14H    basis set group =>   3
Atom  15H    basis set group =>   3
Atom  16H    basis set group =>   3
---------------------------------
AUXILIARY/J BASIS SET INFORMATION
---------------------------------
There are 3 groups of distinct atoms

 Group   1 Type C   : 12s5p4d2f1g contracted to 6s4p3d1f1g pattern {711111/2111/211/2/1}
 Group   2 Type N   : 12s5p4d2f1g contracted to 6s4p3d1f1g pattern {711111/2111/211/2/1}
 Group   3 Type H   : 5s2p1d contracted to 3s1p1d pattern {311/2/1}

Atom   0C    basis set group =>   1
Atom   1C    basis set group =>   1
Atom   2C    basis set group =>   1
Atom   3C    basis set group =>   1
Atom   4C    basis set group =>   1
Atom   5N    basis set group =>   2
Atom   6C    basis set group =>   1
Atom   7C    basis set group =>   1
Atom   8C    basis set group =>   1
Atom   9C    basis set group =>   1
Atom  10H    basis set group =>   3
Atom  11H    basis set group =>   3
Atom  12H    basis set group =>   3
Atom  13H    basis set group =>   3
Atom  14H    basis set group =>   3
Atom  15H    basis set group =>   3
Atom  16H    basis set group =>   3


           ************************************************************
           *        Program running with 4 parallel MPI-processes     *
           *              working on a common directory               *
           ************************************************************
------------------------------------------------------------------------------
                             ORCA STARTUP CALCULATIONS
                           -- RI-GTO INTEGRALS CHOSEN --
------------------------------------------------------------------------------
------------------------------------------------------------------------------
                   ___                                                        
                  /   \      - P O W E R E D   B Y -                         
                 /     \                                                     
                 |  |  |   _    _      __       _____    __    __             
                 |  |  |  | |  | |    /  \     |  _  \  |  |  /  |          
                  \  \/   | |  | |   /    \    | | | |  |  | /  /          
                 / \  \   | |__| |  /  /\  \   | |_| |  |  |/  /          
                |  |  |   |  __  | /  /__\  \  |    /   |      \           
                |  |  |   | |  | | |   __   |  |    \   |  |\   \          
                \     /   | |  | | |  |  |  |  | |\  \  |  | \   \       
                 \___/    |_|  |_| |__|  |__|  |_| \__\ |__|  \__/        
                                                                              
                      - O R C A' S   B I G   F R I E N D -                    
                                      &                                       
                       - I N T E G R A L  F E E D E R -                       
                                                                              
 v1 FN, 2020, v2 2021, v3 2022-2024                                           
------------------------------------------------------------------------------


----------------------
SHARK INTEGRAL PACKAGE
----------------------

Number of atoms                             ...     17
Number of basis functions                   ...    154
Number of shells                            ...     74
Maximum angular momentum                    ...      2
Integral batch strategy                     ... SHARK/LIBINT Hybrid
RI-J (if used) integral strategy            ... SPLIT-RIJ (Revised 2003 algorithm where possible)
Printlevel                                  ...      1
Contraction scheme used                     ... SEGMENTED contraction
Prescreening option                         ... SCHWARTZ
   Thresh                                   ... 2.500e-11
   Tcut                                     ... 2.500e-12
   Tpresel                                  ... 2.500e-12 
Coulomb Range Separation                    ... NOT USED
Exchange Range Separation                   ... NOT USED
Multipole approximations                    ... NOT USED
Finite Nucleus Model                        ... NOT USED
CABS basis                                  ... NOT available
Auxiliary Coulomb fitting basis             ... AVAILABLE
   # of basis functions in Aux-J            ...    567
   # of shells in Aux-J                     ...    185
   Maximum angular momentum in Aux-J        ...      4
Auxiliary J/K fitting basis                 ... NOT available
Auxiliary Correlation fitting basis         ... NOT available
Auxiliary 'external' fitting basis          ... NOT available

Checking pre-screening integrals            ... done (  0.1 sec) Dimension = 74
Check shell pair data                       ... done (  0.0 sec)
Shell pair information
Shell pair cut-off parameter TPreSel        ...   2.5e-12
Total number of shell pairs                 ...      2775
Shell pairs after pre-screening             ...      2634
Total number of primitive shell pairs       ...     11177
Primitive shell pairs kept                  ...      7584
          la=0 lb=0:    914 shell pairs
          la=1 lb=0:    854 shell pairs
          la=1 lb=1:    210 shell pairs
          la=2 lb=0:    403 shell pairs
          la=2 lb=1:    200 shell pairs
          la=2 lb=2:     53 shell pairs

Calculating one electron integrals          ... done (  0.0 sec)
Calculating RI/J V-Matrix + Cholesky decomp.... done (  0.1 sec)
Calculating Nuclear repulsion               ... done (  0.0 sec) ENN=    465.173424589205 Eh

Diagonalization of the overlap matrix:
Smallest eigenvalue                        ... 2.603e-04
Time for diagonalization                   ...    0.002 sec
Threshold for overlap eigenvalues          ... 1.000e-07
Number of eigenvalues below threshold      ... 0
Time for construction of square roots      ...    0.013 sec
Total time needed                          ...    0.066 sec

-------------------
DFT GRID GENERATION
-------------------

General Integration Accuracy     IntAcc      ... 4.388
Radial Grid Type                 RadialGrid  ... OptM3 with GC (2021)
Angular Grid (max. ang.)         AngularGrid ... 4 (Lebedev-302)
Angular grid pruning method      GridPruning ... 4 (adaptive)
Weight generation scheme         WeightScheme... mBecke (2022)
Basis function cutoff            BFCut       ... 1.0000e-11
Integration weight cutoff        WCut        ... 1.0000e-14
Partially contracted basis set               ... off
Rotationally invariant grid construction     ... off
Angular grids for H and He will be reduced by one unit

Total number of grid points                  ...    82444
Total number of batches                      ...     1296
Average number of points per batch           ...       63
Average number of grid points per atom       ...     4850

--------------------
COSX GRID GENERATION
--------------------

GRIDX 1
-------
General Integration Accuracy     IntAcc      ... 3.816
Radial Grid Type                 RadialGrid  ... OptM3 with GC (2021)
Angular Grid (max. ang.)         AngularGrid ... 1 (Lebedev-50)
Angular grid pruning method      GridPruning ... 4 (adaptive)
Weight generation scheme         WeightScheme... mBecke (2022)
Basis function cutoff            BFCut       ... 1.0000e-11
Integration weight cutoff        WCut        ... 1.0000e-14
Partially contracted basis set               ... on
Rotationally invariant grid construction     ... off
Angular grids for H and He will be reduced by one unit

Total number of grid points                  ...    10544
Total number of batches                      ...       90
Average number of points per batch           ...      117
Average number of grid points per atom       ...      620
UseSFitting                                  ... on

GRIDX 2
-------
General Integration Accuracy     IntAcc      ... 4.020
Radial Grid Type                 RadialGrid  ... OptM3 with GC (2021)
Angular Grid (max. ang.)         AngularGrid ... 2 (Lebedev-110)
Angular grid pruning method      GridPruning ... 4 (adaptive)
Weight generation scheme         WeightScheme... mBecke (2022)
Basis function cutoff            BFCut       ... 1.0000e-11
Integration weight cutoff        WCut        ... 1.0000e-14
Partially contracted basis set               ... on
Rotationally invariant grid construction     ... off
Angular grids for H and He will be reduced by one unit

Total number of grid points                  ...    23173
Total number of batches                      ...      190
Average number of points per batch           ...      121
Average number of grid points per atom       ...     1363
UseSFitting                                  ... on

GRIDX 3
-------
General Integration Accuracy     IntAcc      ... 4.338
Radial Grid Type                 RadialGrid  ... OptM3 with GC (2021)
Angular Grid (max. ang.)         AngularGrid ... 3 (Lebedev-194)
Angular grid pruning method      GridPruning ... 4 (adaptive)
Weight generation scheme         WeightScheme... mBecke (2022)
Basis function cutoff            BFCut       ... 1.0000e-11
Integration weight cutoff        WCut        ... 1.0000e-14
Partially contracted basis set               ... on
Rotationally invariant grid construction     ... off
Angular grids for H and He will be reduced by one unit

Total number of grid points                  ...    51000
Total number of batches                      ...      407
Average number of points per batch           ...      125
Average number of grid points per atom       ...     3000
UseSFitting                                  ... on
Initializing property integral containers    ... done (  0.1 sec)

SHARK setup successfully completed in   2.3 seconds

Maximum memory used throughout the entire STARTUP-calculation: 22.7 MB


           ************************************************************
           *        Program running with 4 parallel MPI-processes     *
           *              working on a common directory               *
           ************************************************************
-------------------------------------------------------------------------------
                                 ORCA GUESS
                   Start orbitals & Density for SCF / CASSCF
-------------------------------------------------------------------------------

------------
SCF SETTINGS
------------
Hamiltonian:
 Density Functional     Method          .... DFT(GTOs)
 Exchange Functional    Exchange        .... PBE
   PBE kappa parameter   XKappa         ....  0.804000
   PBE mue parameter    XMuePBE         ....  0.219520
 Correlation Functional Correlation     .... PBE
   PBE beta parameter  CBetaPBE         ....  0.066725
 LDA part of GGA corr.  LDAOpt          .... PW91-LDA
 Gradients option       PostSCFGGA      .... off
 Hybrid DFT is turned on
   Fraction HF Exchange ScalHFX         ....  0.250000
   Scaling of DF-GGA-X  ScalDFX         ....  0.750000
   Scaling of DF-GGA-C  ScalDFC         ....  1.000000
   Scaling of DF-LDA-C  ScalLDAC        ....  1.000000
   Perturbative correction              ....  0.000000
   NL short-range parameter             ....  6.900000
 RI-approximation to the Coulomb term is turned on
   Number of AuxJ basis functions       .... 567
   RIJ-COSX (HFX calculated with COS-X)).... on


General Settings:
 Integral files         IntName         .... cs_rporg_102_ox_opt_01
 Hartree-Fock type      HFTyp           .... UHF
 Total Charge           Charge          ....    1
 Multiplicity           Mult            ....    2
 Number of Electrons    NEL             ....   67
 Basis Dimension        Dim             ....  154
 Nuclear Repulsion      ENuc            ....    465.1734245892 Eh

Convergence Acceleration:
 AO-DIIS                CNVDIIS         .... on
   Start iteration      DIISMaxIt       ....     0
   Startup error        DIISStart       ....  0.200000
   # of expansion vecs  DIISMaxEq       ....     5
   Bias factor          DIISBfac        ....   1.050
   Max. coefficient     DIISMaxC        ....  10.000
 MO-DIIS                CNVKDIIS        .... off
 Trust-Rad. Augm. Hess. CNVTRAH         .... auto
   Auto Start mean grad. ratio tolernc. ....  1.125000
   Auto Start start iteration           ....    50
   Auto Start num. interpolation iter.  ....    10
   Max. Number of Micro iterations      ....    24
   Max. Number of Macro iterations      .... Maxiter - #DIIS iter
   Number of Davidson start vectors     ....     2
   Converg. threshold    (grad. norm)   ....   1.000e-05
   Grad. Scal. Fac. for Micro threshold ....   0.100
   Minimum threshold for Micro iter.    ....   1.000e-02
   NR start threshold (gradient norm)   ....   1.000e-04
   Initial trust radius                 ....   0.400
   Minimum AH scaling param. (alpha)    ....   1.000
   Maximum AH scaling param. (alpha)    .... 1000.000
   Quad. conv. algorithm                .... NR
   White noise on init. David. guess    .... on
   Maximum white noise                  ....   0.010
   Pseudo random numbers                .... off
   Inactive MOs                         .... canonical
   Orbital update algorithm             .... Taylor
   Preconditioner                       .... Diag
   Full preconditioner red. dimension   ....   250
 SOSCF                  CNVSOSCF        .... on
   Start iteration      SOSCFMaxIt      ....   150
   Startup grad/error   SOSCFStart      ....  0.001000
   Hessian update       SOSCFHessUp     .... L-BFGS
 Level Shifting         CNVShift        .... on
   Level shift para.    LevelShift      ....    0.2500
   Turn off err/grad.   ShiftErr        ....    0.0000
 Zerner damping         CNVZerner       .... off
 Static damping         CNVDamp         .... on
   Fraction old density DampFac         ....    0.8500
   Max. Damping (<1)    DampMax         ....    0.9800
   Min. Damping (>=0)   DampMin         ....    0.0000
   Turn off err/grad.   DampErr         ....    0.0300

SCF Procedure:
 Maximum # iterations   MaxIter         ....  1500
 SCF integral mode      SCFMode         .... Direct
   Integral package                     .... SHARK and LIBINT hybrid scheme
 Reset frequency        DirectResetFreq ....    20
 Integral Threshold     Thresh          ....  2.500e-11 Eh
 Primitive CutOff       TCut            ....  2.500e-12 Eh

Convergence Tolerance:
 Convergence Check Mode ConvCheckMode   .... Total+1el-Energy
 Convergence forced     ConvForced      .... 0
 Energy Change          TolE            ....  1.000e-08 Eh
 1-El. energy change                    ....  1.000e-05 Eh
 Orbital Gradient       TolG            ....  1.000e-05
 Orbital Rotation angle TolX            ....  1.000e-05
 DIIS Error             TolErr          ....  5.000e-07

------------------------------
INITIAL GUESS: MODEL POTENTIAL
------------------------------
Loading Hartree-Fock densities                     ... done
Calculating cut-offs                               ... done
Initializing the effective Hamiltonian             ... done
Setting up the integral package (SHARK)            ... done
Starting the Coulomb interaction                   ... done (   0.2 sec)
Making the grid                                    ... done (   0.3 sec)
Mapping shells                                     ... done
Starting the XC term evaluation                    ... done (   0.1 sec)
  promolecular density results
     # of electrons  =     67.990100422
     EX              =    -54.666970995
     EC              =     -2.265950981
     EX+EC           =    -56.932921976
Transforming the Hamiltonian                       ... done (   0.0 sec)
Diagonalizing the Hamiltonian                      ... done (   0.0 sec)
Back transforming the eigenvectors                 ... done (   0.1 sec)
Now organizing SCF variables                       ... done
                      ------------------
                      INITIAL GUESS DONE (   1.2 sec)
                      ------------------
             **** ENERGY FILE WAS UPDATED (cs_rporg_102_ox_opt_01.en.tmp) ****
Finished Guess after   3.0 sec
Maximum memory used throughout the entire GUESS-calculation: 12.4 MB


           ************************************************************
           *        Program running with 4 parallel MPI-processes     *
           *              working on a common directory               *
           ************************************************************

-------------------------------------------------------------------------------------------
                                      ORCA LEAN-SCF
                              memory conserving SCF solver
-------------------------------------------------------------------------------------------

----------------------------------------D-I-I-S--------------------------------------------
Iteration    Energy (Eh)           Delta-E    RMSDP     MaxDP     DIISErr   Damp  Time(sec)
-------------------------------------------------------------------------------------------
               ***  Starting incremental Fock matrix formation  ***
    1    -400.7299062620064660     0.00e+00  8.10e-04  1.58e-02  7.66e-02  0.850   6.9
Warning: op=1 Small HOMO/LUMO gap (  -0.002) - skipping pre-diagonalization
         Will do a full diagonalization
    2    -400.7527710569335113    -2.29e-02  7.89e-04  1.45e-02  5.79e-02  0.850   4.8
                               ***Turning on AO-DIIS***
    3    -400.7688596799983998    -1.61e-02  5.47e-04  7.89e-03  4.03e-02  0.850   4.3
    4    -400.7798810188255629    -1.10e-02  4.29e-04  5.75e-03  3.27e-02  0.850   4.4
    5    -400.7881028715875118    -8.22e-03  3.53e-04  5.08e-03  2.80e-02  0.850   4.7
    6    -400.7946686296339749    -6.57e-03  1.98e-03  2.95e-02  2.41e-02  0.000   4.2
    7    -400.8280693081982236    -3.34e-02  9.30e-05  1.90e-03  1.37e-03  0.000   4.2
    8    -400.8281503009748121    -8.10e-05  4.48e-05  1.01e-03  1.19e-03  0.000   4.2
                              *** Initializing SOSCF ***
---------------------------------------S-O-S-C-F--------------------------------------
Iteration    Energy (Eh)           Delta-E    RMSDP     MaxDP     MaxGrad    Time(sec)
--------------------------------------------------------------------------------------
    9    -400.8281871210214149    -3.68e-05  3.91e-05  1.16e-03  6.98e-04     3.8
               *** Restarting incremental Fock matrix formation ***
   10    -400.8282177016791366    -3.06e-05  4.01e-05  9.53e-04  9.69e-04     3.6
   11    -400.8282389468897691    -2.12e-05  1.50e-04  3.25e-03  7.66e-04     3.3
   12    -400.8282669554550921    -2.80e-05  4.26e-05  9.71e-04  6.53e-04     2.8
   13    -400.8282779111623313    -1.10e-05  3.45e-05  1.02e-03  4.72e-04     2.9
   14    -400.8282842341483274    -6.32e-06  3.76e-05  1.09e-03  2.91e-04     2.9
   15    -400.8282886352137666    -4.40e-06  2.58e-05  7.22e-04  9.27e-05     3.4
   16    -400.8282892115252025    -5.76e-07  4.07e-06  8.84e-05  6.59e-05     3.4
   17    -400.8282893707533958    -1.59e-07  3.36e-06  7.89e-05  3.09e-05     3.2
   18    -400.8282893995103677    -2.88e-08  1.24e-06  3.17e-05  1.78e-05     3.1
   19    -400.8282894139094878    -1.44e-08  1.03e-06  2.39e-05  6.29e-06     3.0
   20    -400.8282894184574161    -4.55e-09  5.14e-07  1.66e-05  4.58e-06     2.5
                 **** Energy Check signals convergence ****

               *****************************************************
               *                     SUCCESS                       *
               *           SCF CONVERGED AFTER  20 CYCLES          *
               *****************************************************

Recomputing exchange energy using gridx3       ... done (    1.808 sec)
Old exchange energy                            :    -13.864477005 Eh
New exchange energy                            :    -13.864540000 Eh
Exchange energy change after final integration :     -0.000062995 Eh
Total energy after final integration           :   -400.828352413 Eh
             **** ENERGY FILE WAS UPDATED (cs_rporg_102_ox_opt_01.en.tmp) ****

----------------
TOTAL SCF ENERGY
----------------

Total Energy       :       -400.82835241335528 Eh          -10907.09398 eV

Components:
Nuclear Repulsion  :        465.17342458920541 Eh           12658.01240 eV
Electronic Energy  :       -866.00171400766283 Eh          -23565.10466 eV
One Electron Energy:      -1449.23780353835605 Eh          -39435.76551 eV
Two Electron Energy:        583.23608953069322 Eh           15870.66084 eV

Virial components:
Potential Energy   :       -798.44690708656708 Eh          -21726.84491 eV
Kinetic Energy     :        397.61855467321175 Eh           10819.75094 eV
Virial Ratio       :          2.00807255522263

DFT components:
N(Alpha)           :       34.000027536647 electrons
N(Beta)            :       33.000027915654 electrons
N(Total)           :       67.000055452302 electrons
E(X)               :      -41.483629143335 Eh       
E(C)               :       -2.236441769880 Eh       
E(XC)              :      -43.720070913215 Eh       

---------------
SCF CONVERGENCE
---------------

  Last Energy change         ...    4.5479e-09  Tolerance :   1.0000e-08
  Last MAX-Density change    ...    1.6638e-05  Tolerance :   1.0000e-07
  Last RMS-Density change    ...    5.1355e-07  Tolerance :   5.0000e-09
  Last DIIS Error            ...    6.9830e-04  Tolerance :   5.0000e-07
  Last Orbital Gradient      ...    4.5776e-06  Tolerance :   1.0000e-05
  Last Orbital Rotation      ...    5.1021e-05  Tolerance :   1.0000e-05


----------------------
UHF SPIN CONTAMINATION
----------------------

Warning: in a DFT calculation there is little theoretical justification to 
         calculate <S**2> as in Hartree-Fock theory. We will do it anyways
         but you should keep in mind that the values have only limited relevance

Expectation value of <S**2>     :     0.766770
Ideal value S*(S+1) for S=0.5   :     0.750000
Deviation                       :     0.016770

----------------
ORBITAL ENERGIES
----------------
                 SPIN UP ORBITALS
  NO   OCC          E(Eh)            E(eV) 
   0   1.0000     -14.574469      -396.5915 
   1   1.0000     -10.468266      -284.8560 
   2   1.0000     -10.467269      -284.8289 
   3   1.0000     -10.460070      -284.6330 
   4   1.0000     -10.454112      -284.4708 
   5   1.0000     -10.452240      -284.4199 
   6   1.0000     -10.448712      -284.3239 
   7   1.0000     -10.444875      -284.2195 
   8   1.0000     -10.444660      -284.2136 
   9   1.0000     -10.432875      -283.8930 
  10   1.0000      -1.176274       -32.0081 
  11   1.0000      -1.087442       -29.5908 
  12   1.0000      -1.027899       -27.9706 
  13   1.0000      -0.978387       -26.6233 
  14   1.0000      -0.971221       -26.4283 
  15   1.0000      -0.863593       -23.4996 
  16   1.0000      -0.852737       -23.2041 
  17   1.0000      -0.814427       -22.1617 
  18   1.0000      -0.750826       -20.4310 
  19   1.0000      -0.731857       -19.9149 
  20   1.0000      -0.725322       -19.7370 
  21   1.0000      -0.666292       -18.1307 
  22   1.0000      -0.657265       -17.8851 
  23   1.0000      -0.654863       -17.8197 
  24   1.0000      -0.638511       -17.3748 
  25   1.0000      -0.621575       -16.9139 
  26   1.0000      -0.602898       -16.4057 
  27   1.0000      -0.576637       -15.6911 
  28   1.0000      -0.572423       -15.5764 
  29   1.0000      -0.565496       -15.3879 
  30   1.0000      -0.532765       -14.4973 
  31   1.0000      -0.466323       -12.6893 
  32   1.0000      -0.460301       -12.5254 
  33   1.0000      -0.434025       -11.8104 
  34   0.0000      -0.259004        -7.0479 
  35   0.0000      -0.214150        -5.8273 
  36   0.0000      -0.171140        -4.6570 
  37   0.0000      -0.103487        -2.8160 
  38   0.0000      -0.082840        -2.2542 
  39   0.0000      -0.062265        -1.6943 
  40   0.0000      -0.039751        -1.0817 
  41   0.0000      -0.014291        -0.3889 
  42   0.0000      -0.006163        -0.1677 
  43   0.0000       0.009117         0.2481 
  44   0.0000       0.010829         0.2947 

                 SPIN DOWN ORBITALS
  NO   OCC          E(Eh)            E(eV) 
   0   1.0000     -14.571046      -396.4983 
   1   1.0000     -10.469371      -284.8861 
   2   1.0000     -10.461994      -284.6853 
   3   1.0000     -10.454344      -284.4772 
   4   1.0000     -10.454258      -284.4748 
   5   1.0000     -10.449478      -284.3448 
   6   1.0000     -10.447391      -284.2880 
   7   1.0000     -10.445960      -284.2490 
   8   1.0000     -10.444425      -284.2072 
   9   1.0000     -10.431746      -283.8622 
  10   1.0000      -1.170598       -31.8536 
  11   1.0000      -1.078432       -29.3456 
  12   1.0000      -1.020176       -27.7604 
  13   1.0000      -0.973642       -26.4941 
  14   1.0000      -0.960182       -26.1279 
  15   1.0000      -0.859413       -23.3858 
  16   1.0000      -0.848937       -23.1007 
  17   1.0000      -0.809656       -22.0319 
  18   1.0000      -0.746836       -20.3224 
  19   1.0000      -0.728715       -19.8293 
  20   1.0000      -0.722911       -19.6714 
  21   1.0000      -0.664774       -18.0894 
  22   1.0000      -0.655232       -17.8298 
  23   1.0000      -0.651242       -17.7212 
  24   1.0000      -0.623476       -16.9657 
  25   1.0000      -0.619305       -16.8521 
  26   1.0000      -0.601586       -16.3700 
  27   1.0000      -0.574301       -15.6275 
  28   1.0000      -0.563981       -15.3467 
  29   1.0000      -0.546438       -14.8693 
  30   1.0000      -0.502374       -13.6703 
  31   1.0000      -0.459364       -12.4999 
  32   1.0000      -0.430709       -11.7202 
  33   0.0000      -0.379121       -10.3164 
  34   0.0000      -0.230861        -6.2820 
  35   0.0000      -0.205027        -5.5791 
  36   0.0000      -0.149650        -4.0722 
  37   0.0000      -0.085455        -2.3254 
  38   0.0000      -0.081647        -2.2217 
  39   0.0000      -0.061138        -1.6637 
  40   0.0000      -0.038521        -1.0482 
  41   0.0000      -0.012446        -0.3387 
  42   0.0000      -0.004449        -0.1211 
  43   0.0000       0.012414         0.3378 
*Only the first 10 virtual orbitals were printed.

                    ********************************
                    * MULLIKEN POPULATION ANALYSIS *
                    ********************************

--------------------------------------------
MULLIKEN ATOMIC CHARGES AND SPIN POPULATIONS
--------------------------------------------
   0 C :   -0.030182    0.363677
   1 C :   -0.021064    0.075540
   2 C :   -0.051256   -0.006798
   3 C :    0.020253    0.407203
   4 C :    0.041067   -0.086922
   5 N :   -0.055927    0.162029
   6 C :    0.013346   -0.019913
   7 C :   -0.087082    0.070956
   8 C :    0.007538    0.192285
   9 C :    0.005484   -0.103282
  10 H :    0.154229   -0.008793
  11 H :    0.169144   -0.004149
  12 H :    0.172422   -0.000037
  13 H :    0.159674   -0.017801
  14 H :    0.173619   -0.001988
  15 H :    0.172189   -0.005404
  16 H :    0.156549   -0.016604
Sum of atomic charges         :    1.0000000
Sum of atomic spin populations:    1.0000000

-----------------------------------------------------
MULLIKEN REDUCED ORBITAL CHARGES AND SPIN POPULATIONS
-----------------------------------------------------
CHARGE
  0 C s       :     3.278280  s :     3.278280
      pz      :     0.785952  p :     2.712122
      px      :     0.991693
      py      :     0.934477
      dz2     :     0.003496  d :     0.039780
      dxz     :     0.007652
      dyz     :     0.002339
      dx2y2   :     0.015567
      dxy     :     0.010727

  1 C s       :     3.202880  s :     3.202880
      pz      :     0.878515  p :     2.780611
      px      :     0.934723
      py      :     0.967374
      dz2     :     0.003420  d :     0.037573
      dxz     :     0.003442
      dyz     :     0.004456
      dx2y2   :     0.012060
      dxy     :     0.014196

  2 C s       :     3.211200  s :     3.211200
      pz      :     0.890490  p :     2.802663
      px      :     0.953902
      py      :     0.958271
      dz2     :     0.003424  d :     0.037393
      dxz     :     0.003493
      dyz     :     0.004247
      dx2y2   :     0.011993
      dxy     :     0.014236

  3 C s       :     3.311470  s :     3.311470
      pz      :     0.770772  p :     2.630217
      px      :     0.976176
      py      :     0.883269
      dz2     :     0.003517  d :     0.038061
      dxz     :     0.007188
      dyz     :     0.002515
      dx2y2   :     0.013916
      dxy     :     0.010925

  4 C s       :     2.987460  s :     2.987460
      pz      :     0.963809  p :     2.906527
      px      :     0.891012
      py      :     1.051707
      dz2     :     0.004053  d :     0.064946
      dxz     :     0.008293
      dyz     :     0.006170
      dx2y2   :     0.024694
      dxy     :     0.021736

  5 N s       :     3.427455  s :     3.427455
      pz      :     1.034280  p :     3.598384
      px      :     0.952265
      py      :     1.611838
      dz2     :     0.003145  d :     0.030088
      dxz     :     0.005898
      dyz     :     0.003859
      dx2y2   :     0.005562
      dxy     :     0.011623

  6 C s       :     3.192140  s :     3.192140
      pz      :     0.850023  p :     2.732482
      px      :     0.957931
      py      :     0.924528
      dz2     :     0.004270  d :     0.062032
      dxz     :     0.007265
      dyz     :     0.005013
      dx2y2   :     0.022013
      dxy     :     0.023472

  7 C s       :     3.223215  s :     3.223215
      pz      :     0.887188  p :     2.827858
      px      :     0.958117
      py      :     0.982553
      dz2     :     0.003479  d :     0.036009
      dxz     :     0.003671
      dyz     :     0.003927
      dx2y2   :     0.012650
      dxy     :     0.012282

  8 C s       :     3.200146  s :     3.200146
      pz      :     0.839325  p :     2.753919
      px      :     0.980831
      py      :     0.933763
      dz2     :     0.003443  d :     0.038398
      dxz     :     0.007018
      dyz     :     0.002391
      dx2y2   :     0.015141
      dxy     :     0.010404

  9 C s       :     2.996778  s :     2.996778
      pz      :     1.000770  p :     2.957262
      px      :     0.894987
      py      :     1.061504
      dz2     :     0.003196  d :     0.040477
      dxz     :     0.005057
      dyz     :     0.004984
      dx2y2   :     0.014578
      dxy     :     0.012662

 10 H s       :     0.845771  s :     0.845771

 11 H s       :     0.830856  s :     0.830856

 12 H s       :     0.827578  s :     0.827578

 13 H s       :     0.840326  s :     0.840326

 14 H s       :     0.826381  s :     0.826381

 15 H s       :     0.827811  s :     0.827811

 16 H s       :     0.843451  s :     0.843451


SPIN
  0 C s       :     0.053647  s :     0.053647
      pz      :     0.293262  p :     0.310143
      px      :     0.005412
      py      :     0.011469
      dz2     :    -0.001064  d :    -0.000113
      dxz     :     0.000748
      dyz     :     0.000141
      dx2y2   :     0.000007
      dxy     :     0.000055

  1 C s       :     0.002212  s :     0.002212
      pz      :     0.082074  p :     0.071269
      px      :    -0.009129
      py      :    -0.001676
      dz2     :    -0.000351  d :     0.002060
      dxz     :     0.001313
      dyz     :     0.001055
      dx2y2   :    -0.000041
      dxy     :     0.000083

  2 C s       :    -0.013382  s :    -0.013382
      pz      :     0.023592  p :     0.003835
      px      :    -0.013995
      py      :    -0.005761
      dz2     :    -0.000159  d :     0.002749
      dxz     :     0.001498
      dyz     :     0.001359
      dx2y2   :    -0.000027
      dxy     :     0.000078

  3 C s       :     0.065278  s :     0.065278
      pz      :     0.322224  p :     0.342565
      px      :     0.007533
      py      :     0.012807
      dz2     :    -0.001147  d :    -0.000640
      dxz     :     0.000304
      dyz     :     0.000174
      dx2y2   :    -0.000013
      dxy     :     0.000043

  4 C s       :    -0.014887  s :    -0.014887
      pz      :    -0.045757  p :    -0.074969
      px      :    -0.023337
      py      :    -0.005875
      dz2     :     0.000107  d :     0.002934
      dxz     :     0.003258
      dyz     :    -0.000333
      dx2y2   :    -0.000029
      dxy     :    -0.000069

  5 N s       :     0.009196  s :     0.009196
      pz      :     0.146104  p :     0.152778
      px      :     0.005790
      py      :     0.000884
      dz2     :    -0.000171  d :     0.000055
      dxz     :     0.000069
      dyz     :     0.000140
      dx2y2   :    -0.000011
      dxy     :     0.000028

  6 C s       :    -0.003034  s :    -0.003034
      pz      :    -0.010317  p :    -0.019035
      px      :    -0.003818
      py      :    -0.004900
      dz2     :    -0.000030  d :     0.002156
      dxz     :     0.001260
      dyz     :     0.000945
      dx2y2   :    -0.000038
      dxy     :     0.000019

  7 C s       :     0.004077  s :     0.004077
      pz      :     0.070012  p :     0.065926
      px      :    -0.003843
      py      :    -0.000243
      dz2     :    -0.000262  d :     0.000952
      dxz     :     0.000764
      dyz     :     0.000420
      dx2y2   :    -0.000029
      dxy     :     0.000060

  8 C s       :     0.029016  s :     0.029016
      pz      :     0.153946  p :     0.163168
      px      :     0.002225
      py      :     0.006997
      dz2     :    -0.000549  d :     0.000101
      dxz     :     0.000506
      dyz     :     0.000131
      dx2y2   :    -0.000015
      dxy     :     0.000027

  9 C s       :    -0.018107  s :    -0.018107
      pz      :    -0.051241  p :    -0.087605
      px      :    -0.028711
      py      :    -0.007653
      dz2     :     0.000098  d :     0.002430
      dxz     :     0.002652
      dyz     :    -0.000303
      dx2y2   :     0.000019
      dxy     :    -0.000036

 10 H s       :    -0.008793  s :    -0.008793

 11 H s       :    -0.004149  s :    -0.004149

 12 H s       :    -0.000037  s :    -0.000037

 13 H s       :    -0.017801  s :    -0.017801

 14 H s       :    -0.001988  s :    -0.001988

 15 H s       :    -0.005404  s :    -0.005404

 16 H s       :    -0.016604  s :    -0.016604



                     *******************************
                     * LOEWDIN POPULATION ANALYSIS *
                     *******************************

-------------------------------------------
LOEWDIN ATOMIC CHARGES AND SPIN POPULATIONS
-------------------------------------------
   0 C :    0.028555    0.294294
   1 C :   -0.047954    0.090225
   2 C :   -0.055678    0.033305
   3 C :    0.032341    0.320817
   4 C :    0.000212   -0.036341
   5 N :   -0.000478    0.144019
   6 C :   -0.009608   -0.003886
   7 C :   -0.070896    0.072486
   8 C :   -0.007604    0.154388
   9 C :   -0.052067   -0.041419
  10 H :    0.165146   -0.004408
  11 H :    0.169802   -0.002102
  12 H :    0.156367   -0.000178
  13 H :    0.178825   -0.009129
  14 H :    0.172314   -0.001046
  15 H :    0.172692   -0.002733
  16 H :    0.168032   -0.008291

----------------------------------------------------
LOEWDIN REDUCED ORBITAL CHARGES AND SPIN POPULATIONS
----------------------------------------------------
CHARGE
  0 C s       :     2.905328  s :     2.905328
      pz      :     0.779779  p :     2.969445
      px      :     1.086080
      py      :     1.103586
      dz2     :     0.007389  d :     0.096672
      dxz     :     0.015336
      dyz     :     0.003321
      dx2y2   :     0.040500
      dxy     :     0.030126

  1 C s       :     2.899962  s :     2.899962
      pz      :     0.873854  p :     3.055534
      px      :     1.095991
      py      :     1.085689
      dz2     :     0.007393  d :     0.092458
      dxz     :     0.005670
      dyz     :     0.008669
      dx2y2   :     0.033664
      dxy     :     0.037061

  2 C s       :     2.898920  s :     2.898920
      pz      :     0.885018  p :     3.064658
      px      :     1.097080
      py      :     1.082560
      dz2     :     0.007377  d :     0.092100
      dxz     :     0.005766
      dyz     :     0.008253
      dx2y2   :     0.033541
      dxy     :     0.037163

  3 C s       :     2.913864  s :     2.913864
      pz      :     0.767594  p :     2.960559
      px      :     1.084644
      py      :     1.108321
      dz2     :     0.007603  d :     0.093236
      dxz     :     0.014491
      dyz     :     0.003530
      dx2y2   :     0.036904
      dxy     :     0.030708

  4 C s       :     2.826790  s :     2.826790
      pz      :     0.948260  p :     3.012304
      px      :     1.015918
      py      :     1.048126
      dz2     :     0.009971  d :     0.160693
      dxz     :     0.015310
      dyz     :     0.011925
      dx2y2   :     0.065346
      dxy     :     0.058140

  5 N s       :     3.157845  s :     3.157845
      pz      :     1.019231  p :     3.778318
      px      :     1.144587
      py      :     1.614499
      dz2     :     0.006227  d :     0.064316
      dxz     :     0.012230
      dyz     :     0.004078
      dx2y2   :     0.014544
      dxy     :     0.027238

  6 C s       :     2.892632  s :     2.892632
      pz      :     0.851708  p :     2.972136
      px      :     1.054302
      py      :     1.066126
      dz2     :     0.009507  d :     0.144840
      dxz     :     0.011898
      dyz     :     0.009677
      dx2y2   :     0.055949
      dxy     :     0.057810

  7 C s       :     2.911455  s :     2.911455
      pz      :     0.881987  p :     3.069469
      px      :     1.095428
      py      :     1.092054
      dz2     :     0.007623  d :     0.089972
      dxz     :     0.005918
      dyz     :     0.007802
      dx2y2   :     0.034975
      dxy     :     0.033654

  8 C s       :     2.899906  s :     2.899906
      pz      :     0.835923  p :     3.013679
      px      :     1.079229
      py      :     1.098527
      dz2     :     0.007294  d :     0.094019
      dxz     :     0.014168
      dyz     :     0.003417
      dx2y2   :     0.039639
      dxy     :     0.029500

  9 C s       :     2.844853  s :     2.844853
      pz      :     0.975435  p :     3.098643
      px      :     1.054430
      py      :     1.068779
      dz2     :     0.008206  d :     0.108571
      dxz     :     0.009750
      dyz     :     0.010001
      dx2y2   :     0.042817
      dxy     :     0.037798

 10 H s       :     0.834854  s :     0.834854

 11 H s       :     0.830198  s :     0.830198

 12 H s       :     0.843633  s :     0.843633

 13 H s       :     0.821175  s :     0.821175

 14 H s       :     0.827686  s :     0.827686

 15 H s       :     0.827308  s :     0.827308

 16 H s       :     0.831968  s :     0.831968


SPIN
  0 C s       :     0.009779  s :     0.009779
      pz      :     0.275454  p :     0.284955
      px      :     0.003811
      py      :     0.005691
      dz2     :    -0.001139  d :    -0.000439
      dxz     :     0.001118
      dyz     :    -0.000058
      dx2y2   :    -0.000218
      dxy     :    -0.000143

  1 C s       :     0.001610  s :     0.001610
      pz      :     0.085043  p :     0.083723
      px      :    -0.001606
      py      :     0.000285
      dz2     :    -0.000329  d :     0.004892
      dxz     :     0.002395
      dyz     :     0.002564
      dx2y2   :     0.000031
      dxy     :     0.000231

  2 C s       :    -0.000736  s :    -0.000736
      pz      :     0.031957  p :     0.027555
      px      :    -0.002986
      py      :    -0.001416
      dz2     :    -0.000107  d :     0.006486
      dxz     :     0.002843
      dyz     :     0.003285
      dx2y2   :     0.000169
      dxy     :     0.000296

  3 C s       :     0.010953  s :     0.010953
      pz      :     0.300517  p :     0.311521
      px      :     0.004592
      py      :     0.006411
      dz2     :    -0.001224  d :    -0.001657
      dxz     :     0.000169
      dyz     :    -0.000103
      dx2y2   :    -0.000270
      dxy     :    -0.000229

  4 C s       :    -0.003194  s :    -0.003194
      pz      :    -0.033468  p :    -0.040178
      px      :    -0.004658
      py      :    -0.002052
      dz2     :     0.000183  d :     0.007031
      dxz     :     0.007006
      dyz     :    -0.000525
      dx2y2   :     0.000141
      dxy     :     0.000227

  5 N s       :     0.003794  s :     0.003794
      pz      :     0.137828  p :     0.140660
      px      :     0.002341
      py      :     0.000492
      dz2     :    -0.000149  d :    -0.000435
      dxz     :    -0.000058
      dyz     :    -0.000022
      dx2y2   :    -0.000087
      dxy     :    -0.000119

  6 C s       :    -0.000997  s :    -0.000997
      pz      :    -0.004281  p :    -0.007585
      px      :    -0.002112
      py      :    -0.001192
      dz2     :     0.000013  d :     0.004696
      dxz     :     0.002294
      dyz     :     0.002189
      dx2y2   :     0.000079
      dxy     :     0.000122

  7 C s       :     0.001693  s :     0.001693
      pz      :     0.068171  p :     0.068531
      px      :    -0.000399
      py      :     0.000760
      dz2     :    -0.000263  d :     0.002263
      dxz     :     0.001287
      dyz     :     0.001144
      dx2y2   :    -0.000032
      dxy     :     0.000127

  8 C s       :     0.005074  s :     0.005074
      pz      :     0.144430  p :     0.149343
      px      :     0.001893
      py      :     0.003020
      dz2     :    -0.000598  d :    -0.000030
      dxz     :     0.000791
      dyz     :     0.000025
      dx2y2   :    -0.000167
      dxy     :    -0.000082

  9 C s       :    -0.003180  s :    -0.003180
      pz      :    -0.037194  p :    -0.044038
      px      :    -0.004668
      py      :    -0.002176
      dz2     :     0.000162  d :     0.005800
      dxz     :     0.005752
      dyz     :    -0.000553
      dx2y2   :     0.000224
      dxy     :     0.000214

 10 H s       :    -0.004408  s :    -0.004408

 11 H s       :    -0.002102  s :    -0.002102

 12 H s       :    -0.000178  s :    -0.000178

 13 H s       :    -0.009129  s :    -0.009129

 14 H s       :    -0.001046  s :    -0.001046

 15 H s       :    -0.002733  s :    -0.002733

 16 H s       :    -0.008291  s :    -0.008291



                      *****************************
                      * MAYER POPULATION ANALYSIS *
                      *****************************

  NA   - Mulliken gross atomic population
  ZA   - Total nuclear charge
  QA   - Mulliken gross atomic charge
  VA   - Mayer's total valence
  BVA  - Mayer's bonded valence
  FA   - Mayer's free valence

  ATOM       NA         ZA         QA         VA         BVA        FA
  0 C      6.0302     6.0000    -0.0302     3.7572     3.6682     0.0890
  1 C      6.0211     6.0000    -0.0211     3.7727     3.7644     0.0082
  2 C      6.0513     6.0000    -0.0513     3.7621     3.7600     0.0022
  3 C      5.9797     6.0000     0.0203     3.7023     3.5946     0.1077
  4 C      5.9589     6.0000     0.0411     4.0481     4.0452     0.0030
  5 N      7.0559     7.0000    -0.0559     3.2042     3.1825     0.0217
  6 C      5.9867     6.0000     0.0133     3.9331     3.9326     0.0004
  7 C      6.0871     6.0000    -0.0871     3.8279     3.8225     0.0054
  8 C      5.9925     6.0000     0.0075     3.8282     3.8034     0.0248
  9 C      5.9945     6.0000     0.0055     3.8645     3.8610     0.0036
 10 H      0.8458     1.0000     0.1542     0.9513     0.9512     0.0001
 11 H      0.8309     1.0000     0.1691     0.9445     0.9445     0.0000
 12 H      0.8276     1.0000     0.1724     0.9444     0.9444    -0.0000
 13 H      0.8403     1.0000     0.1597     0.9613     0.9610     0.0003
 14 H      0.8264     1.0000     0.1736     0.9413     0.9413     0.0000
 15 H      0.8278     1.0000     0.1722     0.9416     0.9415     0.0000
 16 H      0.8435     1.0000     0.1565     0.9508     0.9505     0.0003

  Mayer bond orders larger than 0.100000
B(  0-C ,  1-C ) :   1.2852 B(  0-C ,  9-C ) :   1.2374 B(  0-C , 16-H ) :   0.9542 
B(  1-C ,  2-C ) :   1.4008 B(  1-C , 15-H ) :   0.9558 B(  2-C ,  3-C ) :   1.2753 
B(  2-C , 14-H ) :   0.9548 B(  3-C ,  4-C ) :   1.2081 B(  3-C , 13-H ) :   0.9560 
B(  4-C ,  5-N ) :   1.4812 B(  4-C ,  9-C ) :   1.1753 B(  5-N ,  6-C ) :   1.5320 
B(  6-C ,  7-C ) :   1.3104 B(  6-C , 12-H ) :   0.9416 B(  7-C ,  8-C ) :   1.4035 
B(  7-C , 11-H ) :   0.9412 B(  8-C ,  9-C ) :   1.3067 B(  8-C , 10-H ) :   0.9470 


-------
TIMINGS
-------

Total SCF time: 0 days 0 hours 1 min 20 sec 

Total time                  ....      80.373 sec
Sum of individual times     ....      78.003 sec  ( 97.1%)

SCF preparation             ....       1.275 sec  (  1.6%)
Fock matrix formation       ....      50.814 sec  ( 63.2%)
  Startup                   ....       6.361 sec  ( 12.5% of F)
  Split-RI-J                ....       6.201 sec  ( 12.2% of F)
  Chain of spheres X        ....      19.427 sec  ( 38.2% of F)
  XC integration            ....       8.921 sec  ( 17.6% of F)
    XC Preparation          ....       0.000 sec  (  0.0% of XC)
    Basis function eval.    ....       1.203 sec  ( 13.5% of XC)
    Density eval.           ....       1.046 sec  ( 11.7% of XC)
    XC-Functional eval.     ....       0.387 sec  (  4.3% of XC)
    XC-Potential eval.      ....       1.569 sec  ( 17.6% of XC)
Diagonalization             ....       0.000 sec  (  0.0%)
Density matrix formation    ....       9.539 sec  ( 11.9%)
Total Energy calculation    ....       3.312 sec  (  4.1%)
Population analysis         ....       0.555 sec  (  0.7%)
Orbital Transformation      ....       0.886 sec  (  1.1%)
Orbital Orthonormalization  ....       0.000 sec  (  0.0%)
DIIS solution               ....       7.481 sec  (  9.3%)
SOSCF solution              ....       4.139 sec  (  5.2%)
Finished LeanSCF after  80.7 sec

Maximum memory used throughout the entire LEANSCF-calculation: 18.2 MB


           ************************************************************
           *        Program running with 4 parallel MPI-processes     *
           *              working on a common directory               *
           ************************************************************

------------------------------------------------------------------------------
                         ORCA PROPERTY INTEGRAL CALCULATIONS
------------------------------------------------------------------------------

GBWName                                   ... cs_rporg_102_ox_opt_01.gbw
Number of atoms                           ...     17
Number of basis functions                 ...    154
Max core memory                           ...   3000 MB

Dipole integrals                          ... YES
Quadrupole integrals                      ...  NO
Linear momentum integrals                 ...  NO
Angular momentum integrals                ...  NO
Higher moments length integrals           ...  NO
Higher moments velocity integrals         ...  NO
Kinetic energy integrals                  ...  NO
GIAO right hand sides                     ...  NO
GIAO dipole derivative integrals          ...  NO
SOC integrals                             ...  NO
EPR diamagnetic integrals (GIAO)          ...  NO
EPR gauge integrals                       ...  NO
Field gradient integrals                  ...  NO (   0 nuclei)
Spin-dipole/Fermi contact integrals       ...  NO (   0 nuclei)
Contact density integrals                 ...  NO (   0 nuclei)
Nucleus-orbit integrals                   ...  NO (   0 nuclei)
Geometric perturbations                   ...  NO (  17 nuclei)

Choice of electric origin   ... Center of mass
Position of electric origin ... ( -0.0001, -0.0127,  0.0000) 
Choice of magnetic origin   ... GIAO
Position of magnetic origin ... (  0.0000,  0.0000,  0.0000) 

Calculating integrals                     ... Electric Dipole (Length)     done (  0.1 sec)

Property integrals calculated in   0.1 sec

Maximum memory used throughout the entire PROPINT-calculation: 9.8 MB


-------------------------------------------------------------------------------
                          DFT DISPERSION CORRECTION                            
                                                                               
                              DFTD3 V3.1  Rev 1                                
                          USING Becke-Johnson damping                          
-------------------------------------------------------------------------------
The PBE0 functional is recognized
Active option DFTDOPT                   ...         4   

molecular C6(AA) [au] = 3812.722721 


            DFT-D V3
 parameters
 s6 scaling factor         :     1.0000 
 a1 scaling factor         :     0.4145 
 s8 scaling factor         :     1.2177 
 a2 scaling factor         :     4.8593 
 ad hoc parameters k1-k3   :    16.0000     1.3333    -4.0000 

 Edisp/kcal,au: -10.938635677795  -0.017431823682 
 E6   /kcal   :  -6.746080804 
 E8   /kcal   :  -4.192554874 
 % E8         :  38.327950556 

-------------------------   ----------------
Dispersion correction           -0.017431824
-------------------------   ----------------


-------------------------   --------------------
FINAL SINGLE POINT ENERGY      -400.845784237038
-------------------------   --------------------



           ************************************************************
           *        Program running with 4 parallel MPI-processes     *
           *              working on a common directory               *
           ************************************************************
------------------------------------------------------------------------------
                         ORCA SCF GRADIENT CALCULATION
------------------------------------------------------------------------------

Nuc. rep. gradient        (SHARK) ... done (  0.0 sec)
HCore & Overlap gradient  (SHARK) ... done (  0.0 sec)
Split-RIJ-J gradient      (SHARK) ... done (  0.4 sec)
COSX-gradient                     ... done (  7.6 sec)
XC gradient                       ... done (  1.6 sec)
Dispersion correction             ... done (  0.1 sec)

-------------------
DISPERSION GRADIENT
-------------------

   1   C   :    0.000229813   -0.000248206   -0.000000002
   2   C   :    0.000308323   -0.000090187   -0.000000003
   3   C   :    0.000292055    0.000115293   -0.000000003
   4   C   :    0.000211507    0.000273140   -0.000000002
   5   C   :   -0.000010628    0.000165641   -0.000000001
   6   N   :   -0.000223130    0.000238390    0.000000001
   7   C   :   -0.000312101    0.000106833    0.000000002
   8   C   :   -0.000301178   -0.000061579    0.000000003
   9   C   :   -0.000236971   -0.000225436    0.000000003
  10   C   :   -0.000016581   -0.000135544    0.000000001
  11   H   :   -0.000069760   -0.000174230    0.000000002
  12   H   :   -0.000143443   -0.000062900    0.000000001
  13   H   :   -0.000136719    0.000087390    0.000000001
  14   H   :    0.000055933    0.000181658   -0.000000000
  15   H   :    0.000139637    0.000077672   -0.000000001
  16   H   :    0.000144637   -0.000071580   -0.000000001
  17   H   :    0.000068608   -0.000176354   -0.000000001

Difference to translation invariance:
           :   -0.0000000000    0.0000000000   -0.0000000000

Difference to rotation invariance:
           :   -0.0000000000   -0.0000000000    0.0000000000

Norm of the Dispersion gradient    ...    0.0010527356
RMS gradient                       ...    0.0001474125
MAX gradient                       ...    0.0003121012

------------------
CARTESIAN GRADIENT
------------------

   1   C   :    0.032900523    0.026623959   -0.000001508
   2   C   :   -0.024487525   -0.041937142   -0.000001118
   3   C   :   -0.026766760    0.036784619   -0.000000386
   4   C   :    0.023587841   -0.023544110    0.000002106
   5   C   :    0.018160253    0.060136821   -0.000002222
   6   N   :   -0.032982073   -0.075001973    0.000009932
   7   C   :    0.017907660    0.047769893   -0.000007012
   8   C   :    0.017351569   -0.031740571    0.000004773
   9   C   :   -0.023250289    0.023514170   -0.000000596
  10   C   :    0.000375538   -0.034754769   -0.000002579
  11   H   :    0.000508715    0.009370420   -0.000002068
  12   H   :    0.007936489    0.009219964    0.000001834
  13   H   :    0.008954198   -0.006844604   -0.000003560
  14   H   :    0.000295267   -0.010385706   -0.000001554
  15   H   :   -0.008816112   -0.005693869    0.000000937
  16   H   :   -0.009309687    0.005749315   -0.000000054
  17   H   :   -0.002365608    0.010733583    0.000003073

Difference to translation invariance:
           :    0.0000000000    0.0000000000    0.0000000000

Difference to rotation invariance:
           :   -0.0000024671   -0.0000040523   -0.0000825587

Norm of the Cartesian gradient     ...    0.1581887852
RMS gradient                       ...    0.0221508605
MAX gradient                       ...    0.0750019727

-------
TIMINGS
-------

Total SCF gradient time     ....        9.680 sec

Densities                   ....       0.000 sec  (  0.0%)
One electron gradient       ....       0.040 sec  (  0.4%)
RI-J Coulomb gradient       ....       0.418 sec  (  4.3%)
COSX gradient               ....       7.567 sec  ( 78.2%)
XC gradient                 ....       1.551 sec  ( 16.0%)

Maximum memory used throughout the entire SCFGRAD-calculation: 29.6 MB
------------------------------------------------------------------------------
                         ORCA GEOMETRY RELAXATION STEP
------------------------------------------------------------------------------

Reading the OPT-File                    .... done
Getting information on internals        .... done
Copying old internal coords+grads       .... done
Making the new internal coordinates     .... (2022 redundants) done
Validating the new internal coordinates .... (2022 redundants) done
Calculating the B-matrix                .... done
[...]
     45      -0.046885   0.250566  -0.004247   0.241495  -0.005254   0.362391
     46      -0.185343   0.269919   0.002504  -0.139509   0.003392  -0.201342
     47      -0.000001  -0.000001  -0.000000  -0.000001   0.000000  -0.000002
     48       0.023859  -0.076397   0.000915  -0.027953   0.003213   0.005826
     49      -0.019372   0.143821  -0.007147   0.945628  -0.025665  -0.246561
     50      -0.000002   0.000017  -0.000000   0.000010  -0.000000  -0.000002
                 48         49         50    
      0      -0.001886  -0.000016  -0.001677
      1      -0.013202   0.000113  -0.011689
      2      -0.000000  -0.000000  -0.000000
      3       0.051220  -0.000110   0.043117
      4      -0.028244  -0.000013  -0.027698
      5      -0.000000   0.000000  -0.000000
      6      -0.010558  -0.000757   0.054088
      7      -0.000115  -0.000319   0.034078
      8       0.000000   0.000000  -0.000001
      9       0.002899   0.000138  -0.004137
     10      -0.064190   0.000439   0.039050
     11       0.000000  -0.000000  -0.000000
     12       0.001877  -0.000426  -0.001676
     13       0.001335  -0.000248  -0.000698
     14       0.000000   0.000000  -0.000000
     15       0.000158  -0.000608   0.000070
     16      -0.000127  -0.000200   0.000037
     17       0.000000  -0.000000   0.000000
     18      -0.000746   0.013314   0.000217
     19       0.000222  -0.013778  -0.000187
     20      -0.000000  -0.000000  -0.000000
     21       0.000500   0.076707   0.000263
     22       0.000234   0.037811   0.000236
     23      -0.000000  -0.000000  -0.000000
     24      -0.000155  -0.003081   0.000137
     25      -0.000035   0.023185   0.000347
     26      -0.000000  -0.000000   0.000000
     27      -0.000419  -0.001248  -0.000900
     28       0.000447  -0.000566   0.000066
     29       0.000000  -0.000000   0.000000
     30       0.000399  -0.004199   0.000107
     31       0.000509  -0.239981  -0.003685
     32       0.000000   0.000002  -0.000001
     33      -0.004741  -0.848146  -0.003396
     34      -0.002274  -0.422012  -0.001774
     35      -0.000000   0.000003  -0.000000
     36       0.005297  -0.155798  -0.001769
     37      -0.003784   0.111076   0.001333
     38       0.000000   0.000002  -0.000000
     39      -0.028175   0.000113   0.018473
     40       0.725065  -0.004813  -0.427242
     41      -0.000004  -0.000000   0.000003
     42       0.092124   0.007468  -0.595775
     43       0.050664   0.004547  -0.362131
     44      -0.000003  -0.000000   0.000008
     45      -0.574181   0.001323  -0.482730
     46       0.323594  -0.000693   0.274499
     47       0.000003  -0.000000   0.000002
     48      -0.002110   0.000555  -0.001540
     49       0.141834  -0.000903   0.119264
     50       0.000001  -0.000000   0.000001


-----------
IR SPECTRUM
-----------

 Mode   freq       eps      Int      T**2         TX        TY        TZ
       cm**-1   L/(mol*cm) km/mol    a.u.
----------------------------------------------------------------------------
  6:    158.94   0.000557    2.81  0.001093  ( 0.000007 -0.000017 -0.033064)
  7:    169.62   0.000469    2.37  0.000863  ( 0.000002  0.000022  0.029381)
  8:    355.75   0.000118    0.59  0.000103  ( 0.000009 -0.000006  0.010159)
  9:    372.08   0.000374    1.89  0.000314  ( 0.012599 -0.012452 -0.000003)
 10:    394.95   0.001583    8.00  0.001251  (-0.000005 -0.000001  0.035366)
 11:    441.18   0.000887    4.48  0.000628  (-0.000002  0.000012 -0.025051)
 12:    471.75   0.000021    0.11  0.000014  (-0.003290 -0.001841 -0.000003)
 13:    495.41   0.001047    5.29  0.000660  (-0.000001  0.000006 -0.025683)
 14:    521.61   0.000749    3.79  0.000448  (-0.019832 -0.007418  0.000006)
 15:    599.66   0.000924    4.67  0.000481  (-0.016795  0.014090 -0.000001)
 16:    745.10   0.002125   10.74  0.000890  (-0.000001 -0.000012 -0.029836)
 17:    786.02   0.000558    2.82  0.000222  (-0.011362  0.009619 -0.000010)
 18:    793.19   0.008880   44.88  0.003494  (-0.000006  0.000007  0.059107)
 19:    818.38   0.003797   19.19  0.001448  ( 0.000004 -0.000013 -0.038050)
 20:    828.10   0.000041    0.21  0.000016  ( 0.002367  0.003160  0.000006)
 21:    919.90   0.000017    0.08  0.000006  (-0.000005  0.000009  0.002388)
 22:    938.79   0.002366   11.96  0.000787  (-0.004355  0.027706  0.000001)
 23:    993.26   0.000001    0.00  0.000000  ( 0.000000  0.000001 -0.000423)
 24:   1001.45   0.000133    0.67  0.000041  ( 0.000003 -0.000011  0.006432)
 25:   1035.16   0.000008    0.04  0.000003  (-0.000005  0.000026 -0.001587)
 26:   1042.39   0.000016    0.08  0.000005  ( 0.000003 -0.000008 -0.002193)
 27:   1057.39   0.000524    2.65  0.000155  ( 0.012319  0.001730 -0.000001)
 28:   1077.24   0.003003   15.17  0.000870  ( 0.029114 -0.004717 -0.000001)
 29:   1102.80   0.000766    3.87  0.000217  (-0.011699 -0.008931  0.000001)
 30:   1143.32   0.000611    3.09  0.000167  ( 0.012815  0.001619  0.000000)
 31:   1185.08   0.000211    1.07  0.000056  (-0.007443 -0.000448 -0.000000)
 32:   1248.27   0.029993  151.57  0.007498  (-0.086047 -0.009701  0.000001)
 33:   1263.22   0.007923   40.04  0.001957  ( 0.040300  0.018251 -0.000000)
 34:   1275.35   0.001352    6.83  0.000331  (-0.009881 -0.015272  0.000001)
 35:   1402.83   0.000582    2.94  0.000129  ( 0.009912  0.005577 -0.000000)
 36:   1435.97   0.007672   38.77  0.001667  ( 0.000726 -0.040827  0.000000)
 37:   1468.73   0.008099   40.93  0.001721  ( 0.037415  0.017915 -0.000000)
 38:   1475.98   0.001368    6.91  0.000289  (-0.017001 -0.000452  0.000000)
 39:   1479.20   0.008073   40.80  0.001703  ( 0.036526 -0.019211 -0.000000)
 40:   1510.76   0.002411   12.18  0.000498  ( 0.022309 -0.000553  0.000000)
 41:   1585.14   0.007925   40.05  0.001560  ( 0.004279  0.039266 -0.000000)
 42:   1593.19   0.009405   47.53  0.001842  ( 0.020891 -0.037495 -0.000000)
 43:   1663.48   0.003196   16.15  0.000600  (-0.000203  0.024486  0.000001)
 44:   3213.35   0.000267    1.35  0.000026  ( 0.004219  0.002846  0.000000)
 45:   3214.90   0.000318    1.61  0.000031  ( 0.002468  0.004979  0.000000)
 46:   3219.76   0.000325    1.64  0.000031  ( 0.001906 -0.005275  0.000000)
 47:   3228.82   0.000090    0.46  0.000009  (-0.002924  0.000431  0.000000)
 48:   3236.21   0.002152   10.88  0.000208  (-0.006032  0.013081 -0.000000)
 49:   3241.99   0.000776    3.92  0.000075  (-0.007560 -0.004182  0.000000)
 50:   3243.67   0.001922    9.71  0.000185  (-0.012185 -0.006039  0.000000)

* The epsilon (eps) is given for a Dirac delta lineshape.
** The dipole moment derivative (T) already includes vibrational overlap.

The first frequency considered to be a vibration is 6
The total number of vibrations considered is 45


--------------------------
THERMOCHEMISTRY AT 298.15K
--------------------------

Temperature         ...   298.15 K
Pressure            ...     1.00 atm
Total Mass          ...   129.16 AMU
Quasi RRHO          ...     True
Cut-Off Frequency   ...     1.00 cm^-1

Throughout the following assumptions are being made:
  (1) The electronic state is orbitally nondegenerate
      but the spin degeneracy is treated
  (2) There are no thermally accessible electronically excited states
  (3) Hindered rotations indicated by low frequency modes are not
      treated as such but are treated as vibrations and this may
      cause some error
  (4) All equations used are the standard statistical mechanics
      equations for an ideal gas
  (5) All vibrations are strictly harmonic

freq.     158.94  E(vib)   ...       0.39 
freq.     169.62  E(vib)   ...       0.38 
freq.     355.75  E(vib)   ...       0.22 
freq.     372.08  E(vib)   ...       0.21 
freq.     394.95  E(vib)   ...       0.20 
freq.     441.18  E(vib)   ...       0.17 
freq.     471.75  E(vib)   ...       0.15 
freq.     495.41  E(vib)   ...       0.14 
freq.     521.61  E(vib)   ...       0.13 
freq.     599.66  E(vib)   ...       0.10 
freq.     745.10  E(vib)   ...       0.06 
freq.     786.02  E(vib)   ...       0.05 
freq.     793.19  E(vib)   ...       0.05 
freq.     818.38  E(vib)   ...       0.05 
freq.     828.10  E(vib)   ...       0.04 
freq.     919.90  E(vib)   ...       0.03 
freq.     938.79  E(vib)   ...       0.03 
freq.     993.26  E(vib)   ...       0.02 
freq.    1001.45  E(vib)   ...       0.02 
freq.    1035.16  E(vib)   ...       0.02 
freq.    1042.39  E(vib)   ...       0.02 
freq.    1057.39  E(vib)   ...       0.02 
freq.    1077.24  E(vib)   ...       0.02 
freq.    1102.80  E(vib)   ...       0.02 
freq.    1143.32  E(vib)   ...       0.01 
freq.    1185.08  E(vib)   ...       0.01 
freq.    1248.27  E(vib)   ...       0.01 
freq.    1263.22  E(vib)   ...       0.01 
freq.    1275.35  E(vib)   ...       0.01 
freq.    1402.83  E(vib)   ...       0.00 
freq.    1435.97  E(vib)   ...       0.00 
freq.    1468.73  E(vib)   ...       0.00 
freq.    1475.98  E(vib)   ...       0.00 
freq.    1479.20  E(vib)   ...       0.00 
freq.    1510.76  E(vib)   ...       0.00 
freq.    1585.14  E(vib)   ...       0.00 
freq.    1593.19  E(vib)   ...       0.00 
freq.    1663.48  E(vib)   ...       0.00 
freq.    3213.35  E(vib)   ...       0.00 
freq.    3214.90  E(vib)   ...       0.00 
freq.    3219.76  E(vib)   ...       0.00 
freq.    3228.82  E(vib)   ...       0.00 
freq.    3236.21  E(vib)   ...       0.00 
freq.    3241.99  E(vib)   ...       0.00 
freq.    3243.67  E(vib)   ...       0.00 

------------
INNER ENERGY
------------

The inner energy is: U= E(el) + E(ZPE) + E(vib) + E(rot) + E(trans)
    E(el)   - is the total energy from the electronic structure calculation
              = E(kin-el) + E(nuc-el) + E(el-el) + E(nuc-nuc)
    E(ZPE)  - the the zero temperature vibrational energy from the frequency calculation
    E(vib)  - the the finite temperature correction to E(ZPE) due to population
              of excited vibrational states
    E(rot)  - is the rotational thermal energy
    E(trans)- is the translational thermal energy

Summary of contributions to the inner energy U:
Electronic energy                ...   -400.86159347 Eh
Zero point energy                ...      0.13543561 Eh      84.99 kcal/mol
Thermal vibrational correction   ...      0.00419909 Eh       2.63 kcal/mol
Thermal rotational correction    ...      0.00141627 Eh       0.89 kcal/mol
Thermal translational correction ...      0.00141627 Eh       0.89 kcal/mol
-----------------------------------------------------------------------
Total thermal energy                   -400.71912623 Eh


Summary of corrections to the electronic energy:
(perhaps to be used in another calculation)
Total thermal correction                  0.00703163 Eh       4.41 kcal/mol
Non-thermal (ZPE) correction              0.13543561 Eh      84.99 kcal/mol
-----------------------------------------------------------------------
Total correction                          0.14246724 Eh      89.40 kcal/mol


--------
ENTHALPY
--------

The enthalpy is H = U + kB*T
                kB is Boltzmann's constant
Total thermal energy              ...   -400.71912623 Eh 
Thermal Enthalpy correction       ...      0.00094421 Eh       0.59 kcal/mol
-----------------------------------------------------------------------
Total Enthalpy                    ...   -400.71818202 Eh


Note: Rotational entropy computed according to Herzberg 
Infrared and Raman Spectra, Chapter V,1, Van Nostrand Reinhold, 1945 
Point Group:  Cs, Symmetry Number:   1  
Rotational constants in cm-1:     0.105894     0.041940     0.030042 

Vibrational entropy computed according to the QRRHO of S. Grimme
Chem.Eur.J. 2012 18 9955 using a reference frequency of 100.0 cm-1


-------
ENTROPY
-------

The entropy contributions are T*S = T*(S(el)+S(vib)+S(rot)+S(trans))
     S(el)   - electronic entropy
     S(vib)  - vibrational entropy
     S(rot)  - rotational entropy
     S(trans)- translational entropy
The entropies will be listed as multiplied by the temperature to get
units of energy

Electronic entropy                ...      0.00065446 Eh      0.41 kcal/mol
Vibrational entropy               ...      0.00647300 Eh      4.06 kcal/mol
Rotational entropy                ...      0.01372280 Eh      8.61 kcal/mol
Translational entropy             ...      0.01923366 Eh     12.07 kcal/mol
-----------------------------------------------------------------------
Final entropy term                ...      0.04008392 Eh     25.15 kcal/mol

In case the symmetry of your molecule has not been determined correctly
or in case you have a reason to use a different symmetry number we print 
out the resulting rotational entropy values for sn=1,12:

 non-linear molecules -----------------------------------
|  sn= 1 | S(rot)=       0.01372280 Eh      8.61 kcal/mol|
|  sn= 2 | S(rot)=       0.01306835 Eh      8.20 kcal/mol|
|  sn= 3 | S(rot)=       0.01268551 Eh      7.96 kcal/mol|
|  sn= 4 | S(rot)=       0.01241389 Eh      7.79 kcal/mol|
|  sn= 5 | S(rot)=       0.01220320 Eh      7.66 kcal/mol|
|  sn= 6 | S(rot)=       0.01203106 Eh      7.55 kcal/mol|
|  sn= 7 | S(rot)=       0.01188551 Eh      7.46 kcal/mol|
|  sn= 8 | S(rot)=       0.01175943 Eh      7.38 kcal/mol|
|  sn= 9 | S(rot)=       0.01164823 Eh      7.31 kcal/mol|
|  sn=10 | S(rot)=       0.01154875 Eh      7.25 kcal/mol|
|  sn=11 | S(rot)=       0.01145876 Eh      7.19 kcal/mol|
|  sn=12 | S(rot)=       0.01137660 Eh      7.14 kcal/mol|
 linear molecules ---------------------------------------
|  Dinfh | S(rot)=       0.00863532 Eh      5.42 kcal/mol|
|  Cinfv | S(rot)=       0.00928978 Eh      5.83 kcal/mol|
 --------------------------------------------------------


-------------------
GIBBS FREE ENERGY
-------------------

The Gibbs free energy is G = H - T*S

Total enthalpy                    ...   -400.71818202 Eh 
Total entropy correction          ...     -0.04008392 Eh    -25.15 kcal/mol
-----------------------------------------------------------------------
Final Gibbs free energy         ...   -400.75826594 Eh

For completeness - the Gibbs free energy minus the electronic energy
G-E(el)                           ...      0.10332753 Eh     64.84 kcal/mol


Maximum memory used throughout the entire PROP-calculation: 82.1 MB

--------------------------------
SUGGESTED CITATIONS FOR THIS RUN
--------------------------------

Below you find a list of papers that are relevant to this ORCA run
We neither can nor want to force you to cite these papers, but we appreciate if you do
You receive ORCA, which is the product of decades of hard work by many enthusiastic individuals, for free
The only thing we kindly ask in return is that you cite our papers,
We deeply appreciate it, if you show your appreciation for ORCA by not just citing the generic ORCA reference.

Please note that relegating all ORCA citations to the supporting information does *not* help us.
SI sections are not indexed - citations you put there will not count into any citation statistics
But we need these citations in order to attract the funding resources that allow us to do what we are doing

Therefore, if you are a happy ORCA user, please consider citing a few of the papers listed below in the main body of your paper

In addition to the list printed below, the program has created the file cs_rporg_102_ox_opt_01.bibtex that contains the list in bibtex format
You can import this file easily into all common literature databanks and citation aid programs


List of essential papers. We consider these as the minimum necessary citations

  1. Neese,F.
     Software update: the ORCA program system, version 5.0
     WIRES Comput. Molec. Sci., 2022 12(1)e1606
     doi.org/10.1002/wcms.1606

List of papers to cite with high priority. The work reported in these papers was absolutely
necessary for this run to complete.
Our perspective: the developers of density functionals and basis sets usually get cited in chemistry papers
Good! But without the algorithms to do something with them, the functionals or basis sets would not do anything.
Hence, in our opinion, the algorithm design and method developments papers are equally worthy of getting cited

  1. Neese,F.
     An improvement of the resolution of the identity approximation for the formation of the Coulomb matrix
     J. Comp. Chem., 2003 24(14)1740-1747
     doi.org/10.1002/jcc.10318
  2. Neese,F.; Wennmohs,F.; Hansen,A.; Becker,U.
     Efficient, approximate and parallel Hartree-Fock and hybrid DFT calculations. A 'chain-of-spheres' algorithm for the Hartree-Fock exchange
     Chem. Phys., 2009 356(1-3)98-109
     doi.org/10.1016/j.chemphys.2008.10.036
  3. Bykov,D.; Petrenko,T.; Izsak,R.; Kossmann,S.; Becker,U.; Valeev,E.; Neese,F.
     Efficient implementation of the analytic second derivatives of Hartree-Fock and hybrid DFT energies: a detailed analysis of different approximations
     Molec. Phys., 2015 113 1961-1977
     doi.org/10.1080/00268976.2015.1025114
  4. Helmich-Paris,B.; de Souza,B.; Neese,F.; Izsák,R.
     An improved chain of spheres for exchange algorithm
     J. Chem. Phys., 2021 155 104109
     doi.org/doi: 10.1063/5.0058766.
  5. Neese,F.
     The SHARK Integral Generation and Digestion System
     J. Comp. Chem., 2022  1-16
     doi.org/10.1002/jcc.26942
  6. Grimme,S.; Antony,J.; Ehrlich,S.; Krieg,H.
     A consistent and accurate ab initio parametrization of density functional dispersion correction (DFT-D) for the 94 elements H-Pu
     J. Chem. Phys., 2010 132 154104-XXXX
     doi.org/10.1063/1.3382344
  7. Grimme,S.; Ehrlich,S.; Goerigk,L.
     Effect of the damping function in dispersion corrected density functional theory
     J. Comput. Chem., 2011 32(7)1456-1465
     doi.org/10.1002/jcc.21759

List of suggested additional citations. These are papers that are important in the 'surrounding' of 
of this run, or papers that preceded the highly important papers. If you like your results we are grateful for a citation.

  1. Izsak,R.; Neese,F.
     An overlap fitted chain of spheres exchange method
     J. Chem. Phys., 2011 135 144105
     doi.org/10.1063/1.3646921
  2. Izsak,R.; Hansen,A.; Neese,F.
     The resolution of identity and chain of spheres approximations for the LPNO-CCSD singles Fock term
     Molec. Phys., 2012 110 2413-2417
     doi.org/10.1080/00268976.2012.687466
  3. Neese,F.
     The ORCA program system
     WIRES Comput. Molec. Sci., 2012 2(1)73-78
     doi.org/10.1002/wcms.81
  4. Izsak,R.; Neese,F.; Klopper,W.
     Robust fitting techniques in the chain of spheres approximation to the Fock exchange: The role of the complementary space
     J. Chem. Phys., 2013 139 
     doi.org/10.1063/1.4819264
  5. Neese,F.
     Software update: the ORCA program system, version 4.0
     WIRES Comput. Molec. Sci., 2018 8(1)1-6
     doi.org/10.1002/wcms.1327
  6. Neese,F.; Wennmohs,F.; Becker,U.; Riplinger,C.
     The ORCA quantum chemistry program package
     J. Chem. Phys., 2020 152 Art. No. L224108
     doi.org/10.1063/5.0004608

List of optional additional citations

  1. Neese,F.
     Approximate second-order SCF convergence for spin unrestricted wavefunctions
     Chem. Phys. Lett., 2000 325(1-3)93-98
     doi.org/10.1016/s0009-2614(00)00662-x

Timings for individual modules:

Sum of individual times          ...      721.542 sec (=  12.026 min)
Startup calculation              ...       28.307 sec (=   0.472 min)   3.9 %
SCF iterations                   ...      342.323 sec (=   5.705 min)  47.4 %
Property integrals               ...       53.811 sec (=   0.897 min)   7.5 %
SCF Response                     ...      135.547 sec (=   2.259 min)  18.8 %
Property calculations            ...       90.192 sec (=   1.503 min)  12.5 %
SCF Gradient evaluation          ...       70.690 sec (=   1.178 min)   9.8 %
Geometry relaxation              ...        0.672 sec (=   0.011 min)   0.1 %
                             ****ORCA TERMINATED NORMALLY****
TOTAL RUN TIME: 0 days 0 hours 12 minutes 26 seconds 875 msec
