 vasp.6.4.2 20Jul23 (build Sep 06 2024 14:39:43) complex                        
  
 executed on             LinuxIFC date 2025.09.11  20:00:34
 running   90 mpi-ranks, on    6 nodes
 distrk:  each k-point on   90 cores,    1 groups
 distr:  one band on NCORE=  15 cores,    6 groups


--------------------------------------------------------------------------------------------------------


 INCAR:
   SYSTEM = 103_red
   ISTART = 1
   ICHARG = 2
   INIWAV = 1
   NELM = 100
   ALGO = fast   	
   ISPIN = 2
   EDIFF = 1E-05
   ISMEAR = 0
   SIGMA = 0.05
   PREC = accurate
   ENCUT = 500
   LREAL = auto  	
   LWAVE = .TRUE.
   LCHARG = .FALSE.
   LAECHG = .FALSE.
   LVHAR = .FALSE.
   LVTOT = .FALSE.
   EDIFFG = -0.02
   IBRION = 2
   NSW = 500
   ISIF = 2
   POTIM = 0.5
   IVDW = 11
   LPLANE = .TRUE.
   NCORE = 15
   LSCALU = .FALSE.
   NSIM = 4
   LSOL = .TRUE.
   EB_K = 35.6880
   LAMBDA_D_K = 3.04
   NELECT = 35

 POTCAR:    PAW_PBE C 08Apr2002                   
 POTCAR:    PAW_PBE N 08Apr2002                   
 POTCAR:    PAW_PBE H 15Jun2001                   
 -----------------------------------------------------------------------------
|                                                                             |
|           W    W    AA    RRRRR   N    N  II  N    N   GGGG   !!!           |
|           W    W   A  A   R    R  NN   N  II  NN   N  G    G  !!!           |
|           W    W  A    A  R    R  N N  N  II  N N  N  G       !!!           |
|           W WW W  AAAAAA  RRRRR   N  N N  II  N  N N  G  GGG   !            |
|           WW  WW  A    A  R   R   N   NN  II  N   NN  G    G                |
|           W    W  A    A  R    R  N    N  II  N    N   GGGG   !!!           |
|                                                                             |
|     You use a magnetic or noncollinear calculation, but did not specify     |
|     the initial magnetic moment with the MAGMOM tag. Note that a            |
|     default of 1 will be used for all atoms. This ferromagnetic setup       |
|     may break the symmetry of the crystal, in particular it may rule        |
|     out finding an antiferromagnetic solution. Thence, we recommend         |
|     setting the initial magnetic moment manually or verifying carefully     |
|     that this magnetic setup is desired.                                    |
|                                                                             |
 -----------------------------------------------------------------------------

 POTCAR:    PAW_PBE C 08Apr2002                   
   SHA256 =  253f7b50bb8d59471dbedb8285d89021f4a42ed1a2c5d38a03a736e69125dd95 C/POTCAR              
   COPYR  = (c) Copyright 08Apr2002 Georg Kresse                                                    
   COPYR  = This file is part of the software VASP. Any use, copying, and all other rights are regul
   COPYR  = If you do not have a valid VASP license, you may not use, copy or distribute this file. 
   VRHFIN =C: s2p2                                                                                  
   LEXCH  = PE                                                                                      
   EATOM  =   147.1560 eV,   10.8157 Ry                                                             
                                                                                                    
   TITEL  = PAW_PBE C 08Apr2002                                                                     
   LULTRA =        F    use ultrasoft PP ?                                                          
   IUNSCR =        1    unscreen: 0-lin 1-nonlin 2-no                                               
   RPACOR =    1.200    partial core radius                                                         
   POMASS =   12.011; ZVAL   =    4.000    mass and valenz                                          
   RCORE  =    1.500    outmost cutoff radius                                                       
   RWIGS  =    1.630; RWIGS  =    0.863    wigner-seitz radius (au A)                               
   ENMAX  =  400.000; ENMIN  =  300.000 eV                                                          
   ICORE  =        2    local potential                                                             
   LCOR   =        T    correct aug charges                                                         
   LPAW   =        T    paw PP                                                                      
   EAUG   =  644.873                                                                                
   DEXC   =    0.000                                                                                
   RMAX   =    1.529    core radius for proj-oper                                                   
   RAUG   =    1.300    factor for augmentation sphere                                              
   RDEP   =    1.501    radius for radial grids                                                     
   RDEPT  =    1.300    core radius for aug-charge                                                  
                                                                                                    
   Atomic configuration                                                                             
    4 entries                                                                                       
     n  l   j            E        occ.                                                              
     1  0  0.50      -273.3789   2.0000                                                             
     2  0  0.50       -13.7508   2.0000                                                             
     2  1  0.50        -5.2854   2.0000                                                             
     3  2  1.50        -5.4423   0.0000                                                             
   Description                                                                                      
     l       E           TYP  RCUT    TYP  RCUT                                                     
     0    -13.7508458     23  1.200                                                                 
     0     -8.2022199     23  1.200                                                                 
     1     -5.2854383     23  1.500                                                                 
     1     34.0145650     23  1.500                                                                 
     2     -5.4423304      7  1.500                                                                 
  local pseudopotential read in
  partial core-charges read in
  partial kinetic energy density read in
  atomic valenz-charges read in
  non local Contribution for L=           0  read in
    real space projection operators read in
  non local Contribution for L=           0  read in
    real space projection operators read in
  non local Contribution for L=           1  read in
    real space projection operators read in
  non local Contribution for L=           1  read in
    real space projection operators read in
    PAW grid and wavefunctions read in
 
   number of l-projection  operators is LMAX  =           4
   number of lm-projection operators is LMMAX =           8
 
 POTCAR:    PAW_PBE N 08Apr2002                   
   SHA256 =  e053789ff3a61a86a1b75d8a110fcc91f86041011e7b0817c7c99e4e8a6349d7 N/POTCAR              
   COPYR  = (c) Copyright 08Apr2002 Georg Kresse                                                    
   COPYR  = This file is part of the software VASP. Any use, copying, and all other rights are regul
   COPYR  = If you do not have a valid VASP license, you may not use, copy or distribute this file. 
   VRHFIN =N: s2p3                                                                                  
   LEXCH  = PE                                                                                      
   EATOM  =   264.5486 eV,   19.4438 Ry                                                             
                                                                                                    
   TITEL  = PAW_PBE N 08Apr2002                                                                     
   LULTRA =        F    use ultrasoft PP ?                                                          
   IUNSCR =        1    unscreen: 0-lin 1-nonlin 2-no                                               
   RPACOR =    1.200    partial core radius                                                         
   POMASS =   14.001; ZVAL   =    5.000    mass and valenz                                          
   RCORE  =    1.500    outmost cutoff radius                                                       
   RWIGS  =    1.400; RWIGS  =    0.741    wigner-seitz radius (au A)                               
   ENMAX  =  400.000; ENMIN  =  300.000 eV                                                          
   ICORE  =        2    local potential                                                             
   LCOR   =        T    correct aug charges                                                         
   LPAW   =        T    paw PP                                                                      
   EAUG   =  627.112                                                                                
   DEXC   =    0.000                                                                                
   RMAX   =    1.529    core radius for proj-oper                                                   
   RAUG   =    1.300    factor for augmentation sphere                                              
   RDEP   =    1.514    radius for radial grids                                                     
   RDEPT  =    1.338    core radius for aug-charge                                                  
                                                                                                    
   Atomic configuration                                                                             
    4 entries                                                                                       
     n  l   j            E        occ.                                                              
     1  0  0.50      -384.7179   2.0000                                                             
     2  0  0.50       -18.5828   2.0000                                                             
     2  1  0.50        -7.0898   3.0000                                                             
     3  2  1.50        -6.8029   0.0000                                                             
   Description                                                                                      
     l       E           TYP  RCUT    TYP  RCUT                                                     
     0    -18.5828119     23  1.200                                                                 
     0    -13.5018863     23  1.200                                                                 
     1     -7.0897853     23  1.500                                                                 
     1      9.5240782     23  1.500                                                                 
     2     -6.8029130      7  1.500                                                                 
  local pseudopotential read in
  partial core-charges read in
  partial kinetic energy density read in
  atomic valenz-charges read in
  non local Contribution for L=           0  read in
    real space projection operators read in
  non local Contribution for L=           0  read in
    real space projection operators read in
  non local Contribution for L=           1  read in
    real space projection operators read in
  non local Contribution for L=           1  read in
    real space projection operators read in
    PAW grid and wavefunctions read in
 
   number of l-projection  operators is LMAX  =           4
   number of lm-projection operators is LMMAX =           8
 
 POTCAR:    PAW_PBE H 15Jun2001                   
   SHA256 =  030f79b5d3ab3cf0e668861823c8fb652ff669f3e15e46930bd03bfd63a607b6 H/POTCAR              
   COPYR  = (c) Copyright 15Jun2001 Georg Kresse                                                    
   COPYR  = This file is part of the software VASP. Any use, copying, and all other rights are regul
   COPYR  = If you do not have a valid VASP license, you may not use, copy or distribute this file. 
   VRHFIN =H: ultrasoft test                                                                        
   LEXCH  = PE                                                                                      
   EATOM  =    12.4884 eV,    0.9179 Ry                                                             
                                                                                                    
   TITEL  = PAW_PBE H 15Jun2001                                                                     
   LULTRA =        F    use ultrasoft PP ?                                                          
   IUNSCR =        0    unscreen: 0-lin 1-nonlin 2-no                                               
   RPACOR =    0.000    partial core radius                                                         
   POMASS =    1.000; ZVAL   =    1.000    mass and valenz                                          
   RCORE  =    1.100    outmost cutoff radius                                                       
   RWIGS  =    0.700; RWIGS  =    0.370    wigner-seitz radius (au A)                               
   ENMAX  =  250.000; ENMIN  =  200.000 eV                                                          
   RCLOC  =    0.701    cutoff for local pot                                                        
   LCOR   =        T    correct aug charges                                                         
   LPAW   =        T    paw PP                                                                      
   EAUG   =  400.000                                                                                
   RMAX   =    1.123    core radius for proj-oper                                                   
   RAUG   =    1.200    factor for augmentation sphere                                              
   RDEP   =    1.112    radius for radial grids                                                     
   RDEPT  =    0.926    core radius for aug-charge                                                  
                                                                                                    
   Atomic configuration                                                                             
    2 entries                                                                                       
     n  l   j            E        occ.                                                              
     1  0  0.50        -6.4927   1.0000                                                             
     2  1  0.50        -3.4015   0.0000                                                             
   Description                                                                                      
     l       E           TYP  RCUT    TYP  RCUT                                                     
     0     -6.4927494     23  1.100                                                                 
     0      6.8029130     23  1.100                                                                 
     1     -4.0817478     23  1.100                                                                 
  local pseudopotential read in
  atomic valenz-charges read in
  non local Contribution for L=           0  read in
    real space projection operators read in
  non local Contribution for L=           0  read in
    real space projection operators read in
  non local Contribution for L=           1  read in
    real space projection operators read in
    PAW grid and wavefunctions read in
 
   number of l-projection  operators is LMAX  =           3
   number of lm-projection operators is LMMAX =           5
 
 Optimization of the real space projectors (new method)

 maximal supplied QI-value         = 25.13
 optimisation between [QCUT,QGAM] = [ 11.31, 22.87] = [ 35.82,146.48] Ry 
 Optimized for a Real-space Cutoff    1.03 Angstroem

   l    n(q)    QCUT    max X(q) W(low)/X(q) W(high)/X(q)  e(spline) 
   0      7    11.310   115.676    0.20E-03    0.90E-03    0.20E-06
   0      7    11.310    87.132    0.20E-03    0.89E-03    0.19E-06
   1      6    11.310     4.429    0.16E-03    0.28E-03    0.12E-06
   1      6    11.310     2.733    0.12E-03    0.21E-03    0.99E-07
 Optimization of the real space projectors (new method)

 maximal supplied QI-value         = 25.13
 optimisation between [QCUT,QGAM] = [ 11.31, 22.87] = [ 35.82,146.48] Ry 
 Optimized for a Real-space Cutoff    1.43 Angstroem

   l    n(q)    QCUT    max X(q) W(low)/X(q) W(high)/X(q)  e(spline) 
   0     10    11.310    79.467    0.42E-04    0.81E-04    0.60E-06
   0     10    11.310    66.151    0.40E-04    0.81E-04    0.60E-06
   1      9    11.310    17.416    0.14E-03    0.88E-04    0.14E-05
   1      9    11.310    12.382    0.15E-03    0.93E-04    0.14E-05
 Optimization of the real space projectors (new method)

 maximal supplied QI-value         = 34.20
 optimisation between [QCUT,QGAM] = [ 11.29, 22.57] = [ 35.68,142.71] Ry 
 Optimized for a Real-space Cutoff    1.20 Angstroem

   l    n(q)    QCUT    max X(q) W(low)/X(q) W(high)/X(q)  e(spline) 
   0      8    11.287    19.460    0.22E-03    0.50E-03    0.19E-06
   0      8    11.287    12.209    0.21E-03    0.48E-03    0.18E-06
   1      8    11.287     4.655    0.21E-03    0.11E-04    0.26E-06
  PAW_PBE C 08Apr2002                   :
 energy of atom  1       EATOM= -147.1560
 kinetic energy error for atom=    0.0076 (will be added to EATOM!!)
  PAW_PBE N 08Apr2002                   :
 energy of atom  2       EATOM= -264.5486
 kinetic energy error for atom=    0.0138 (will be added to EATOM!!)
  PAW_PBE H 15Jun2001                   :
 energy of atom  3       EATOM=  -12.4884
 kinetic energy error for atom=    0.0020 (will be added to EATOM!!)
 
 
 POSCAR: C N H
  positions in direct lattice
  velocities in cartesian coordinates
 exchange correlation table for  LEXCH =        8
   RHO(1)=    0.500       N(1)  =     2000
   RHO(2)=  100.500       N(2)  =     4000
 


--------------------------------------------------------------------------------------------------------


 ion  position               nearest neighbor table
   1  0.495  0.469  0.500-  14 1.09   2 1.38   6 1.44
   2  0.529  0.469  0.501-  13 1.09   1 1.38   3 1.41
   3  0.547  0.500  0.501-  12 1.09   2 1.41   4 1.41
   4  0.529  0.531  0.501-  11 1.09   5 1.38   3 1.41
   5  0.495  0.531  0.500-  10 1.09   4 1.38   6 1.44
   6  0.477  0.500  0.499-   7 1.33   1 1.44   5 1.44
   7  0.444  0.500  0.498-   8 1.02   9 1.02   6 1.33
   8  0.431  0.522  0.498-   7 1.02
   9  0.431  0.478  0.498-   7 1.02
  10  0.481  0.554  0.500-   5 1.09
  11  0.543  0.554  0.501-   4 1.09
  12  0.574  0.500  0.502-   3 1.09
  13  0.543  0.446  0.501-   2 1.09
  14  0.481  0.446  0.500-   1 1.09
 
  LATTYP: Found a simple cubic cell.
 ALAT       =    40.0000000000
  
  Lattice vectors:
  
 A1 = (  40.0000000000,   0.0000000000,   0.0000000000)
 A2 = (   0.0000000000,  40.0000000000,   0.0000000000)
 A3 = (   0.0000000000,   0.0000000000,  40.0000000000)


Analysis of symmetry for initial positions (statically):
=====================================================================
 Subroutine PRICEL returns:
 Original cell was already a primitive cell.
 

 Routine SETGRP: Setting up the symmetry group for a 
 simple cubic supercell.


 Subroutine GETGRP returns: Found  2 space group operations
 (whereof  2 operations were pure point group operations)
 out of a pool of 48 trial point group operations.


The static configuration has the point symmetry C_1h.


Analysis of symmetry for dynamics (positions and initial velocities):
=====================================================================
 Subroutine PRICEL returns:
 Original cell was already a primitive cell.
 

 Routine SETGRP: Setting up the symmetry group for a 
 simple cubic supercell.


 Subroutine GETGRP returns: Found  2 space group operations
 (whereof  2 operations were pure point group operations)
 out of a pool of 48 trial point group operations.


The dynamic configuration has the point symmetry C_1h.


Analysis of constrained symmetry for selective dynamics:
=====================================================================
 Subroutine PRICEL returns:
 Original cell was already a primitive cell.
 

 Routine SETGRP: Setting up the symmetry group for a 
 simple cubic supercell.


 Subroutine GETGRP returns: Found  2 space group operations
 (whereof  2 operations were pure point group operations)
 out of a pool of 48 trial point group operations.


The constrained configuration has the point symmetry C_1h.


Analysis of structural, dynamic, and magnetic symmetry:
=====================================================================
 Subroutine PRICEL returns:
 Original cell was already a primitive cell.
 

 Routine SETGRP: Setting up the symmetry group for a 
 simple cubic supercell.


 Subroutine GETGRP returns: Found  2 space group operations
 (whereof  2 operations were pure point group operations)
 out of a pool of 48 trial point group operations.


The overall configuration has the point symmetry C_1h.


 Subroutine INISYM returns: Found  2 space group operations
 (whereof  2 operations are pure point group operations),
 and found     1 'primitive' translations


----------------------------------------------------------------------------------------

                                     Primitive cell                                     

  volume of cell :   64000.0000

  direct lattice vectors                    reciprocal lattice vectors
    40.000000000  0.000000000  0.000000000     0.025000000  0.000000000  0.000000000
     0.000000000 40.000000000  0.000000000     0.000000000  0.025000000  0.000000000
     0.000000000  0.000000000 40.000000000     0.000000000  0.000000000  0.025000000

  length of vectors
    40.000000000 40.000000000 40.000000000     0.025000000  0.025000000  0.025000000

  position of ions in fractional coordinates (direct lattice)
     0.494983875  0.468919239  0.500002747
     0.529396206  0.469298960  0.500998337
     0.546835557  0.499999000  0.501412477
     0.529396206  0.530700040  0.500998337
     0.494984875  0.531080761  0.500002747
     0.477043999  0.500000000  0.499355038
     0.443742620  0.500001000  0.498110306
     0.430508662  0.521767862  0.497580580
     0.430507662  0.478234138  0.497580580
     0.481017092  0.554458471  0.499603419
     0.543247733  0.554146746  0.501426557
     0.574072686  0.499999000  0.501899901
     0.543246733  0.445852254  0.501426557
     0.481015092  0.445541529  0.499603419

  ion indices of the primitive-cell ions
   primitive index   ion index
                 1           1
                 2           2
                 3           3
                 4           4
                 5           5
                 6           6
                 7           7
                 8           8
                 9           9
                10          10
                11          11
                12          12
                13          13
                14          14

----------------------------------------------------------------------------------------

 
 
 KPOINTS: K-Point Grid                            

Automatic generation of k-mesh.
 Grid dimensions read from file:
 generate k-points for:    1    1    1

 Generating k-lattice:

  Cartesian coordinates                     Fractional coordinates (reciprocal lattice)
     0.025000000  0.000000000  0.000000000     1.000000000  0.000000000  0.000000000
     0.000000000  0.025000000  0.000000000     0.000000000  1.000000000  0.000000000
     0.000000000  0.000000000  0.025000000     0.000000000  0.000000000  1.000000000

  Length of vectors
     0.025000000  0.025000000  0.025000000

  Shift w.r.t. Gamma in fractional coordinates (k-lattice)
     0.000000000  0.000000000  0.000000000

 
 Subroutine IBZKPT returns following result:
 ===========================================
 
 Found      1 irreducible k-points:
 
 Following reciprocal coordinates:
            Coordinates               Weight
  0.000000  0.000000  0.000000      1.000000
 
 Following cartesian coordinates:
            Coordinates               Weight
  0.000000  0.000000  0.000000      1.000000
 


--------------------------------------------------------------------------------------------------------




 Dimension of arrays:
   k-points           NKPTS =      1   k-points in BZ     NKDIM =      1   number of bands    NBANDS=     36
   number of dos      NEDOS =    301   number of ions     NIONS =     14
   non local maximal  LDIM  =      4   non local SUM 2l+1 LMDIM =      8
   total plane-waves  NPLWV = ******
   max r-space proj   IRMAX =   4928   max aug-charges    IRDMAX=   5085
   dimension x,y,z NGX =   294 NGY =  294 NGZ =  294
   dimension x,y,z NGXF=   588 NGYF=  588 NGZF=  588
   support grid    NGXF=   588 NGYF=  588 NGZF=  588
   ions per type =               6   1   7
   NGX,Y,Z   is equivalent  to a cutoff of  12.22, 12.22, 12.22 a.u.
   NGXF,Y,Z  is equivalent  to a cutoff of  24.44, 24.44, 24.44 a.u.

 SYSTEM =  103_red                                 
 POSCAR =  C N H                                   

 Startparameter for this run:
   NWRITE =      2    write-flag & timer
   PREC   = accura    normal or accurate (medium, high low for compatibility)
   ISTART =      1    job   : 0-new  1-cont  2-samecut
   ICHARG =      2    charge: 1-file 2-atom 10-const
   ISPIN  =      2    spin polarized calculation?
   LNONCOLLINEAR =      F non collinear calculations
   LSORBIT =      F    spin-orbit coupling
   INIWAV =      1    electr: 0-lowe 1-rand  2-diag
   LASPH  =      F    aspherical Exc in radial PAW
 Electronic Relaxation 1
   ENCUT  =  500.0 eV  36.75 Ry    6.06 a.u.  72.93 72.93 72.93*2*pi/ulx,y,z
   ENINI  =  500.0     initial cutoff
   ENAUG  =  644.9 eV  augmentation charge cutoff
   NELM   =    100;   NELMIN=  2; NELMDL=  0     # of ELM steps 
   EDIFF  = 0.1E-04   stopping-criterion for ELM
   LREAL  =      T    real-space projection
   NLSPLINE    = F    spline interpolate recip. space projectors
   LCOMPAT=      F    compatible to vasp.4.4
   GGA_COMPAT  = T    GGA compatible to vasp.4.4-vasp.4.6
   LMAXPAW     = -100 max onsite density
   LMAXMIX     =    2 max onsite mixed and CHGCAR
   VOSKOWN=      0    Vosko Wilk Nusair interpolation
   ROPT   =   -0.00025  -0.00025  -0.00025
 Ionic relaxation
   EDIFFG = -.2E-01   stopping-criterion for IOM
   NSW    =    500    number of steps for IOM
   NBLOCK =      1;   KBLOCK =    500    inner block; outer block 
   IBRION =      2    ionic relax: 0-MD 1-quasi-New 2-CG
   NFREE  =      1    steps in history (QN), initial steepest desc. (CG)
   ISIF   =      2    stress and relaxation
   IWAVPR =     11    prediction:  0-non 1-charg 2-wave 3-comb
   ISYM   =      2    0-nonsym 1-usesym 2-fastsym
   LCORR  =      T    Harris-Foulkes like correction to forces

   POTIM  = 0.5000    time-step for ionic-motion
   TEIN   =    0.0    initial temperature
   TEBEG  =    0.0;   TEEND  =   0.0 temperature during run
   SMASS  =  -3.00    Nose mass-parameter (am)
   estimated Nose-frequenzy (Omega)   =  0.10E-29 period in steps = 0.13E+47 mass=  -0.366E-25a.u.
   SCALEE = 1.0000    scale energy and forces
   NPACO  =    256;   APACO  = 10.0  distance and # of slots for P.C.
   PSTRESS=    0.0 pullay stress

  Mass of Ions in am
   POMASS =  12.01 14.00  1.00
  Ionic Valenz
   ZVAL   =   4.00  5.00  1.00
  Atomic Wigner-Seitz radii
   RWIGS  =  -1.00 -1.00 -1.00
  virtual crystal weights 
   VCA    =   1.00  1.00  1.00
   NELECT =      35.0000    total number of electrons
   NUPDOWN=      -1.0000    fix difference up-down

 DOS related values:
   EMIN   =  10.00;   EMAX   =-10.00  energy-range for DOS
   EFERMI =   0.00;   METHOD = LEGACY      
   ISMEAR =     0;   SIGMA  =   0.05  broadening in eV -4-tet -1-fermi 0-gaus

 Electronic relaxation 2 (details)
   IALGO  =     68    algorithm
   LDIAG  =      T    sub-space diagonalisation (order eigenvalues)
   LSUBROT=      F    optimize rotation matrix (better conditioning)
   TURBO    =      0    0=normal 1=particle mesh
   IRESTART =      0    0=no restart 2=restart with 2 vectors
   NREBOOT  =      0    no. of reboots
   NMIN     =      0    reboot dimension
   EREF     =   0.00    reference energy to select bands
   IMIX   =      4    mixing-type and parameters
     AMIX     =   0.40;   BMIX     =  1.00
     AMIX_MAG =   1.60;   BMIX_MAG =  1.00
     AMIN     =   0.10
     WC   =   100.;   INIMIX=   1;  MIXPRE=   1;  MAXMIX= -45

 Intra band minimization:
   WEIMIN = 0.0010     energy-eigenvalue tresh-hold
   EBREAK =  0.69E-07  absolut break condition
   DEPER  =   0.30     relativ break condition  

   TIME   =   0.40     timestep for ELM

  volume/ion in A,a.u.               =    4571.43     30849.52
  Fermi-wavevector in a.u.,A,eV,Ry     =   0.133876  0.252990  0.243856  0.017923
  Thomas-Fermi vector in A             =   0.780200
 
 Write flags
   LWAVE        =      T    write WAVECAR
   LDOWNSAMPLE  =      F    k-point downsampling of WAVECAR
   LCHARG       =      F    write CHGCAR
   LVTOT        =      F    write LOCPOT, total local potential
   LVHAR        =      F    write LOCPOT, Hartree potential only
   LELF         =      F    write electronic localiz. function (ELF)
   LORBIT       =      0    0 simple, 1 ext, 2 COOP (PROOUT), +10 PAW based schemes


 Dipole corrections
   LMONO  =      F    monopole corrections only (constant potential shift)
   LDIPOL =      F    correct potential (dipole corrections)
   IDIPOL =      0    1-x, 2-y, 3-z, 4-all directions 
   EPSILON=  1.0000000 bulk dielectric constant

 Exchange correlation treatment:
   GGA     =    --    GGA type
   LEXCH   =     8    internal setting for exchange type
   LIBXC   =     F    Libxc                    
   VOSKOWN =     0    Vosko Wilk Nusair interpolation
   LHFCALC =     F    Hartree Fock is set to
   LHFONE  =     F    Hartree Fock one center treatment
   AEXX    =    0.0000 exact exchange contribution

 Linear response parameters
   LEPSILON=     F    determine dielectric tensor
   LRPA    =     F    only Hartree local field effects (RPA)
   LNABLA  =     F    use nabla operator in PAW spheres
   LVEL    =     F    velocity operator in full k-point grid
   CSHIFT  =0.1000    complex shift for real part using Kramers Kronig
   OMEGAMAX=  -1.0    maximum frequency
   DEG_THRESHOLD= 0.2000000E-02 threshold for treating states as degnerate
   RTIME   =   -0.100 relaxation time in fs
  (WPLASMAI=    0.000 imaginary part of plasma frequency in eV, 0.658/RTIME)
   DFIELD  = 0.0000000 0.0000000 0.0000000 field for delta impulse in time
 
  Optional k-point grid parameters
   LKPOINTS_OPT  =     F    use optional k-point grid
   KPOINTS_OPT_MODE=     1    mode for optional k-point grid
 
 Orbital magnetization related:
   ORBITALMAG=     F  switch on orbital magnetization
   LCHIMAG   =     F  perturbation theory with respect to B field
   DQ        =  0.001000  dq finite difference perturbation B field
   LLRAUG    =     F  two centre corrections for induced B field
   LBONE     =     F  B-component reconstruction in AE one-centre
   LVGVCALC  =     T  calculate vGv susceptibility
   LVGVAPPL  =     F  apply vGv susceptibility instead of pGv for G=0

 Random number generation:
   RANDOM_GENERATOR = DEFAULT
   PCG_SEED         = not used
 Solvation model:
   LSOL    =     T         switch on solvation model
   EB_K    = 35.688000     relative permittivity of the bulk solvent
   SIGMA_K =  0.600000     width of the dielectric cavity
   NC_K    =  0.002500     cutoff charge density
   TAU     =  0.000525     cavity surface tension
   LAMBDA_D_K    =  3.040000     Debye length in Angstroms
   LRHOB     =     F     write boundcharge  density
   LRHOION     =     F     write ioniccharge density



--------------------------------------------------------------------------------------------------------


 conjugate gradient relaxation of ions
   using selective dynamics as specified on POSCAR
 charge density and potential will be updated during run
 spin polarized calculation
 RMM-DIIS sequential band-by-band and
  variant of blocked Davidson during initial phase
 perform sub-space diagonalisation
    before iterative eigenvector-optimisation
 modified Broyden-mixing scheme, WC =      100.0
 initial mixing is a Kerker type mixing with AMIX =  0.4000 and BMIX =      1.0000
 Hartree-type preconditioning will be used
 using additional bands           18
 real space projection scheme for non local part
 use partial core corrections
 calculate Harris-corrections to forces 
   (improved forces if not selfconsistent)
 use gradient corrections 
 use of overlap-Matrix (Vanderbilt PP)
 Gauss-broadening in eV      SIGMA  =   0.05


--------------------------------------------------------------------------------------------------------


  energy-cutoff  :      500.00
  volume of cell :    64000.00
      direct lattice vectors                 reciprocal lattice vectors
    40.000000000  0.000000000  0.000000000     0.025000000  0.000000000  0.000000000
     0.000000000 40.000000000  0.000000000     0.000000000  0.025000000  0.000000000
     0.000000000  0.000000000 40.000000000     0.000000000  0.000000000  0.025000000

  length of vectors
    40.000000000 40.000000000 40.000000000     0.025000000  0.025000000  0.025000000


 
 old parameters found on file WAVECAR:
  energy-cutoff  :      500.00
  volume of cell :    64000.00
      direct lattice vectors                 reciprocal lattice vectors
    40.000000000  0.000000000  0.000000000     0.025000000  0.000000000  0.000000000
     0.000000000 40.000000000  0.000000000     0.000000000  0.025000000  0.000000000
     0.000000000  0.000000000 40.000000000     0.000000000  0.000000000  0.025000000

  length of vectors

 
 k-points in units of 2pi/SCALE and weight: K-Point Grid                            
   0.00000000  0.00000000  0.00000000       1.000
 
 k-points in reciprocal lattice and weights: K-Point Grid                            
   0.00000000  0.00000000  0.00000000       1.000
 
 position of ions in fractional coordinates (direct lattice) 
   0.49498388  0.46891924  0.50000275
   0.52939621  0.46929896  0.50099834
   0.54683556  0.49999900  0.50141248
   0.52939621  0.53070004  0.50099834
   0.49498488  0.53108076  0.50000275
   0.47704400  0.50000000  0.49935504
   0.44374262  0.50000100  0.49811031
   0.43050866  0.52176786  0.49758058
   0.43050766  0.47823414  0.49758058
   0.48101709  0.55445847  0.49960342
   0.54324773  0.55414675  0.50142656
   0.57407269  0.49999900  0.50189990
   0.54324673  0.44585225  0.50142656
   0.48101509  0.44554153  0.49960342
 
 position of ions in cartesian coordinates  (Angst):
  19.79935502 18.75676957 20.00010987
  21.17584823 18.77195841 20.03993348
  21.87342227 19.99996000 20.05649908
  21.17584823 21.22800159 20.03993348
  19.79939502 21.24323043 20.00010987
  19.08175994 20.00000000 19.97420153
  17.74970481 20.00004000 19.92441223
  17.22034649 20.87071447 19.90322319
  17.22030649 19.12936553 19.90322319
  19.24068369 22.17833886 19.98413676
  21.72990934 22.16586985 20.05706227
  22.96290743 19.99996000 20.07599602
  21.72986934 17.83409015 20.05706227
  19.24060369 17.82166114 19.98413676
 


--------------------------------------------------------------------------------------------------------


 k-point   1 :   0.0000 0.0000 0.0000  plane waves: 1624525

 maximum and minimum number of plane-waves per node :    108307   108296

 maximum number of plane-waves:   1624525
 maximum index in each direction: 
   IXMAX=   72   IYMAX=   72   IZMAX=   72
   IXMIN=  -72   IYMIN=  -72   IZMIN=  -72


 real space projection operators:
  total allocation   :       1727.80 KBytes
  max/ min on nodes  :        140.48         91.39


 parallel 3D FFT for wavefunctions:
    minimum data exchange during FFTs selected (reduces bandwidth)
 parallel 3D FFT for charge:
    minimum data exchange during FFTs selected (reduces bandwidth)


 total amount of memory used by VASP MPI-rank0   535568. kBytes
=======================================================================

   base      :      30000. kBytes
   nonlr-proj:       1279. kBytes
   fftplans  :     131430. kBytes
   grid      :     352056. kBytes
   one-center:          6. kBytes
   wavefun   :      20797. kBytes
 
     INWAV:  cpu time     10.1913: real time     10.1984
 Broyden mixing: mesh for mixing (old mesh)
   NGX =145   NGY =145   NGZ =145
  (NGX  =588   NGY  =588   NGZ  =588)
  gives a total of ****** points

 initial charge density was supplied:
 charge density of overlapping atoms calculated
 number of electron      36.0000000 magnetization      14.0000000
 keeping initial charge density in first step


--------------------------------------------------------------------------------------------------------


 Maximum index for non-local projection operator          276
 Maximum index for augmentation-charges           85 (set IRDMAX)


--------------------------------------------------------------------------------------------------------


 First call to EWALD:  gamma=   0.044
 Maximum number of real-space cells 3x 3x 3
 Maximum number of reciprocal cells 3x 3x 3

    FEWALD:  cpu time      0.1451: real time      0.1451


--------------------------------------- Ionic step        1  -------------------------------------------




--------------------------------------- Iteration      1(   1)  ---------------------------------------


    POTLOK:  cpu time    507.0666: real time    507.0777
    SETDIJ:  cpu time      0.0390: real time      0.0390
     EDDAV:  cpu time     29.9098: real time     29.9092
       DOS:  cpu time      0.2027: real time      0.2027
    CHARGE:  cpu time      9.4900: real time      9.4897
    MIXING:  cpu time      0.1120: real time      0.1121
    --------------------------------------------
      LOOP:  cpu time    546.8202: real time    546.8306

 eigenvalue-minimisations  :   168
 total energy-change (2. order) :-0.7467962E+02  (-0.5938026E+01)
 number of electron      35.0000003 magnetization      13.4991388
 augmentation part        1.0551610 magnetization      12.5954337

 Broyden mixing:
  rms(total) = 0.23544E+01    rms(broyden)= 0.23540E+01
  rms(prec ) = 0.23766E+01
  weight for this iteration     100.00

 Free energy of the ion-electron system (eV)
  ---------------------------------------------------
  alpha Z        PSCENC =         0.09102512
  Ewald energy   TEWEN  =      3132.37418968
  -Hartree energ DENC   =     -3943.52618156
  -exchange      EXHF   =         0.00000000
  -V(xc)+E(xc)   XCENC  =       117.41250618
  PAW double counting   =       867.71936000     -872.32611028
  entropy T*S    EENTRO =        -0.00000000
  eigenvalues    EBANDS =      -604.86357615
  atomic energy  EATOM  =      1234.83038864
  Solvation  Ediel_sol  =        -6.39122028
  ---------------------------------------------------
  free energy    TOTEN  =       -74.67961865 eV

  energy without entropy =      -74.67961865  energy(sigma->0) =      -74.67961865


--------------------------------------------------------------------------------------------------------




--------------------------------------- Iteration      1(   2)  ---------------------------------------


    POTLOK:  cpu time    522.2115: real time    522.2178
    SETDIJ:  cpu time      0.0360: real time      0.0360
    EDDIAG:  cpu time      4.1017: real time      4.1038
  RMM-DIIS:  cpu time      6.5448: real time      6.5447
    ORTHCH:  cpu time      0.8186: real time      0.8186
       DOS:  cpu time      0.3786: real time      0.3786
    CHARGE:  cpu time      8.6719: real time      8.6717
    MIXING:  cpu time      0.1192: real time      0.1258
    --------------------------------------------
      LOOP:  cpu time    542.8823: real time    542.8968

 eigenvalue-minimisations  :   144
 total energy-change (2. order) : 0.3614169E+02  (-0.6322298E+01)
 number of electron      35.0000002 magnetization      12.9700424
 augmentation part        1.0294112 magnetization      12.0086336

 Broyden mixing:
  rms(total) = 0.11192E+01    rms(broyden)= 0.11191E+01
  rms(prec ) = 0.11372E+01
  weight for this iteration     100.00

 eigenvalues of (default mixing * dielectric matrix)
  average eigenvalue GAMMA=   0.9242
  0.9242

 Free energy of the ion-electron system (eV)
  ---------------------------------------------------
  alpha Z        PSCENC =         0.09102512
  Ewald energy   TEWEN  =      3132.37418968
  -Hartree energ DENC   =     -3994.57833987
  -exchange      EXHF   =         0.00000000
  -V(xc)+E(xc)   XCENC  =       152.64181879
  PAW double counting   =      1577.17492854    -1582.54124043
  entropy T*S    EENTRO =        -0.00000000
  eigenvalues    EBANDS =      -535.59089379
  atomic energy  EATOM  =      1234.83038864
  Solvation  Ediel_sol  =       -22.93980860
  ---------------------------------------------------
  free energy    TOTEN  =       -38.53793192 eV

  energy without entropy =      -38.53793192  energy(sigma->0) =      -38.53793192


--------------------------------------------------------------------------------------------------------




--------------------------------------- Iteration      1(   3)  ---------------------------------------


    POTLOK:  cpu time    497.8565: real time    497.8569
    SETDIJ:  cpu time      0.0347: real time      0.0347
    EDDIAG:  cpu time      4.2392: real time      4.2391
  RMM-DIIS:  cpu time      6.3702: real time      6.3701
    ORTHCH:  cpu time      1.6693: real time      1.6693
       DOS:  cpu time      0.0019: real time      0.0019
    CHARGE:  cpu time      9.0797: real time      9.0795
    MIXING:  cpu time      0.1085: real time      0.1085
    --------------------------------------------
      LOOP:  cpu time    519.3598: real time    519.3600

 eigenvalue-minimisations  :   144
 total energy-change (2. order) :-0.2458207E+02  (-0.2729883E+01)
 number of electron      35.0000002 magnetization      12.3384744
 augmentation part        0.9904667 magnetization      11.3586261

 Broyden mixing:
  rms(total) = 0.65574E+00    rms(broyden)= 0.65568E+00
  rms(prec ) = 0.66349E+00
  weight for this iteration     100.00

 eigenvalues of (default mixing * dielectric matrix)
  average eigenvalue GAMMA=   1.1095
  0.7678  1.4512

 Free energy of the ion-electron system (eV)
  ---------------------------------------------------
  alpha Z        PSCENC =         0.09102512
  Ewald energy   TEWEN  =      3132.37418968
  -Hartree energ DENC   =     -4029.92953288
  -exchange      EXHF   =         0.00000000
  -V(xc)+E(xc)   XCENC  =       134.86427868
  PAW double counting   =      2195.03589147    -2200.82607080
  entropy T*S    EENTRO =        -0.00000000
  eigenvalues    EBANDS =      -489.83291960
  atomic energy  EATOM  =      1234.83038864
  Solvation  Ediel_sol  =       -39.72725204
  ---------------------------------------------------
  free energy    TOTEN  =       -63.12000172 eV

  energy without entropy =      -63.12000172  energy(sigma->0) =      -63.12000172


--------------------------------------------------------------------------------------------------------




--------------------------------------- Iteration      1(   4)  ---------------------------------------


    POTLOK:  cpu time    518.7138: real time    518.7165
    SETDIJ:  cpu time      0.0356: real time      0.0356
    EDDIAG:  cpu time      4.3682: real time      4.3681
  RMM-DIIS:  cpu time      6.2827: real time      6.2827
    ORTHCH:  cpu time      1.3987: real time      1.3986
       DOS:  cpu time      0.2286: real time      0.2286
    CHARGE:  cpu time      9.6691: real time      9.6688
    MIXING:  cpu time      0.1241: real time      0.1241
    --------------------------------------------
      LOOP:  cpu time    540.8208: real time    540.8231

 eigenvalue-minimisations  :   144
 total energy-change (2. order) :-0.6724376E+01  (-0.1057747E+01)
 number of electron      35.0000002 magnetization      11.7834836
 augmentation part        0.9645345 magnetization      10.8139355

 Broyden mixing:
  rms(total) = 0.44589E+00    rms(broyden)= 0.44582E+00
  rms(prec ) = 0.45159E+00
  weight for this iteration     100.00

 eigenvalues of (default mixing * dielectric matrix)
  average eigenvalue GAMMA=   1.1032
  1.5611  1.0656  0.6830

 Free energy of the ion-electron system (eV)
  ---------------------------------------------------
  alpha Z        PSCENC =         0.09102512
  Ewald energy   TEWEN  =      3132.37418968
  -Hartree energ DENC   =     -4043.47436640
  -exchange      EXHF   =         0.00000000
  -V(xc)+E(xc)   XCENC  =       131.20928985
  PAW double counting   =      2728.37183671    -2734.32004854
  entropy T*S    EENTRO =        -0.00000000
  eigenvalues    EBANDS =      -461.81992206
  atomic energy  EATOM  =      1234.83038864
  Solvation  Ediel_sol  =       -57.10677043
  ---------------------------------------------------
  free energy    TOTEN  =       -69.84437744 eV

  energy without entropy =      -69.84437744  energy(sigma->0) =      -69.84437744


--------------------------------------------------------------------------------------------------------




--------------------------------------- Iteration      1(   5)  ---------------------------------------


    POTLOK:  cpu time    509.2723: real time    509.2841
    SETDIJ:  cpu time      0.0358: real time      0.0358
    EDDIAG:  cpu time      4.3611: real time      4.3611
  RMM-DIIS:  cpu time      6.5832: real time      6.5835
    ORTHCH:  cpu time      1.0798: real time      1.0798
       DOS:  cpu time      0.0116: real time      0.0116
    CHARGE:  cpu time      9.6722: real time      9.6723
    MIXING:  cpu time      0.1256: real time      0.1256
    --------------------------------------------
      LOOP:  cpu time    531.1416: real time    531.1538

 eigenvalue-minimisations  :   147
 total energy-change (2. order) :-0.3495021E+01  (-0.2240189E+00)
 number of electron      35.0000002 magnetization      10.8921181
 augmentation part        0.9621622 magnetization       9.9298527

 Broyden mixing:
  rms(total) = 0.28305E+00    rms(broyden)= 0.28302E+00
  rms(prec ) = 0.28804E+00
  weight for this iteration     100.00

 eigenvalues of (default mixing * dielectric matrix)
  average eigenvalue GAMMA=   1.3359
  2.1795  1.6828  0.8313  0.6498

 Free energy of the ion-electron system (eV)
  ---------------------------------------------------
  alpha Z        PSCENC =         0.09102512
  Ewald energy   TEWEN  =      3132.37418968
  -Hartree energ DENC   =     -4032.35585781
  -exchange      EXHF   =         0.00000000
  -V(xc)+E(xc)   XCENC  =       128.47652513
  PAW double counting   =      2927.88195637    -2933.74793838
  entropy T*S    EENTRO =        -0.00000000
  eigenvalues    EBANDS =      -463.22955380
  atomic energy  EATOM  =      1234.83038864
  Solvation  Ediel_sol  =       -67.66013376
  ---------------------------------------------------
  free energy    TOTEN  =       -73.33939880 eV

  energy without entropy =      -73.33939880  energy(sigma->0) =      -73.33939880


--------------------------------------------------------------------------------------------------------




--------------------------------------- Iteration      1(   6)  ---------------------------------------


    POTLOK:  cpu time    521.0479: real time    521.0553
    SETDIJ:  cpu time      0.0407: real time      0.0407
    EDDIAG:  cpu time      4.2104: real time      4.2105
  RMM-DIIS:  cpu time      6.5313: real time      6.5313
    ORTHCH:  cpu time      1.1963: real time      1.1963
       DOS:  cpu time      0.1736: real time      0.1736
    CHARGE:  cpu time      8.8732: real time      8.8732
    MIXING:  cpu time      0.1303: real time      0.1303
    --------------------------------------------
      LOOP:  cpu time    542.2037: real time    542.2112

 eigenvalue-minimisations  :   144
 total energy-change (2. order) :-0.5278529E+01  (-0.2088636E+00)
 number of electron      35.0000002 magnetization      10.5147579
 augmentation part        0.9624204 magnetization       9.5658698

 Broyden mixing:
  rms(total) = 0.15679E+00    rms(broyden)= 0.15677E+00
  rms(prec ) = 0.16134E+00
  weight for this iteration     100.00

 eigenvalues of (default mixing * dielectric matrix)
  average eigenvalue GAMMA=   1.3070
  2.4952  1.5649  1.0336  0.7941  0.6470

 Free energy of the ion-electron system (eV)
  ---------------------------------------------------
  alpha Z        PSCENC =         0.09102512
  Ewald energy   TEWEN  =      3132.37418968
  -Hartree energ DENC   =     -4015.91756987
  -exchange      EXHF   =         0.00000000
  -V(xc)+E(xc)   XCENC  =       124.11471451
  PAW double counting   =      3156.67129064    -3162.43688144
  entropy T*S    EENTRO =        -0.00000000
  eigenvalues    EBANDS =      -466.54836939
  atomic energy  EATOM  =      1234.83038864
  Solvation  Ediel_sol  =       -81.79671559
  ---------------------------------------------------
  free energy    TOTEN  =       -78.61792769 eV

  energy without entropy =      -78.61792769  energy(sigma->0) =      -78.61792769


--------------------------------------------------------------------------------------------------------




--------------------------------------- Iteration      1(   7)  ---------------------------------------


    POTLOK:  cpu time    475.5271: real time    475.5289
    SETDIJ:  cpu time      0.0368: real time      0.0368
    EDDIAG:  cpu time      3.7663: real time      3.7663
  RMM-DIIS:  cpu time      6.4826: real time      6.4826
    ORTHCH:  cpu time      1.0400: real time      1.0400
       DOS:  cpu time      0.1776: real time      0.1776
    CHARGE:  cpu time      8.2965: real time      8.2963
    MIXING:  cpu time      0.1324: real time      0.1324
    --------------------------------------------
      LOOP:  cpu time    495.4593: real time    495.4608

 eigenvalue-minimisations  :   144
 total energy-change (2. order) :-0.6891433E+00  (-0.4769339E-01)
 number of electron      35.0000002 magnetization       9.9332773
 augmentation part        0.9535052 magnetization       8.9932148

 Broyden mixing:
  rms(total) = 0.13720E+00    rms(broyden)= 0.13718E+00
  rms(prec ) = 0.14146E+00
  weight for this iteration     100.00

 eigenvalues of (default mixing * dielectric matrix)
  average eigenvalue GAMMA=   1.1992
  2.4565  1.7681  0.8376  0.8376  0.6478  0.6478

 Free energy of the ion-electron system (eV)
  ---------------------------------------------------
  alpha Z        PSCENC =         0.09102512
  Ewald energy   TEWEN  =      3132.37418968
  -Hartree energ DENC   =     -4012.87578207
  -exchange      EXHF   =         0.00000000
  -V(xc)+E(xc)   XCENC  =       123.61068805
  PAW double counting   =      3168.65045986    -3174.43715614
  entropy T*S    EENTRO =        -0.00000000
  eigenvalues    EBANDS =      -465.54195684
  atomic energy  EATOM  =      1234.83038864
  Solvation  Ediel_sol  =       -86.00892733
  ---------------------------------------------------
  free energy    TOTEN  =       -79.30707103 eV

  energy without entropy =      -79.30707103  energy(sigma->0) =      -79.30707103


--------------------------------------------------------------------------------------------------------




--------------------------------------- Iteration      1(   8)  ---------------------------------------


    POTLOK:  cpu time    465.9421: real time    465.9433
    SETDIJ:  cpu time      0.0373: real time      0.0373
    EDDIAG:  cpu time      4.4534: real time      4.4535
  RMM-DIIS:  cpu time      6.3359: real time      6.3361
    ORTHCH:  cpu time      0.8225: real time      0.8225
       DOS:  cpu time      0.3704: real time      0.3704
    CHARGE:  cpu time      8.8904: real time      8.8905
    MIXING:  cpu time      0.1323: real time      0.1323
    --------------------------------------------
      LOOP:  cpu time    486.9843: real time    486.9858

 eigenvalue-minimisations  :   144
 total energy-change (2. order) :-0.7251587E+00  (-0.1947674E-01)
 number of electron      35.0000002 magnetization       8.4628064
 augmentation part        0.9535024 magnetization       7.5284373

 Broyden mixing:
  rms(total) = 0.10899E+00    rms(broyden)= 0.10898E+00
  rms(prec ) = 0.11267E+00
  weight for this iteration     100.00

 eigenvalues of (default mixing * dielectric matrix)
  average eigenvalue GAMMA=   1.4701
  2.9549  2.7017  1.2710  1.2710  0.8191  0.6631  0.6101

 Free energy of the ion-electron system (eV)
  ---------------------------------------------------
  alpha Z        PSCENC =         0.09102512
  Ewald energy   TEWEN  =      3132.37418968
  -Hartree energ DENC   =     -4003.38259013
  -exchange      EXHF   =         0.00000000
  -V(xc)+E(xc)   XCENC  =       122.80882225
  PAW double counting   =      3129.08494816    -3134.84772629
  entropy T*S    EENTRO =        -0.00000000
  eigenvalues    EBANDS =      -469.88109478
  atomic energy  EATOM  =      1234.83038864
  Solvation  Ediel_sol  =       -91.11019242
  ---------------------------------------------------
  free energy    TOTEN  =       -80.03222976 eV

  energy without entropy =      -80.03222976  energy(sigma->0) =      -80.03222976


--------------------------------------------------------------------------------------------------------




--------------------------------------- Iteration      1(   9)  ---------------------------------------


    POTLOK:  cpu time    479.2325: real time    479.2469
    SETDIJ:  cpu time      0.0380: real time      0.0380
    EDDIAG:  cpu time      4.4216: real time      4.4217
  RMM-DIIS:  cpu time      6.4215: real time      6.4217
    ORTHCH:  cpu time      0.9370: real time      0.9370
       DOS:  cpu time      0.0061: real time      0.0061
    CHARGE:  cpu time      9.8042: real time      9.8043
    MIXING:  cpu time      0.1452: real time      0.1452
    --------------------------------------------
      LOOP:  cpu time    501.0063: real time    501.0210

 eigenvalue-minimisations  :   150
 total energy-change (2. order) :-0.1581675E+01  (-0.6093429E-01)
 number of electron      35.0000002 magnetization       7.7802806
 augmentation part        0.9508996 magnetization       6.8536274

 Broyden mixing:
  rms(total) = 0.73401E-01    rms(broyden)= 0.73386E-01
  rms(prec ) = 0.75184E-01
  weight for this iteration     100.00

 eigenvalues of (default mixing * dielectric matrix)
  average eigenvalue GAMMA=   1.5274
  4.1627  2.4015  1.7010  0.8524  0.8524  0.8907  0.6198  0.7390

 Free energy of the ion-electron system (eV)
  ---------------------------------------------------
  alpha Z        PSCENC =         0.09102512
  Ewald energy   TEWEN  =      3132.37418968
  -Hartree energ DENC   =     -3983.84596113
  -exchange      EXHF   =         0.00000000
  -V(xc)+E(xc)   XCENC  =       121.15267048
  PAW double counting   =      3080.47551400    -3086.21677626
  entropy T*S    EENTRO =        -0.00000000
  eigenvalues    EBANDS =      -476.07916139
  atomic energy  EATOM  =      1234.83038864
  Solvation  Ediel_sol  =      -104.39579439
  ---------------------------------------------------
  free energy    TOTEN  =       -81.61390524 eV

  energy without entropy =      -81.61390524  energy(sigma->0) =      -81.61390524


--------------------------------------------------------------------------------------------------------




--------------------------------------- Iteration      1(  10)  ---------------------------------------


    POTLOK:  cpu time    475.0635: real time    475.0638
    SETDIJ:  cpu time      0.0330: real time      0.0330
    EDDIAG:  cpu time      4.0332: real time      4.0331
  RMM-DIIS:  cpu time      6.3673: real time      6.3673
    ORTHCH:  cpu time      0.9590: real time      0.9590
       DOS:  cpu time      0.6206: real time      0.6206
    CHARGE:  cpu time      8.6933: real time      8.6930
    MIXING:  cpu time      0.1496: real time      0.1496
    --------------------------------------------
      LOOP:  cpu time    495.9195: real time    495.9195

 eigenvalue-minimisations  :   144
 total energy-change (2. order) :-0.4749951E+00  (-0.9561268E-02)
 number of electron      35.0000002 magnetization       7.2072282
 augmentation part        0.9511028 magnetization       6.2821587

 Broyden mixing:
  rms(total) = 0.46688E-01    rms(broyden)= 0.46685E-01
  rms(prec ) = 0.48007E-01
  weight for this iteration     100.00

 eigenvalues of (default mixing * dielectric matrix)
  average eigenvalue GAMMA=   1.6536
  5.8203  2.0426  2.0426  0.9454  0.9454  0.8771  0.8771  0.6136  0.7182

 Free energy of the ion-electron system (eV)
  ---------------------------------------------------
  alpha Z        PSCENC =         0.09102512
  Ewald energy   TEWEN  =      3132.37418968
  -Hartree energ DENC   =     -3978.06591038
  -exchange      EXHF   =         0.00000000
  -V(xc)+E(xc)   XCENC  =       120.69563766
  PAW double counting   =      3085.90828730    -3091.66362168
  entropy T*S    EENTRO =        -0.00000000
  eigenvalues    EBANDS =      -476.19704974
  atomic energy  EATOM  =      1234.83038864
  Solvation  Ediel_sol  =      -110.06184693
  ---------------------------------------------------
  free energy    TOTEN  =       -82.08890033 eV

  energy without entropy =      -82.08890033  energy(sigma->0) =      -82.08890033


--------------------------------------------------------------------------------------------------------




--------------------------------------- Iteration      1(  11)  ---------------------------------------


    POTLOK:  cpu time    474.5321: real time    474.5314
    SETDIJ:  cpu time      0.0344: real time      0.0344
    EDDIAG:  cpu time      4.1458: real time      4.1458
  RMM-DIIS:  cpu time      6.4866: real time      6.4866
    ORTHCH:  cpu time      1.0497: real time      1.0497
       DOS:  cpu time      0.1968: real time      0.1967
    CHARGE:  cpu time      9.0895: real time      9.0894
    MIXING:  cpu time      0.1585: real time      0.1585
    --------------------------------------------
      LOOP:  cpu time    495.6934: real time    495.6925

 eigenvalue-minimisations  :   145
 total energy-change (2. order) :-0.3577225E+00  (-0.6378002E-02)
 number of electron      35.0000002 magnetization       6.3634638
 augmentation part        0.9511772 magnetization       5.4406078

 Broyden mixing:
  rms(total) = 0.37469E-01    rms(broyden)= 0.37467E-01
  rms(prec ) = 0.38265E-01
  weight for this iteration     100.00

 eigenvalues of (default mixing * dielectric matrix)
  average eigenvalue GAMMA=   1.7326
  6.7715  2.0324  2.0324  1.5402  1.0545  1.0545  0.7653  0.7653  0.6161  0.6941

 Free energy of the ion-electron system (eV)
  ---------------------------------------------------
  alpha Z        PSCENC =         0.09102512
  Ewald energy   TEWEN  =      3132.37418968
  -Hartree energ DENC   =     -3973.48876628
  -exchange      EXHF   =         0.00000000
  -V(xc)+E(xc)   XCENC  =       120.32525503
  PAW double counting   =      3087.58024549    -3093.33814951
  entropy T*S    EENTRO =        -0.00000000
  eigenvalues    EBANDS =      -476.60774715
  atomic energy  EATOM  =      1234.83038864
  Solvation  Ediel_sol  =      -114.21306383
  ---------------------------------------------------
  free energy    TOTEN  =       -82.44662281 eV

  energy without entropy =      -82.44662281  energy(sigma->0) =      -82.44662281


--------------------------------------------------------------------------------------------------------




--------------------------------------- Iteration      1(  12)  ---------------------------------------


    POTLOK:  cpu time    457.7731: real time    457.7750
    SETDIJ:  cpu time      0.0354: real time      0.0354
    EDDIAG:  cpu time      4.4085: real time      4.4084
  RMM-DIIS:  cpu time      6.7708: real time      6.7708
    ORTHCH:  cpu time      1.0998: real time      1.0997
       DOS:  cpu time      0.1902: real time      0.1902
    CHARGE:  cpu time      9.4651: real time      9.4699
    MIXING:  cpu time      0.1573: real time      0.1572
    --------------------------------------------
      LOOP:  cpu time    479.9001: real time    479.9068

 eigenvalue-minimisations  :   147
 total energy-change (2. order) :-0.3726021E+00  (-0.2879683E-02)
 number of electron      35.0000002 magnetization       5.7261997
 augmentation part        0.9503008 magnetization       4.8050079

 Broyden mixing:
  rms(total) = 0.27593E-01    rms(broyden)= 0.27590E-01
  rms(prec ) = 0.27892E-01
  weight for this iteration     100.00

 eigenvalues of (default mixing * dielectric matrix)
  average eigenvalue GAMMA=   1.8546
  7.8233  2.7997  1.9924  1.9924  0.9478  0.9478  1.0134  0.8115  0.8115  0.6184
  0.6426

 Free energy of the ion-electron system (eV)
  ---------------------------------------------------
  alpha Z        PSCENC =         0.09102512
  Ewald energy   TEWEN  =      3132.37418968
  -Hartree energ DENC   =     -3968.85386341
  -exchange      EXHF   =         0.00000000
  -V(xc)+E(xc)   XCENC  =       119.93587501
  PAW double counting   =      3081.10387700    -3086.86998844
  entropy T*S    EENTRO =        -0.00000000
  eigenvalues    EBANDS =      -476.59272655
  atomic energy  EATOM  =      1234.83038864
  Solvation  Ediel_sol  =      -118.83800199
  ---------------------------------------------------
  free energy    TOTEN  =       -82.81922493 eV

  energy without entropy =      -82.81922493  energy(sigma->0) =      -82.81922493


--------------------------------------------------------------------------------------------------------




--------------------------------------- Iteration      1(  13)  ---------------------------------------


    POTLOK:  cpu time    440.7137: real time    440.7219
    SETDIJ:  cpu time      0.0376: real time      0.0376
    EDDIAG:  cpu time      4.3267: real time      4.3266
  RMM-DIIS:  cpu time      6.3041: real time      6.3040
    ORTHCH:  cpu time      0.8557: real time      0.8557
       DOS:  cpu time      0.3871: real time      0.3871
    CHARGE:  cpu time      8.6794: real time      8.6791
    MIXING:  cpu time      0.1785: real time      0.1785
    --------------------------------------------
      LOOP:  cpu time    461.4827: real time    461.4905

 eigenvalue-minimisations  :   144
 total energy-change (2. order) :-0.1508387E+00  (-0.5716021E-03)
 number of electron      35.0000002 magnetization       5.0756424
 augmentation part        0.9502924 magnetization       4.1546996

 Broyden mixing:
  rms(total) = 0.22330E-01    rms(broyden)= 0.22330E-01
  rms(prec ) = 0.22448E-01
  weight for this iteration     100.00

 eigenvalues of (default mixing * dielectric matrix)
  average eigenvalue GAMMA=   1.8954
  8.4355  3.2938  2.1227  1.9997  1.2584  1.0384  1.0384  0.7682  0.7682  0.7669
  0.6180  0.6363

 Free energy of the ion-electron system (eV)
  ---------------------------------------------------
  alpha Z        PSCENC =         0.09102512
  Ewald energy   TEWEN  =      3132.37418968
  -Hartree energ DENC   =     -3966.36432245
  -exchange      EXHF   =         0.00000000
  -V(xc)+E(xc)   XCENC  =       119.77950427
  PAW double counting   =      3084.10069661    -3089.86997947
  entropy T*S    EENTRO =        -0.00000000
  eigenvalues    EBANDS =      -476.38511762
  atomic energy  EATOM  =      1234.83038864
  Solvation  Ediel_sol  =      -121.52644841
  ---------------------------------------------------
  free energy    TOTEN  =       -82.97006363 eV

  energy without entropy =      -82.97006363  energy(sigma->0) =      -82.97006363


--------------------------------------------------------------------------------------------------------




--------------------------------------- Iteration      1(  14)  ---------------------------------------


    POTLOK:  cpu time    454.0813: real time    454.0793
    SETDIJ:  cpu time      0.0349: real time      0.0349
    EDDIAG:  cpu time      4.4392: real time      4.4392
  RMM-DIIS:  cpu time      6.3324: real time      6.3323
    ORTHCH:  cpu time      0.8389: real time      0.8389
       DOS:  cpu time      0.3741: real time      0.3741
    CHARGE:  cpu time      9.2753: real time      9.2751
    MIXING:  cpu time      0.1728: real time      0.1728
    --------------------------------------------
      LOOP:  cpu time    475.5489: real time    475.5466

 eigenvalue-minimisations  :   144
 total energy-change (2. order) :-0.1035472E+00  (-0.2768057E-03)
 number of electron      35.0000002 magnetization       4.4849521
 augmentation part        0.9507244 magnetization       3.5642087

 Broyden mixing:
  rms(total) = 0.18060E-01    rms(broyden)= 0.18060E-01
  rms(prec ) = 0.18087E-01
  weight for this iteration     100.00

 eigenvalues of (default mixing * dielectric matrix)
  average eigenvalue GAMMA=   2.0098
  9.2627  4.2230  2.2361  2.2361  1.5428  1.1125  0.9813  0.9813  0.7995  0.7995
  0.6963  0.6282  0.6282

 Free energy of the ion-electron system (eV)
  ---------------------------------------------------
  alpha Z        PSCENC =         0.09102512
  Ewald energy   TEWEN  =      3132.37418968
  -Hartree energ DENC   =     -3964.50843546
  -exchange      EXHF   =         0.00000000
  -V(xc)+E(xc)   XCENC  =       119.66066829
  PAW double counting   =      3090.80725399    -3096.57113060
  entropy T*S    EENTRO =        -0.00000000
  eigenvalues    EBANDS =      -476.51996123
  atomic energy  EATOM  =      1234.83038864
  Solvation  Ediel_sol  =      -123.23760924
  ---------------------------------------------------
  free energy    TOTEN  =       -83.07361081 eV

  energy without entropy =      -83.07361081  energy(sigma->0) =      -83.07361081


--------------------------------------------------------------------------------------------------------




--------------------------------------- Iteration      1(  15)  ---------------------------------------


    POTLOK:  cpu time    432.5195: real time    432.5162
    SETDIJ:  cpu time      0.0381: real time      0.0381
    EDDIAG:  cpu time      4.7819: real time      4.7818
  RMM-DIIS:  cpu time      6.3634: real time      6.3632
    ORTHCH:  cpu time      0.7360: real time      0.7360
       DOS:  cpu time      0.3549: real time      0.3549
    CHARGE:  cpu time      9.0469: real time      9.0467
    MIXING:  cpu time      0.1931: real time      0.1931
    --------------------------------------------
      LOOP:  cpu time    454.0339: real time    454.0300

 eigenvalue-minimisations  :   144
 total energy-change (2. order) :-0.5434036E-01  (-0.2602733E-03)
 number of electron      35.0000002 magnetization       3.9607343
 augmentation part        0.9510097 magnetization       3.0402858

 Broyden mixing:
  rms(total) = 0.14960E-01    rms(broyden)= 0.14960E-01
  rms(prec ) = 0.14999E-01
  weight for this iteration     100.00

 eigenvalues of (default mixing * dielectric matrix)
  average eigenvalue GAMMA=   2.0353
  9.7729  4.8534  2.1835  2.1835  1.9519  1.0228  1.0228  1.0073  0.8500  0.8500
  0.8503  0.6957  0.6252  0.6252

 Free energy of the ion-electron system (eV)
  ---------------------------------------------------
  alpha Z        PSCENC =         0.09102512
  Ewald energy   TEWEN  =      3132.37418968
  -Hartree energ DENC   =     -3963.42711246
  -exchange      EXHF   =         0.00000000
  -V(xc)+E(xc)   XCENC  =       119.59048081
  PAW double counting   =      3090.78959250    -3096.55035728
  entropy T*S    EENTRO =        -0.00000000
  eigenvalues    EBANDS =      -476.68128586
  atomic energy  EATOM  =      1234.83038864
  Solvation  Ediel_sol  =      -124.14487231
  ---------------------------------------------------
  free energy    TOTEN  =       -83.12795117 eV

  energy without entropy =      -83.12795117  energy(sigma->0) =      -83.12795117


--------------------------------------------------------------------------------------------------------




--------------------------------------- Iteration      1(  16)  ---------------------------------------


    POTLOK:  cpu time    447.1433: real time    447.1604
    SETDIJ:  cpu time      0.0356: real time      0.0356
    EDDIAG:  cpu time      4.2503: real time      4.2503
  RMM-DIIS:  cpu time      6.2999: real time      6.3001
    ORTHCH:  cpu time      1.1020: real time      1.1020
       DOS:  cpu time      0.1747: real time      0.1747
    CHARGE:  cpu time      8.2854: real time      8.2854
    MIXING:  cpu time      0.1922: real time      0.1922
    --------------------------------------------
      LOOP:  cpu time    467.4833: real time    467.5007

 eigenvalue-minimisations  :   144
 total energy-change (2. order) :-0.1602521E-01  (-0.1070888E-03)
 number of electron      35.0000002 magnetization       3.2693415
 augmentation part        0.9508445 magnetization       2.3489924

 Broyden mixing:
  rms(total) = 0.12506E-01    rms(broyden)= 0.12506E-01
  rms(prec ) = 0.12546E-01
  weight for this iteration     100.00

 eigenvalues of (default mixing * dielectric matrix)
  average eigenvalue GAMMA=   2.1137
 10.3724  5.5960  2.5539  2.1811  2.1811  1.3379  1.0312  1.0312  1.0652  0.8288
  0.8288  0.7613  0.6890  0.6238  0.6238

 Free energy of the ion-electron system (eV)
  ---------------------------------------------------
  alpha Z        PSCENC =         0.09102512
  Ewald energy   TEWEN  =      3132.37418968
  -Hartree energ DENC   =     -3963.41722828
  -exchange      EXHF   =         0.00000000
  -V(xc)+E(xc)   XCENC  =       119.58204955
  PAW double counting   =      3089.38768498    -3095.15222292
  entropy T*S    EENTRO =        -0.00000000
  eigenvalues    EBANDS =      -476.37827551
  atomic energy  EATOM  =      1234.83038864
  Solvation  Ediel_sol  =      -124.46158765
  ---------------------------------------------------
  free energy    TOTEN  =       -83.14397638 eV

  energy without entropy =      -83.14397638  energy(sigma->0) =      -83.14397638


--------------------------------------------------------------------------------------------------------




--------------------------------------- Iteration      1(  17)  ---------------------------------------


    POTLOK:  cpu time    434.9084: real time    434.9229
    SETDIJ:  cpu time      0.0366: real time      0.0366
    EDDIAG:  cpu time      4.1664: real time      4.1665
  RMM-DIIS:  cpu time      6.1816: real time      6.1818
    ORTHCH:  cpu time      0.8015: real time      0.8015
       DOS:  cpu time      0.2003: real time      0.2003
    CHARGE:  cpu time      8.9680: real time      8.9681
    MIXING:  cpu time      0.2082: real time      0.2082
    --------------------------------------------
      LOOP:  cpu time    455.4711: real time    455.4859

 eigenvalue-minimisations  :   144
 total energy-change (2. order) :-0.7137438E-02  (-0.8081873E-04)
 number of electron      35.0000002 magnetization       2.5580092
 augmentation part        0.9507839 magnetization       1.6377162

 Broyden mixing:
  rms(total) = 0.10193E-01    rms(broyden)= 0.10193E-01
  rms(prec ) = 0.10256E-01
  weight for this iteration     100.00

 eigenvalues of (default mixing * dielectric matrix)
  average eigenvalue GAMMA=   2.1734
 10.9447  6.2711  3.1755  2.1665  2.1665  1.6789  1.0453  1.0453  0.9773  0.9773
  0.8271  0.8271  0.7440  0.6804  0.6234  0.6234

 Free energy of the ion-electron system (eV)
  ---------------------------------------------------
  alpha Z        PSCENC =         0.09102512
  Ewald energy   TEWEN  =      3132.37418968
  -Hartree energ DENC   =     -3963.47242247
  -exchange      EXHF   =         0.00000000
  -V(xc)+E(xc)   XCENC  =       119.58252398
  PAW double counting   =      3090.62797150    -3096.39319977
  entropy T*S    EENTRO =        -0.00000000
  eigenvalues    EBANDS =      -476.19017942
  atomic energy  EATOM  =      1234.83038864
  Solvation  Ediel_sol  =      -124.60141108
  ---------------------------------------------------
  free energy    TOTEN  =       -83.15111382 eV

  energy without entropy =      -83.15111382  energy(sigma->0) =      -83.15111382


--------------------------------------------------------------------------------------------------------




--------------------------------------- Iteration      1(  18)  ---------------------------------------


    POTLOK:  cpu time    431.1806: real time    431.1913
    SETDIJ:  cpu time      0.0359: real time      0.0359
    EDDIAG:  cpu time      4.6263: real time      4.6264
  RMM-DIIS:  cpu time      6.3822: real time      6.3825
    ORTHCH:  cpu time      0.7150: real time      0.7150
       DOS:  cpu time      0.3840: real time      0.3840
    CHARGE:  cpu time      9.0846: real time      9.0847
    MIXING:  cpu time      0.2085: real time      0.2085
    --------------------------------------------
      LOOP:  cpu time    452.6171: real time    452.6283

 eigenvalue-minimisations  :   144
 total energy-change (2. order) :-0.6041862E-02  (-0.8389411E-04)
 number of electron      35.0000002 magnetization       1.7985389
 augmentation part        0.9508682 magnetization       0.8782351

 Broyden mixing:
  rms(total) = 0.74673E-02    rms(broyden)= 0.74666E-02
  rms(prec ) = 0.75497E-02
  weight for this iteration     100.00

 eigenvalues of (default mixing * dielectric matrix)
  average eigenvalue GAMMA=   2.3417
 12.3705  7.4830  4.0676  2.2269  2.0844  2.0844  1.0701  1.0701  1.1284  0.9571
  0.9571  0.8335  0.8335  0.7168  0.6789  0.6236  0.6236

 Free energy of the ion-electron system (eV)
  ---------------------------------------------------
  alpha Z        PSCENC =         0.09102512
  Ewald energy   TEWEN  =      3132.37418968
  -Hartree energ DENC   =     -3963.66624620
  -exchange      EXHF   =         0.00000000
  -V(xc)+E(xc)   XCENC  =       119.57838150
  PAW double counting   =      3089.95213221    -3095.71676686
  entropy T*S    EENTRO =        -0.00000000
  eigenvalues    EBANDS =      -476.22525151
  atomic energy  EATOM  =      1234.83038864
  Solvation  Ediel_sol  =      -124.37500826
  ---------------------------------------------------
  free energy    TOTEN  =       -83.15715568 eV

  energy without entropy =      -83.15715568  energy(sigma->0) =      -83.15715568


--------------------------------------------------------------------------------------------------------




--------------------------------------- Iteration      1(  19)  ---------------------------------------


    POTLOK:  cpu time    437.9244: real time    437.9337
    SETDIJ:  cpu time      0.0352: real time      0.0352
    EDDIAG:  cpu time      4.4839: real time      4.4839
  RMM-DIIS:  cpu time      6.3647: real time      6.3649
    ORTHCH:  cpu time      1.3521: real time      1.3521
       DOS:  cpu time      0.3720: real time      0.3720
    CHARGE:  cpu time      9.4247: real time      9.4248
    MIXING:  cpu time      0.2180: real time      0.2180
    --------------------------------------------
      LOOP:  cpu time    460.1750: real time    460.1844

 eigenvalue-minimisations  :   144
 total energy-change (2. order) : 0.8628385E-03  (-0.1314751E-03)
 number of electron      35.0000002 magnetization       1.3876377
 augmentation part        0.9508083 magnetization       0.4673767

 Broyden mixing:
  rms(total) = 0.47876E-02    rms(broyden)= 0.47874E-02
  rms(prec ) = 0.48878E-02
  weight for this iteration     100.00

 eigenvalues of (default mixing * dielectric matrix)
  average eigenvalue GAMMA=   2.5891
 15.7727  8.6000  4.7526  2.5273  2.1213  2.1213  1.5048  1.0714  1.0714  0.9878
  0.9878  0.8378  0.8378  0.7845  0.7162  0.6608  0.6242  0.6242

 Free energy of the ion-electron system (eV)
  ---------------------------------------------------
  alpha Z        PSCENC =         0.09102512
  Ewald energy   TEWEN  =      3132.37418968
  -Hartree energ DENC   =     -3963.95090307
  -exchange      EXHF   =         0.00000000
  -V(xc)+E(xc)   XCENC  =       119.57854343
  PAW double counting   =      3087.11569525    -3092.88024979
  entropy T*S    EENTRO =        -0.00000000
  eigenvalues    EBANDS =      -476.38000311
  atomic energy  EATOM  =      1234.83038864
  Solvation  Ediel_sol  =      -123.93497899
  ---------------------------------------------------
  free energy    TOTEN  =       -83.15629285 eV

  energy without entropy =      -83.15629285  energy(sigma->0) =      -83.15629285


--------------------------------------------------------------------------------------------------------




--------------------------------------- Iteration      1(  20)  ---------------------------------------


    POTLOK:  cpu time    423.2931: real time    423.3053
    SETDIJ:  cpu time      0.0367: real time      0.0367
    EDDIAG:  cpu time      4.2873: real time      4.2874
  RMM-DIIS:  cpu time      6.1760: real time      6.1762
    ORTHCH:  cpu time      1.1268: real time      1.1268
       DOS:  cpu time      0.1422: real time      0.1422
    CHARGE:  cpu time      9.8327: real time      9.8327
    MIXING:  cpu time      0.2242: real time      0.2242
    --------------------------------------------
      LOOP:  cpu time    445.1190: real time    445.1314

 eigenvalue-minimisations  :   144
 total energy-change (2. order) :-0.4561132E-02  (-0.4331781E-04)
 number of electron      35.0000002 magnetization       1.1647031
 augmentation part        0.9507213 magnetization       0.2445042

 Broyden mixing:
  rms(total) = 0.30934E-02    rms(broyden)= 0.30931E-02
  rms(prec ) = 0.31820E-02
  weight for this iteration     100.00

 eigenvalues of (default mixing * dielectric matrix)
  average eigenvalue GAMMA=   2.7409
 18.9895  9.0415  5.0610  2.6609  2.1797  2.1797  1.6940  1.0903  1.0903  1.0086
  1.0086  1.0358  0.8384  0.8384  0.7469  0.7164  0.6243  0.6243  0.6482

 Free energy of the ion-electron system (eV)
  ---------------------------------------------------
  alpha Z        PSCENC =         0.09102512
  Ewald energy   TEWEN  =      3132.37418968
  -Hartree energ DENC   =     -3964.09580372
  -exchange      EXHF   =         0.00000000
  -V(xc)+E(xc)   XCENC  =       119.57228661
  PAW double counting   =      3087.52307493    -3093.28702947
  entropy T*S    EENTRO =        -0.00000000
  eigenvalues    EBANDS =      -476.51244118
  atomic energy  EATOM  =      1234.83038864
  Solvation  Ediel_sol  =      -123.65654459
  ---------------------------------------------------
  free energy    TOTEN  =       -83.16085398 eV

  energy without entropy =      -83.16085398  energy(sigma->0) =      -83.16085398


--------------------------------------------------------------------------------------------------------




--------------------------------------- Iteration      1(  21)  ---------------------------------------


    POTLOK:  cpu time    417.6881: real time    417.7040
    SETDIJ:  cpu time      0.0334: real time      0.0334
    EDDIAG:  cpu time      3.8651: real time      3.8651
  RMM-DIIS:  cpu time      6.1644: real time      6.1644
    ORTHCH:  cpu time      1.4756: real time      1.4756
       DOS:  cpu time      0.0021: real time      0.0021
    CHARGE:  cpu time      8.8585: real time      8.8582
    MIXING:  cpu time      0.2403: real time      0.2403
    --------------------------------------------
      LOOP:  cpu time    438.3275: real time    438.3431

[...]

 Broyden mixing:
  rms(total) = 0.53167E-03    rms(broyden)= 0.53150E-03
  rms(prec ) = 0.53384E-03
  weight for this iteration     100.00

 eigenvalues of (default mixing * dielectric matrix)
  average eigenvalue GAMMA=   1.3775
  0.7404  2.0146

 Free energy of the ion-electron system (eV)
  ---------------------------------------------------
  alpha Z        PSCENC =         0.09102512
  Ewald energy   TEWEN  =      3134.01288812
  -Hartree energ DENC   =     -3966.14193560
  -exchange      EXHF   =         0.00000000
  -V(xc)+E(xc)   XCENC  =       119.56793741
  PAW double counting   =      3093.57172322    -3099.33902958
  entropy T*S    EENTRO =        -0.00000000
  eigenvalues    EBANDS =      -476.42796362
  atomic energy  EATOM  =      1234.83038864
  Solvation  Ediel_sol  =      -123.36890377
  ---------------------------------------------------
  free energy    TOTEN  =       -83.20387005 eV

  energy without entropy =      -83.20387005  energy(sigma->0) =      -83.20387005


--------------------------------------------------------------------------------------------------------




--------------------------------------- Iteration      4(   4)  ---------------------------------------


    POTLOK:  cpu time    400.5535: real time    400.5661
    SETDIJ:  cpu time      0.0355: real time      0.0355
    EDDIAG:  cpu time      4.3890: real time      4.3892
  RMM-DIIS:  cpu time      6.1770: real time      6.1772
    ORTHCH:  cpu time      1.1235: real time      1.1235
       DOS:  cpu time      0.1938: real time      0.1938
    CHARGE:  cpu time     10.2598: real time     10.2598
    MIXING:  cpu time      0.1122: real time      0.1122
    --------------------------------------------
      LOOP:  cpu time    422.8444: real time    422.8574

 eigenvalue-minimisations  :   119
 total energy-change (2. order) :-0.1678536E-04  (-0.2047149E-05)
 number of electron      35.0000002 magnetization       1.0000007
 augmentation part        0.9517787 magnetization       0.0798955

 Broyden mixing:
  rms(total) = 0.48314E-03    rms(broyden)= 0.48301E-03
  rms(prec ) = 0.49177E-03
  weight for this iteration     100.00

 eigenvalues of (default mixing * dielectric matrix)
  average eigenvalue GAMMA=   1.1396
  1.7854  1.0010  0.6325

 Free energy of the ion-electron system (eV)
  ---------------------------------------------------
  alpha Z        PSCENC =         0.09102512
  Ewald energy   TEWEN  =      3134.01288812
  -Hartree energ DENC   =     -3966.15000176
  -exchange      EXHF   =         0.00000000
  -V(xc)+E(xc)   XCENC  =       119.56823252
  PAW double counting   =      3093.97506404    -3099.74248480
  entropy T*S    EENTRO =        -0.00000000
  eigenvalues    EBANDS =      -476.41994467
  atomic energy  EATOM  =      1234.83038864
  Solvation  Ediel_sol  =      -123.36905405
  ---------------------------------------------------
  free energy    TOTEN  =       -83.20388684 eV

  energy without entropy =      -83.20388684  energy(sigma->0) =      -83.20388684


--------------------------------------------------------------------------------------------------------




--------------------------------------- Iteration      4(   5)  ---------------------------------------


    POTLOK:  cpu time    358.1171: real time    358.1311
    SETDIJ:  cpu time      0.0371: real time      0.0370
    EDDIAG:  cpu time      4.2943: real time      4.2943
  RMM-DIIS:  cpu time      4.9068: real time      4.9069
    ORTHCH:  cpu time      1.2996: real time      1.2997
       DOS:  cpu time      0.0042: real time      0.0042
    --------------------------------------------
      LOOP:  cpu time    368.6589: real time    368.6731

 eigenvalue-minimisations  :   105
 total energy-change (2. order) : 0.7157202E-05  (-0.2617610E-06)
 number of electron      35.0000002 magnetization       1.0000007
 augmentation part        0.9517787 magnetization       0.0798955

 Free energy of the ion-electron system (eV)
  ---------------------------------------------------
  alpha Z        PSCENC =         0.09102512
  Ewald energy   TEWEN  =      3134.01288812
  -Hartree energ DENC   =     -3966.13696534
  -exchange      EXHF   =         0.00000000
  -V(xc)+E(xc)   XCENC  =       119.56785500
  PAW double counting   =      3094.02185228    -3099.78913641
  entropy T*S    EENTRO =        -0.00000000
  eigenvalues    EBANDS =      -476.43372399
  atomic energy  EATOM  =      1234.83038864
  Solvation  Ediel_sol  =      -123.36806309
  ---------------------------------------------------
  free energy    TOTEN  =       -83.20387968 eV

  energy without entropy =      -83.20387968  energy(sigma->0) =      -83.20387968


--------------------------------------------------------------------------------------------------------




 average (electrostatic) potential at core
  the test charge radii are     0.6991  0.7089  0.5201
  (the norm of the test charge is              1.0000)
       1 -59.7681       2 -59.5617       3 -59.7894       4 -59.5610       5 -59.7685
       6 -61.2082       7 -75.5990       8 -44.8338       9 -44.8306      10 -42.7766
      11 -42.5348      12 -42.6094      13 -42.5364      14 -42.7769
 
 
 
 E-fermi :  -6.0512     XC(G=0):  -0.0293     alpha+bet : -0.0137

 Fermi energy:        -6.0512330152

 spin component 1

 k-point     1 :       0.0000    0.0000    0.0000
  band No.  band energies     occupation 
      1     -24.7431      1.00000
      2     -21.8431      1.00000
      3     -19.4512      1.00000
      4     -18.9230      1.00000
      5     -16.0547      1.00000
      6     -15.9389      1.00000
      7     -13.9816      1.00000
      8     -13.6891      1.00000
      9     -12.6556      1.00000
     10     -11.3619      1.00000
     11     -11.1811      1.00000
     12     -10.9885      1.00000
     13     -10.9624      1.00000
     14      -9.4293      1.00000
     15      -9.0640      1.00000
     16      -8.8914      1.00000
     17      -7.3648      1.00000
     18      -6.2944      1.00000
     19      -2.0223      0.00000
     20      -1.9212      0.00000
     21      -0.3107      0.00000
     22       0.0022      0.00000
     23       0.0427      0.00000
     24       0.0582      0.00000
     25       0.0773      0.00000
     26       0.0868      0.00000
     27       0.0881      0.00000
     28       0.1142      0.00000
     29       0.1234      0.00000
     30       0.1251      0.00000
     31       0.1503      0.00000
     32       0.1780      0.00000
     33       0.1793      0.00000
     34       0.1794      0.00000
     35       0.1801      0.00000
     36       0.1822      0.00000
 Fermi energy:        -6.0512330152

 spin component 2

 k-point     1 :       0.0000    0.0000    0.0000
  band No.  band energies     occupation 
      1     -24.4333      1.00000
      2     -21.6688      1.00000
      3     -19.3627      1.00000
      4     -18.6509      1.00000
      5     -15.9732      1.00000
      6     -15.7897      1.00000
      7     -13.9183      1.00000
      8     -13.5690      1.00000
      9     -12.5525      1.00000
     10     -11.2784      1.00000
     11     -11.1206      1.00000
     12     -10.9681      1.00000
     13     -10.4523      1.00000
     14      -9.3773      1.00000
     15      -8.8478      1.00000
     16      -8.5078      1.00000
     17      -7.1452      1.00000
     18      -5.4317      0.00000
     19      -1.7790      0.00000
     20      -1.4237      0.00000
     21      -0.2821      0.00000
     22       0.0051      0.00000
     23       0.0533      0.00000
     24       0.0616      0.00000
     25       0.0801      0.00000
     26       0.0875      0.00000
     27       0.0900      0.00000
     28       0.1126      0.00000
     29       0.1269      0.00000
     30       0.1293      0.00000
     31       0.1564      0.00000
     32       0.1809      0.00000
     33       0.1815      0.00000
     34       0.1832      0.00000
     35       0.1841      0.00000
     36       0.1863      0.00000


--------------------------------------------------------------------------------------------------------


 soft charge-density along one line, spin component           1
         0         1         2         3         4         5         6         7         8         9
 total charge-density along one line
 
 soft charge-density along one line, spin component           2
         0         1         2         3         4         5         6         7         8         9
 total charge-density along one line
 
 pseudopotential strength for first ion, spin component:           1
 10.333  13.744   0.003  -0.000  -0.000  -0.010   0.000   0.000
 13.744  18.279   0.004  -0.000  -0.000  -0.013   0.000   0.000
  0.003   0.004  -4.431   0.000   0.001   8.664  -0.000  -0.003
 -0.000  -0.000   0.000  -4.442   0.000  -0.000   8.687  -0.001
 -0.000  -0.000   0.001   0.000  -4.433  -0.003  -0.001   8.666
 -0.010  -0.013   8.664  -0.000  -0.003 -19.081   0.000   0.005
  0.000   0.000  -0.000   8.687  -0.001   0.000 -19.131   0.002
  0.000   0.000  -0.003  -0.001   8.666   0.005   0.002 -19.082
 pseudopotential strength for first ion, spin component:           2
 10.299  13.698   0.003  -0.000  -0.000  -0.009   0.000  -0.000
 13.698  18.217   0.004  -0.000  -0.000  -0.012   0.000  -0.000
  0.003   0.004  -4.431   0.000   0.001   8.671  -0.000  -0.003
 -0.000  -0.000   0.000  -4.410  -0.001  -0.000   8.636   0.001
 -0.000  -0.000   0.001  -0.001  -4.432  -0.003   0.001   8.672
 -0.009  -0.012   8.671  -0.000  -0.003 -19.108   0.000   0.006
  0.000   0.000  -0.000   8.636   0.001   0.000 -19.055  -0.002
 -0.000  -0.000  -0.003   0.001   8.672   0.006  -0.002 -19.108
 total augmentation occupancy for first ion, spin component:           1
  7.806  -3.379   0.167   0.004   0.183   0.039   0.001   0.033
 -3.379   1.508  -0.139  -0.002  -0.104  -0.025  -0.000  -0.019
  0.167  -0.139   1.740  -0.001   0.012   0.153  -0.000  -0.005
  0.004  -0.002  -0.001   1.113   0.023  -0.000   0.061   0.003
  0.183  -0.104   0.012   0.023   1.874  -0.005   0.003   0.169
  0.039  -0.025   0.153  -0.000  -0.005   0.014  -0.000  -0.001
  0.001  -0.000  -0.000   0.061   0.003  -0.000   0.004   0.000
  0.033  -0.019  -0.005   0.003   0.169  -0.001   0.000   0.016
 total augmentation occupancy for first ion, spin component:           2
  0.015  -0.002   0.005  -0.000  -0.006   0.001  -0.000  -0.001
 -0.002  -0.001  -0.005  -0.000   0.005  -0.001   0.000   0.001
  0.005  -0.005   0.003   0.000   0.001   0.000   0.000  -0.000
 -0.000  -0.000   0.000   0.209  -0.007   0.000   0.004  -0.000
 -0.006   0.005   0.001  -0.007   0.005  -0.000  -0.000   0.000
  0.001  -0.001   0.000   0.000  -0.000   0.000  -0.000  -0.000
 -0.000   0.000   0.000   0.004  -0.000  -0.000  -0.000   0.000
 -0.001   0.001  -0.000  -0.000   0.000  -0.000   0.000  -0.000


------------------------ aborting loop because EDIFF is reached ----------------------------------------


    CHARGE:  cpu time      8.5221: real time      8.5221
    FORLOC:  cpu time      0.2417: real time      0.2417
    FORNL :  cpu time      2.9414: real time      2.9415
    STRESS:  cpu time      8.9057: real time      8.9059
    FORCOR:  cpu time     18.0357: real time     18.0358
    FORHAR:  cpu time      2.3325: real time      2.3324
    MIXING:  cpu time      0.1021: real time      0.1021
    OFIELD:  cpu time      0.0001: real time      0.0000

 ---------------------------------------------------------------------------------------------

         DFTD3 V3.0 Rev 1        
 Edisp (eV)   -0.11609

 E6    (eV) :    -0.0497
 E8    (eV) :    -0.0664
 % E8        : 57.16
    FORVDW:  cpu time      0.0058: real time      0.0058

  FORCE on cell =-STRESS in cart. coord.  units (eV):
  Direction    XX          YY          ZZ          XY          YZ          ZX
  --------------------------------------------------------------------------------------
  Alpha Z     0.09103     0.09103     0.09103
  Ewald    1933.35569  1420.19621  -219.53874    -0.01332    -0.00113    67.75734
  Hartree  1879.78130  1506.36660   579.92778    -0.00040    -0.00002    40.96538
  E(xc)    -129.08836  -129.31389  -133.23205    -0.00000    -0.00000     0.12801
  Local   -4136.68419 -3255.13828  -763.06569     0.01111     0.00088  -106.19979
  n-local   -55.11235   -56.37892   -49.87967    -0.00088     0.00039    -0.14890
  augment    -0.48530    -0.37903     0.07683     0.00002     0.00000    -0.01984
  Kinetic   509.99304   516.25079   583.39013     0.00149     0.00010    -2.35256
  Fock        0.00000     0.00000     0.00000     0.00000     0.00000     0.00000
  vdW         0.01699     0.02412     0.00002     0.00000     0.00000     0.00061
  -------------------------------------------------------------------------------------
  Total       1.86783     1.71863    -2.23037     0.00000     0.00000     0.13025
  in kB       0.04676     0.04302    -0.05584     0.00000     0.00000     0.00326
  external pressure =        0.01 kB  Pullay stress =        0.00 kB


 VOLUME and BASIS-vectors are now :
 -----------------------------------------------------------------------------
  energy-cutoff  :      500.00
  volume of cell :    64000.00
      direct lattice vectors                 reciprocal lattice vectors
    40.000000000  0.000000000  0.000000000     0.025000000  0.000000000  0.000000000
     0.000000000 40.000000000  0.000000000     0.000000000  0.025000000  0.000000000
     0.000000000  0.000000000 40.000000000     0.000000000  0.000000000  0.025000000

  length of vectors
    40.000000000 40.000000000 40.000000000     0.025000000  0.025000000  0.025000000


 FORCES acting on ions
    electron-ion (+dipol)            ewald-force                    non-local-force                 convergence-correction
 -----------------------------------------------------------------------------------------------
   0.522E+02 0.171E+03 0.746E+00   -.503E+02 -.174E+03 -.656E+00   0.359E-01 0.309E+01 -.178E-01   0.448E-02 0.416E-02 -.276E-03
   -.114E+03 0.157E+03 -.401E+01   0.116E+03 -.159E+03 0.409E+01   -.137E+01 0.203E+01 -.513E-01   -.283E-02 0.497E-02 -.205E-03
   -.191E+03 0.113E-01 -.509E+01   0.194E+03 0.243E-02 0.516E+01   -.206E+01 0.000E+00 -.362E-01   -.596E-02 -.251E-06 0.871E-05
   -.114E+03 -.157E+03 -.401E+01   0.116E+03 0.159E+03 0.409E+01   -.137E+01 -.203E+01 -.513E-01   -.283E-02 -.497E-02 -.205E-03
   0.521E+02 -.171E+03 0.746E+00   -.503E+02 0.174E+03 -.657E+00   0.359E-01 -.309E+01 -.178E-01   0.448E-02 -.416E-02 -.276E-03
   0.427E+02 0.139E-03 0.776E+00   -.349E+02 -.595E-03 -.494E+00   -.561E+01 0.000E+00 -.205E+00   0.542E-02 -.732E-07 -.236E-03
   0.251E+03 -.343E-01 0.889E+01   -.254E+03 0.369E-02 -.892E+01   0.512E+01 0.000E+00 0.143E+00   0.477E-02 -.451E-06 -.239E-03
   0.700E+02 -.670E+02 0.269E+01   -.735E+02 0.731E+02 -.283E+01   0.417E+01 -.664E+01 0.167E+00   0.439E-03 -.210E-03 -.257E-04
   0.700E+02 0.670E+02 0.269E+01   -.735E+02 -.731E+02 -.283E+01   0.417E+01 0.664E+01 0.167E+00   0.439E-03 0.210E-03 -.257E-04
   0.339E+02 -.775E+02 0.832E+00   -.363E+02 0.828E+02 -.893E+00   0.301E+01 -.521E+01 0.827E-01   0.806E-03 -.932E-03 -.299E-04
   -.441E+02 -.709E+02 -.138E+01   0.473E+02 0.760E+02 0.148E+01   -.305E+01 -.516E+01 -.920E-01   -.578E-03 -.108E-02 -.265E-04
   -.829E+02 0.384E-02 -.175E+01   0.889E+02 -.253E-03 0.188E+01   -.603E+01 0.000E+00 -.115E+00   -.951E-03 0.926E-09 -.474E-04
   -.441E+02 0.709E+02 -.138E+01   0.473E+02 -.760E+02 0.148E+01   -.305E+01 0.516E+01 -.920E-01   -.578E-03 0.108E-02 -.265E-04
   0.339E+02 0.775E+02 0.832E+00   -.363E+02 -.828E+02 -.893E+00   0.301E+01 0.521E+01 0.827E-01   0.806E-03 0.932E-03 -.299E-04
 -----------------------------------------------------------------------------------------------
   0.297E+01 -.867E-02 0.432E-01   -.426E-13 -.142E-13 0.666E-15   -.297E+01 0.000E+00 -.371E-01   0.791E-02 -.926E-06 -.164E-02
 
 
 POSITION                                       TOTAL-FORCE (eV/Angst)
 -----------------------------------------------------------------------------------
     19.79906     18.75706     19.99970        -0.001952      0.007984     -0.000398
     21.17501     18.77240     20.04023         0.008505      0.009122     -0.004932
     21.87312     19.99996     20.05574        -0.019062      0.000000      0.003395
     21.17501     21.22756     20.04023         0.008505     -0.009122     -0.004932
     19.79910     21.24294     19.99970        -0.001952     -0.007984     -0.000398
     19.08193     20.00000     19.97400        -0.000333      0.000000     -0.005903
     17.75075     20.00004     19.92459         0.017487      0.000000      0.001597
     17.22175     20.87000     19.90332         0.002736      0.016160      0.000894
     17.22171     19.13008     19.90332         0.002736     -0.016160      0.000894
     19.24104     22.17732     19.98413        -0.007233      0.004202     -0.001194
     21.72937     22.16424     20.05687        -0.000841     -0.002370     -0.000593
     22.96182     19.99996     20.07723        -0.000524      0.000000      0.013357
     21.72933     17.83572     20.05687        -0.000841      0.002370     -0.000593
     19.24096     17.82268     19.98413        -0.007233     -0.004202     -0.001194
 -----------------------------------------------------------------------------------
    total drift:                                0.006252     -0.008672      0.004422


--------------------------------------------------------------------------------------------------------



  FREE ENERGIE OF THE ION-ELECTRON SYSTEM (eV)
  ---------------------------------------------------
  free  energy   TOTEN  =       -83.31997372 eV

  energy  without entropy=      -83.31997372  energy(sigma->0) =      -83.31997372
 
 d Force = 0.9392812E-04[ 0.185E-04, 0.169E-03]  d Energy =-0.7261493E-04 0.167E-03
 d Force =-0.1125813E+01[-0.113E+01,-0.113E+01]  d Ewald  =-0.1125813E+01-0.519E-07


--------------------------------------------------------------------------------------------------------


    POTLOK:  cpu time    397.6919: real time    397.6916


--------------------------------------------------------------------------------------------------------


 Conjugate gradient step on ions:
 trial-energy change:    0.000073  1 .order   -0.000094   -0.000169   -0.000018
  (g-gl).g = 0.387E-03      g.g   = 0.381E-03  gl.gl    = 0.381E-03
 g(Force)  = 0.381E-03   g(Stress)= 0.000E+00 ortho     =-0.527E-05
 gamma     =   1.01373
 trial     =   0.45055
 opt step  =   0.50576  (harmonic =   0.50576) maximal distance =0.00098549
 next E    =   -83.320141   (d E  =  -0.00010)


--------------------------------------------------------------------------------------------------------


  
 reached required accuracy - stopping structural energy minimisation
 writing wavefunctions
     LOOP+:  cpu time   2635.6311: real time   2636.8711
    4ORBIT:  cpu time      0.0000: real time      0.0000

 total amount of memory used by VASP MPI-rank0   535568. kBytes
=======================================================================

   base      :      30000. kBytes
   nonlr-proj:       1279. kBytes
   fftplans  :     131430. kBytes
   grid      :     352056. kBytes
   one-center:          6. kBytes
   wavefun   :      20797. kBytes
 
  
  
 General timing and accounting informations for this job:
 ========================================================
  
                  Total CPU time used (sec):    23767.586
                            User time (sec):     9687.689
                          System time (sec):    14079.896
                         Elapsed time (sec):    23770.005
  
                   Maximum memory used (kb):     1566844.
                   Average memory used (kb):          N/A
  
                          Minor page faults:     68715132
                          Major page faults:            1
                 Voluntary context switches:         4190
