
                                 *****************
                                 * O   R   C   A *
                                 *****************

                                            #,                                       
                                            ###                                      
                                            ####                                     
                                            #####                                    
                                            ######                                   
                                           ########,                                 
                                     ,,################,,,,,                         
                               ,,#################################,,                 
                          ,,##########################################,,             
                       ,#########################################, ''#####,          
                    ,#############################################,,   '####,        
                  ,##################################################,,,,####,       
                ,###########''''           ''''###############################       
              ,#####''   ,,,,##########,,,,          '''####'''          '####       
            ,##' ,,,,###########################,,,                        '##       
           ' ,,###''''                  '''############,,,                           
         ,,##''                                '''############,,,,        ,,,,,,###''
      ,#''                                            '''#######################'''  
     '                                                          ''''####''''         
             ,#######,   #######,   ,#######,      ##                                
            ,#'     '#,  ##    ##  ,#'     '#,    #''#        ,####,   ,####,        
            ##       ##  ##   ,#'  ##            #'  '#       #'       #'  '#        
            ##       ##  #######   ##           ,######,      #####,   #    #        
            '#,     ,#'  ##    ##  '#,     ,#' ,#      #,     #,   #   #,  ,#        
             '#######'   ##     ##  '#######'  #'      '#     '####' # '####'        



                #########################################################
                #                        -***-                          #
                #          Department of theory and spectroscopy        #
                #                                                       #
                #                      Frank Neese                      #
                #                                                       #
                #     Directorship, Architecture, Infrastructure        #
                #                    SHARK, DRIVERS                     #
                #        Core code/Algorithms in most modules           #
                #                                                       #
                #        Max Planck Institute fuer Kohlenforschung      #
                #                Kaiser Wilhelm Platz 1                 #
                #                 D-45470 Muelheim/Ruhr                 #
                #                      Germany                          #
                #                                                       #
                #                  All rights reserved                  #
                #                        -***-                          #
                #########################################################


                         Program Version 6.0.0  -   RELEASE  -


 With contributions from (in alphabetic order):
   Daniel Aravena         : Magnetic Suceptibility
   Michael Atanasov       : Ab Initio Ligand Field Theory (pilot matlab implementation)
   Alexander A. Auer      : GIAO ZORA, VPT2 properties, NMR spectrum
   Ute Becker             : All parallelization in ORCA, NUMFREQ, NUMCALC
   Giovanni Bistoni       : ED, misc. LED, open-shell LED, HFLD
   Martin Brehm           : Molecular dynamics
   Dmytro Bykov           : pre 5.0 version of the SCF Hessian
   Marcos Casanova-Páez   : Triplet and SCS-CIS(D). UHF-(DLPNO)-IP/EA/STEOM-CCSD. UHF-CVS-IP/STEOM-CCSD
   Vijay G. Chilkuri      : MRCI spin determinant printing, contributions to CSF-ICE
   Pauline Colinet        : FMM embedding
   Dipayan Datta          : RHF DLPNO-CCSD density
   Achintya Kumar Dutta   : EOM-CC, STEOM-CC
   Nicolas Foglia         : Exact transition moments, OPA infrastructure, MCD improvements
   Dmitry Ganyushin       : Spin-Orbit,Spin-Spin,Magnetic field MRCI
   Miquel Garcia          : C-PCM and meta-GGA Hessian, CCSD/C-PCM, Gaussian charge scheme
   Tiago L. C. Gouveia    : GS-ROHF, GS-ROCIS
   Yang Guo               : DLPNO-NEVPT2, F12-NEVPT2, CIM, IAO-localization
   Andreas Hansen         : Spin unrestricted coupled pair/coupled cluster methods
   Ingolf Harden          : AUTO-CI MPn and infrastructure 
   Benjamin Helmich-Paris : MC-RPA, TRAH-(SCF,CASSCF), AVAS, COSX integrals, SCF dyn. polar.
   Lee Huntington         : MR-EOM, pCC
   Robert Izsak           : Overlap fitted RIJCOSX, COSX-SCS-MP3, EOM
   Riya Kayal             : Wick's Theorem for AUTO-CI, AUTO-CI UHF-CCSDT
   Emily Kempfer          : AUTO-CI, RHF CISDT and CCSDT
   Christian Kollmar      : KDIIS, OOCD, Brueckner-CCSD(T), CCSD density, CASPT2, CASPT2-K, improved NEVPT2
   Axel Koslowski         : Symmetry handling
   Simone Kossmann        : Meta GGA functionals, TD-DFT gradient, OOMP2, (MP2 Hessian; deprecated post 5.0)
   Lucas Lang             : DCDCAS
   Marvin Lechner         : AUTO-CI (C++ implementation), FIC-MRCC
   Spencer Leger          : CASSCF response
   Dagmar Lenk            : GEPOL surface, SMD, ORCA-2-JSON
   Dimitrios Liakos       : Extrapolation schemes; Compound Job, initial MDCI parallelization
   Dimitrios Manganas     : Further ROCIS development; embedding schemes. LFT, Crystal Embedding
   Dimitrios Pantazis     : SARC Basis sets
   Anastasios Papadopoulos: AUTO-CI, single reference methods and gradients
   Taras Petrenko         : pre 6.0 DFT Hessian and TD-DFT gradient, (ASA, deprecated), ECA, 1-Electron XAS/XES, NRVS
   Peter Pinski           : DLPNO-MP2, DLPNO-MP2 Gradient
   Christoph Reimann      : Effective Core Potentials
   Marius Retegan         : Local ZFS, SOC
   Christoph Riplinger    : Optimizer, TS searches, QM/MM, DLPNO-CCSD(T), (RO)-DLPNO pert. Triples
   Michael Roemelt        : Original ROCIS implementation
   Masaaki Saitow         : Open-shell DLPNO-CCSD energy and density
   Barbara Sandhoefer     : DKH picture change effects
   Kantharuban Sivalingam : CASSCF convergence/infrastructure, NEVPT2 and variants, FIC-MRCI
   Bernardo de Souza      : ESD, SOC TD-DFT
   Georgi Stoychev        : AutoAux, RI-MP2 NMR, DLPNO-MP2 response, X2C
   Van Anh Tran           : RI-MP2 g-tensors
   Willem Van den Heuvel  : Paramagnetic NMR
   Zikuan Wang            : NOTCH, Electric field optimization 
   Frank Wennmohs         : Technical directorship and infrastructure
   Hang Xu                : AUTO-CI-Response properties 


 We gratefully acknowledge several colleagues who have allowed us to
 interface, adapt or use parts of their codes:
   Stefan Grimme, W. Hujo, H. Kruse, P. Pracht,  : VdW corrections, initial TS optimization,
                  C. Bannwarth, S. Ehlert,         DFT functionals, gCP, sTDA/sTD-DF
                  L. Wittmann, M. Mueller
   Ed Valeev, F. Pavosevic, A. Kumar             : LibInt (2-el integral package), F12 methods
   Garnet Chan, S. Sharma, J. Yang, R. Olivares  : DMRG
   Ulf Ekstrom                                   : XCFun DFT Library
   Mihaly Kallay                                 : mrcc  (arbitrary order and MRCC methods)
   Frank Weinhold                                : gennbo (NPA and NBO analysis)
   Simon Mueller                                 : openCOSMO-RS
   Christopher J. Cramer and Donald G. Truhlar   : smd solvation model
   Lars Goerigk                                  : TD-DFT with DH, B97 family of functionals
   V. Asgeirsson, H. Jonsson                     : NEB implementation
   FAccTs GmbH                                   : IRC, NEB, NEB-TS, DLPNO-Multilevel, CI-OPT
                                                   MM, QMMM, 2- and 3-layer-ONIOM, Crystal-QMMM,
                                                   LR-CPCM, SF, NACMEs, symmetry and pop. for TD-DFT,
                                                   nearIR, NL-DFT gradient (VV10), updates on ESD,
                                                   ML-optimized integration grids, MBIS, APM,
                                                   GOAT, DOCKER, SOLVATOR, interface openCOSMO-RS
   S Lehtola, MJT Oliveira, MAL Marques          : LibXC Library
   Liviu Ungur et al                             : ANISO software


 Your calculation uses the libint2 library for the computation of 2-el integrals
 For citations please refer to: http://libint.valeyev.net

 Your ORCA version has been built with support for libXC version: 6.2.2
 For citations please refer to: https://libxc.gitlab.io

 This ORCA versions uses:
   CBLAS   interface :  Fast vector & matrix operations
   LAPACKE interface :  Fast linear algebra routines
   SCALAPACK package :  Parallel linear algebra routines
   Shared memory     :  Shared parallel matrices
   BLAS/LAPACK       :  OpenBLAS 0.3.27  USE64BITINT DYNAMIC_ARCH NO_AFFINITY Sandybridge SINGLE_THREADED
        Core in use  :  Sandybridge
   Copyright (c) 2011-2014, The OpenBLAS Project


NOTE: MaxCore=3500 MB was set to SCF,MP2,MDCI,CIPSI,MRCI and CIS
      => If you want to overwrite this, your respective input block should be placed after the MaxCore statement
Your calculation utilizes the atom-pairwise dispersion correction
with the Becke-Johnson damping scheme (D3BJ)


Your calculation utilizes the SMD solvation module
Please cite in your paper:
A.V. Marenich, C.J. Cramer, D.G. Truhlar J. Phys. Chem. B, 113, (2009), 6378 

Warning: RI is on but no J-basis has been assigned. Assigning Def2/J (nothing to worry about!)
================================================================================

----- Orbital basis set information -----
Your calculation utilizes the basis: aug-cc-pVTZ 
    H, B-Ne : Obtained from the ccRepo (grant-hill.group.shef.ac.uk/ccrepo) Feb. 2017
              R. A. Kendall, T. H. Dunning, Jr., R. J. Harrison, J. Chem. Phys. 96, 6796 (1992)
         He : Obtained from the ccRepo (grant-hill.group.shef.ac.uk/ccrepo) Feb. 2017
              D. E. Woon, T. H. Dunning, Jr., J. Chem. Phys. 100, 2975 (1994)
  Li-Be, Na : Obtained from the ccRepo (grant-hill.group.shef.ac.uk/ccrepo) Feb. 2017
              B. P. Prascher, D. E. Woon, K. A. Peterson, T. H. Dunning, Jr., A. K. Wilson, Theor. Chem. Acc. 128, 69 (2011)
         Mg : Obtained from the Peterson Research Group Website (tyr0.chem.wsu.edu/~kipeters) Feb. 2017
              B. P. Prascher, D. E. Woon, K. A. Peterson, T. H. Dunning, Jr., A. K. Wilson, Theor. Chem. Acc. 128, 69 (2011)
      Al-Ar : Obtained from the ccRepo (grant-hill.group.shef.ac.uk/ccrepo) Feb. 2017
              D. E. Woon, T. H. Dunning, Jr., J. Chem. Phys. 98, 1358 (1993)
      Sc-Zn : Obtained from the ccRepo (grant-hill.group.shef.ac.uk/ccrepo) Feb. 2017
              N. B. Balabanov, K. A. Peterson, J. Chem. Phys. 123, 064107 (2005)
              N. B. Balabanov, K. A. Peterson, J. Chem. Phys. 125, 074110 (2006)
      Ga-Kr : Obtained from the ccRepo (grant-hill.group.shef.ac.uk/ccrepo) Feb. 2017
              A. K. Wilson, D. E. Woon, K. A. Peterson, T. H. Dunning, Jr., J. Chem. Phys. 110, 7667 (1999)
     Ag, Au : Obtained from the Peterson Research Group Website (tyr0.chem.wsu.edu/~kipeters) Feb. 2017
              K. A. Peterson, C. Puzzarini, Theor. Chem. Acc. 114, 283 (2005)

----- AuxJ basis set information -----
Your calculation utilizes the auxiliary basis: def2/J
   F. Weigend, Phys. Chem. Chem. Phys. 8, 1057 (2006).

================================================================================
                                        WARNINGS
                       Please study these warnings very carefully!
================================================================================


WARNING: your system is open-shell and RHF/RKS was chosen
  ===> : WILL SWITCH to UHF/UKS


WARNING: Geometry Optimization
  ===> : Switching off AutoStart
         For restart on a previous wavefunction, please use MOREAD

================================================================================
                                       INPUT FILE
================================================================================
NAME = cs_rporg_018_ox_opt_08.inp
|  1> !TPSSh opt aug-cc-pVTZ d3 TightSCF SlowConv RIJCOSX defgrid2
|  2> 
|  3> %pal
|  4> nprocs 8
|  5> end
|  6> 
|  7> %scf
|  8> MaxIter 1500
|  9> end
| 10> 
| 11> %maxcore 3500
| 12> 
| 13> !CPCM
| 14> %cpcm smd true
| 15> SMDsolvent "MeCN"
| 16> surfacetype gepol_ses
| 17> rsolv 2.19
| 18> end 
| 19> 
| 20> * xyz 1 2
| 21> C          -0.34270275561118      0.84711240516987     -0.00000461392678
| 22> C          -1.62114214149599      0.28310666085248      0.00005036258773
| 23> C          -1.76655845984461     -1.14534797316706      0.00015902441429
| 24> C          -0.64047775510568     -1.96124661886859      0.00020951229865
| 25> C           0.62711717490611     -1.39778631503778      0.00015498102973
| 26> C           0.79382657036915      0.03758278475822      0.00002872344792
| 27> C           2.09240943022637      0.64547974379403     -0.00003830185520
| 28> C           3.29430838690790     -0.01032166453559      0.00000281703843
| 29> C           4.60760132054960      0.65947907504340     -0.00004889316533
| 30> H           5.19809781171836      0.33504540056372     -0.87962451212125
| 31> H           5.19805381830583      0.33523637975460      0.87962749612829
| 32> H           4.53047503370681      1.75742824935659     -0.00016451192059
| 33> H           3.31318609028762     -1.10737767604801      0.00008430734855
| 34> H           2.10926613216247      1.74179274962735     -0.00012792598686
| 35> H           1.50121349078302     -2.05141955010833      0.00019397364887
| 36> H          -0.75915141594404     -3.04749102718735      0.00029347430122
| 37> H          -2.76100240605802     -1.59669233225998      0.00020413991672
| 38> O          -2.63949171539410      1.10870001849501     -0.00000818654028
| 39> C          -3.98618237230029      0.65565691136091      0.00006847700849
| 40> H          -4.60288239689184      1.56371892248403      0.00002378375357
| 41> H          -4.19996760244314      0.06636471722196      0.90775693220812
| 42> H          -4.20002007511970      0.06623874429631     -0.90752475328728
| 43> H          -0.25881356371464      1.93607439443420     -0.00008040632701
| 44> *
| 45> 
| 46>                          ****END OF INPUT****
================================================================================

                       *****************************
                       * Geometry Optimization Run *
                       *****************************

Geometry optimization settings:
Update method            Update   .... BFGS
Choice of coordinates    CoordSys .... (2022) Redundant Internals
Initial Hessian          InHess   .... Almloef's Model
Max. no of cycles        MaxIter  .... 69

Convergence Tolerances:
Energy Change            TolE     ....  5.0000e-06 Eh
Max. Gradient            TolMAXG  ....  3.0000e-04 Eh/bohr
RMS Gradient             TolRMSG  ....  1.0000e-04 Eh/bohr
Max. Displacement        TolMAXD  ....  4.0000e-03 bohr
RMS Displacement         TolRMSD  ....  2.0000e-03 bohr
Strict Convergence                .... False

------------------------------------------------------------------------------
                        ORCA OPTIMIZATION COORDINATE SETUP
------------------------------------------------------------------------------

The optimization will be done in redundant internal coordinates (2022)
Making redundant internal coordinates   ...  (2022 redundants) done
Evaluating the initial hessian          ...  (Almloef) done
Evaluating the coordinates              ...  done
Calculating the B-matrix                .... done
Calculating the G-matrix                .... done
Diagonalizing the G-matrix              .... done
Small eigenvalue found = 8.798e-03
Small eigenvalue found = 2.458e-02
The first mode is                       ....   39
The number of degrees of freedom        ....   63

    -----------------------------------------------------------------
                    Redundant Internal Coordinates


    -----------------------------------------------------------------
         Definition                    Initial Value    Approx d2E/dq
    -----------------------------------------------------------------
      1. B(C   1,C   0)                  1.3973         0.608214   
      2. B(C   2,C   1)                  1.4358         0.527969   
      3. B(C   3,C   2)                  1.3906         0.623437   
      4. B(C   4,C   3)                  1.3872         0.631289   
      5. B(C   5,C   4)                  1.4450         0.510459   
      6. B(C   5,C   0)                  1.3954         0.612608   
      7. B(C   6,C   5)                  1.4338         0.531885   
      8. B(C   7,C   6)                  1.3692         0.674475   
      9. B(C   8,C   7)                  1.4742         0.458507   
     10. B(H   9,C   8)                  1.1080         0.337096   
     11. B(H  10,C   8)                  1.1080         0.337095   
     12. B(H  11,C   8)                  1.1007         0.346277   
     13. B(H  12,C   7)                  1.0972         0.350676   
     14. B(H  13,C   6)                  1.0964         0.351677   
     15. B(H  14,C   4)                  1.0915         0.358176   
     16. B(H  15,C   3)                  1.0927         0.356536   
     17. B(H  16,C   2)                  1.0921         0.357364   
     18. B(O  17,C   1)                  1.3110         0.748108   
     19. B(C  18,O  17)                  1.4209         0.499633   
     20. B(H  19,C  18)                  1.0977         0.350086   
     21. B(H  20,C  18)                  1.1031         0.343159   
     22. B(H  21,C  18)                  1.1031         0.343160   
     23. B(H  22,C   0)                  1.0922         0.357217   
     24. A(C   1,C   0,H  22)          118.2106         0.351287   
     25. A(C   5,C   0,H  22)          121.0565         0.351715   
     26. A(C   1,C   0,C   5)          120.7329         0.431639   
     27. A(C   0,C   1,O  17)          117.1622         0.444541   
     28. A(C   0,C   1,C   2)          119.6182         0.420300   
     29. A(C   2,C   1,O  17)          123.2196         0.433336   
     30. A(C   1,C   2,H  16)          120.2244         0.343044   
     31. A(C   1,C   2,C   3)          120.1124         0.422159   
     32. A(C   3,C   2,H  16)          119.6632         0.352784   
     33. A(C   4,C   3,H  15)          120.2006         0.353393   
     34. A(C   2,C   3,H  15)          119.6902         0.352645   
     35. A(C   2,C   3,C   4)          120.1092         0.435912   
     36. A(C   3,C   4,C   5)          120.5906         0.420563   
     37. A(C   3,C   4,H  14)          119.2458         0.353668   
     38. A(C   5,C   4,H  14)          120.1636         0.341242   
     39. A(C   0,C   5,C   4)          118.8367         0.418316   
     40. A(C   0,C   5,C   6)          119.4530         0.421395   
     41. A(C   4,C   5,C   6)          121.7103         0.407951   
     42. A(C   7,C   6,H  13)          117.7376         0.356550   
     43. A(C   5,C   6,H  13)          115.9663         0.342548   
     44. A(C   5,C   6,C   7)          126.2961         0.428713   
     45. A(C   6,C   7,C   8)          124.3591         0.417488   
     46. A(C   8,C   7,H  12)          116.0365         0.334012   
     47. A(C   6,C   7,H  12)          119.6044         0.356378   
     48. A(H   9,C   8,H  11)          109.2300         0.286092   
     49. A(C   7,C   8,H  11)          113.0041         0.333313   
     50. A(H   9,C   8,H  10)          105.1044         0.284897   
     51. A(C   7,C   8,H  10)          109.9834         0.331831   
     52. A(C   7,C   8,H   9)          109.9842         0.331831   
     53. A(H  10,C   8,H  11)          109.2295         0.286092   
     54. A(C   1,O  17,C  18)          122.3742         0.426265   
     55. A(O  17,C  18,H  20)          110.7360         0.335554   
     56. A(O  17,C  18,H  19)          105.5884         0.336672   
     57. A(H  20,C  18,H  21)          110.7315         0.286484   
     58. A(H  19,C  18,H  21)          109.4558         0.287380   
     59. A(O  17,C  18,H  21)          110.7356         0.335554   
     60. A(H  19,C  18,H  20)          109.4557         0.287380   
     61. D(O  17,C   1,C   0,C   5)   -179.9989         0.025540   
     62. D(O  17,C   1,C   0,H  22)      0.0007         0.025540   
     63. D(C   2,C   1,C   0,H  22)   -179.9996         0.025540   
     64. D(C   2,C   1,C   0,C   5)      0.0008         0.025540   
     65. D(H  16,C   2,C   1,O  17)     -0.0004         0.019023   
     66. D(C   3,C   2,C   1,C   0)      0.0000         0.019023   
     67. D(C   3,C   2,C   1,O  17)    179.9997         0.019023   
     68. D(H  16,C   2,C   1,C   0)    179.9999         0.019023   
     69. D(H  15,C   3,C   2,H  16)      0.0000         0.026913   
     70. D(H  15,C   3,C   2,C   1)    179.9999         0.026913   
     71. D(C   4,C   3,C   2,H  16)   -179.9999         0.026913   
     72. D(C   4,C   3,C   2,C   1)     -0.0000         0.026913   
     73. D(H  14,C   4,C   3,C   2)   -179.9999         0.027639   
     74. D(C   5,C   4,C   3,H  15)    179.9993         0.027639   
     75. D(C   5,C   4,C   3,C   2)     -0.0008         0.027639   
     76. D(H  14,C   4,C   3,H  15)      0.0002         0.027639   
     77. D(C   6,C   5,C   4,H  14)     -0.0005         0.017758   
     78. D(C   0,C   5,C   4,H  14)   -179.9993         0.017758   
     79. D(C   0,C   5,C   4,C   3)      0.0015         0.017758   
     80. D(C   6,C   5,C   0,H  22)     -0.0000         0.025932   
     81. D(C   6,C   5,C   0,C   1)    179.9996         0.025932   
     82. D(C   6,C   5,C   4,C   3)   -179.9996         0.017758   
     83. D(C   4,C   5,C   0,H  22)    179.9989         0.025932   
     84. D(C   4,C   5,C   0,C   1)     -0.0015         0.025932   
     85. D(H  13,C   6,C   5,C   4)   -179.9997         0.019314   
     86. D(H  13,C   6,C   5,C   0)     -0.0008         0.019314   
     87. D(C   7,C   6,C   5,C   4)      0.0001         0.019314   
     88. D(C   7,C   6,C   5,C   0)    179.9990         0.019314   
     89. D(H  12,C   7,C   6,C   5)      0.0007         0.031848   
     90. D(C   8,C   7,C   6,H  13)      0.0008         0.031848   
     91. D(C   8,C   7,C   6,C   5)   -179.9990         0.031848   
     92. D(H  12,C   7,C   6,H  13)   -179.9995         0.031848   
     93. D(H  11,C   8,C   7,C   6)     -0.0022         0.015500   
     94. D(H  10,C   8,C   7,H  12)    -57.6501         0.015500   
     95. D(H  10,C   8,C   7,C   6)    122.3496         0.015500   
     96. D(H   9,C   8,C   7,H  12)     57.6450         0.015500   
     97. D(H   9,C   8,C   7,C   6)   -122.3553         0.015500   
     98. D(C  18,O  17,C   1,C   2)      0.0018         0.042483   
     99. D(C  18,O  17,C   1,C   0)   -179.9986         0.042483   
    100. D(H  21,C  18,O  17,C   1)    -61.6184         0.019734   
    101. D(H  20,C  18,O  17,C   1)     61.6149         0.019734   
    102. D(H  19,C  18,O  17,C   1)    179.9983         0.019734   
    -----------------------------------------------------------------

Number of atoms                         .... 23
Number of degrees of freedom            .... 102


         *************************************************************
         *                GEOMETRY OPTIMIZATION CYCLE   1            *
         *************************************************************
---------------------------------
CARTESIAN COORDINATES (ANGSTROEM)
---------------------------------
  C     -0.342703    0.847112   -0.000005
  C     -1.621142    0.283107    0.000050
  C     -1.766558   -1.145348    0.000159
  C     -0.640478   -1.961247    0.000210
  C      0.627117   -1.397786    0.000155
  C      0.793827    0.037583    0.000029
  C      2.092409    0.645480   -0.000038
  C      3.294308   -0.010322    0.000003
  C      4.607601    0.659479   -0.000049
  H      5.198098    0.335045   -0.879625
  H      5.198054    0.335236    0.879627
  H      4.530475    1.757428   -0.000165
  H      3.313186   -1.107378    0.000084
  H      2.109266    1.741793   -0.000128
  H      1.501213   -2.051420    0.000194
  H     -0.759151   -3.047491    0.000293
  H     -2.761002   -1.596692    0.000204
  O     -2.639492    1.108700   -0.000008
  C     -3.986182    0.655657    0.000068
  H     -4.602882    1.563719    0.000024
  H     -4.199968    0.066365    0.907757
  H     -4.200020    0.066239   -0.907525
  H     -0.258814    1.936074   -0.000080

----------------------------
CARTESIAN COORDINATES (A.U.)
----------------------------
  NO LB      ZA    FRAG     MASS         X           Y           Z
   0 C     6.0000    0    12.011   -0.647614    1.600810   -0.000009
   1 C     6.0000    0    12.011   -3.063515    0.534994    0.000095
   2 C     6.0000    0    12.011   -3.338312   -2.164394    0.000301
   3 C     6.0000    0    12.011   -1.210328   -3.706219    0.000396
   4 C     6.0000    0    12.011    1.185080   -2.641433    0.000293
   5 C     6.0000    0    12.011    1.500115    0.071021    0.000054
   6 C     6.0000    0    12.011    3.954081    1.219780   -0.000072
   7 C     6.0000    0    12.011    6.225341   -0.019505    0.000005
   8 C     6.0000    0    12.011    8.707105    1.246235   -0.000092
   9 H     1.0000    0     1.008    9.822981    0.633144   -1.662249
  10 H     1.0000    0     1.008    9.822898    0.633505    1.662255
  11 H     1.0000    0     1.008    8.561357    3.321058   -0.000311
  12 H     1.0000    0     1.008    6.261014   -2.092641    0.000159
  13 H     1.0000    0     1.008    3.985935    3.291511   -0.000242
  14 H     1.0000    0     1.008    2.836882   -3.876621    0.000367
  15 H     1.0000    0     1.008   -1.434588   -5.758923    0.000555
  16 H     1.0000    0     1.008   -5.217538   -3.017311    0.000386
  17 O     8.0000    0    15.999   -4.987916    2.095139   -0.000015
  18 C     6.0000    0    12.011   -7.532793    1.239012    0.000129
  19 H     1.0000    0     1.008   -8.698187    2.955001    0.000045
  20 H     1.0000    0     1.008   -7.936789    0.125411    1.715412
  21 H     1.0000    0     1.008   -7.936888    0.125173   -1.714973
  22 H     1.0000    0     1.008   -0.489087    3.658650   -0.000152

--------------------------------
INTERNAL COORDINATES (ANGSTROEM)
--------------------------------
 C      0   0   0     0.000000000000     0.00000000     0.00000000
 C      1   0   0     1.397322348646     0.00000000     0.00000000
 C      2   1   0     1.435837232733   119.61817892     0.00000000
 C      3   2   1     1.390592807472   120.11243220     0.00000000
 C      4   3   2     1.387185792732   120.10920716     0.00000000
 C      1   2   3     1.395362718525   120.73289814     0.00000000
 C      6   1   2     1.433825708101   119.45301389   179.99958756
 C      7   6   1     1.369173689102   126.29606074   179.99898239
 C      8   7   6     1.474235857306   124.35913162   180.00097606
 H      9   8   7     1.107969577507   109.98416729   237.64468538
 H      9   8   7     1.107970228587   109.98337759   122.34964450
 H      9   8   7     1.100654744625   113.00413492     0.00000000
 H      8   7   6     1.097218422522   119.60437344     0.00000000
 H      7   6   1     1.096442594572   115.96629118     0.00000000
 H      5   4   3     1.091458096740   119.24584326   180.00010371
 H      4   3   2     1.092707810638   119.69019090   179.99992429
 H      3   2   1     1.092076231167   120.22435751   179.99991477
 O      2   1   3     1.310969202640   117.16222135   180.00032650
 C     18   2   1     1.420853190234   122.37416332   180.00143605
 H     19  18   2     1.097677338007   105.58837698   179.99829468
 H     19  18   2     1.103117285878   110.73602914    61.61486058
 H     19  18   2     1.103116408405   110.73559961   298.38157763
 H      1   2   3     1.092188452752   118.21064010   180.00040349

---------------------------
INTERNAL COORDINATES (A.U.)
---------------------------
 C      0   0   0     0.000000000000     0.00000000     0.00000000
 C      1   0   0     2.640556559750     0.00000000     0.00000000
 C      2   1   0     2.713339142752   119.61817892     0.00000000
 C      3   2   1     2.627839569922   120.11243220     0.00000000
 C      4   3   2     2.621401245131   120.10920716     0.00000000
 C      1   2   3     2.636853395495   120.73289814     0.00000000
 C      6   1   2     2.709537912087   119.45301389   179.99958756
 C      7   6   1     2.587363302174   126.29606074   179.99898239
 C      8   7   6     2.785902027116   124.35913162   180.00097606
 H      9   8   7     2.093759066204   109.98416729   237.64468538
 H      9   8   7     2.093760296568   109.98337759   122.34964450
 H      9   8   7     2.079936035342   113.00413492     0.00000000
 H      8   7   6     2.073442327659   119.60437344     0.00000000
 H      7   6   1     2.071976225307   115.96629118     0.00000000
 H      5   4   3     2.062556889489   119.24584326   180.00010371
 H      4   3   2     2.064918506503   119.69019090   179.99992429
 H      3   2   1     2.063724994271   120.22435751   179.99991477
 O      2   1   3     2.477372762994   117.16222135   180.00032650
 C     18   2   1     2.685023406050   122.37416332   180.00143605
 H     19  18   2     2.074309552245   105.58837698   179.99829468
 H     19  18   2     2.084589563904   110.73602914    61.61486058
 H     19  18   2     2.084587905720   110.73559961   298.38157763
 H      1   2   3     2.063937062332   118.21064010   180.00040349

---------------------
BASIS SET INFORMATION
---------------------
There are 3 groups of distinct atoms

 Group   1 Type C   : 19s6p3d2f contracted to 5s4p3d2f pattern {88111/3111/111/11}
 Group   2 Type H   : 6s3p2d contracted to 4s3p2d pattern {3111/111/11}
 Group   3 Type O   : 19s6p3d2f contracted to 5s4p3d2f pattern {88111/3111/111/11}

Atom   0C    basis set group =>   1
Atom   1C    basis set group =>   1
Atom   2C    basis set group =>   1
Atom   3C    basis set group =>   1
Atom   4C    basis set group =>   1
Atom   5C    basis set group =>   1
Atom   6C    basis set group =>   1
Atom   7C    basis set group =>   1
Atom   8C    basis set group =>   1
Atom   9H    basis set group =>   2
Atom  10H    basis set group =>   2
Atom  11H    basis set group =>   2
Atom  12H    basis set group =>   2
Atom  13H    basis set group =>   2
Atom  14H    basis set group =>   2
Atom  15H    basis set group =>   2
Atom  16H    basis set group =>   2
Atom  17O    basis set group =>   3
Atom  18C    basis set group =>   1
Atom  19H    basis set group =>   2
Atom  20H    basis set group =>   2
Atom  21H    basis set group =>   2
Atom  22H    basis set group =>   2
---------------------------------
AUXILIARY/J BASIS SET INFORMATION
---------------------------------
There are 3 groups of distinct atoms

 Group   1 Type C   : 12s5p4d2f1g contracted to 6s4p3d1f1g pattern {711111/2111/211/2/1}
 Group   2 Type H   : 5s2p1d contracted to 3s1p1d pattern {311/2/1}
 Group   3 Type O   : 12s5p4d2f1g contracted to 6s4p3d1f1g pattern {711111/2111/211/2/1}

Atom   0C    basis set group =>   1
Atom   1C    basis set group =>   1
Atom   2C    basis set group =>   1
Atom   3C    basis set group =>   1
Atom   4C    basis set group =>   1
Atom   5C    basis set group =>   1
Atom   6C    basis set group =>   1
Atom   7C    basis set group =>   1
Atom   8C    basis set group =>   1
Atom   9H    basis set group =>   2
Atom  10H    basis set group =>   2
Atom  11H    basis set group =>   2
Atom  12H    basis set group =>   2
Atom  13H    basis set group =>   2
Atom  14H    basis set group =>   2
Atom  15H    basis set group =>   2
Atom  16H    basis set group =>   2
Atom  17O    basis set group =>   3
Atom  18C    basis set group =>   1
Atom  19H    basis set group =>   2
Atom  20H    basis set group =>   2
Atom  21H    basis set group =>   2
Atom  22H    basis set group =>   2


           ************************************************************
           *        Program running with 8 parallel MPI-processes     *
           *              working on a common directory               *
           ************************************************************
------------------------------------------------------------------------------
                             ORCA STARTUP CALCULATIONS
                           -- RI-GTO INTEGRALS CHOSEN --
------------------------------------------------------------------------------
------------------------------------------------------------------------------
                   ___                                                        
                  /   \      - P O W E R E D   B Y -                         
                 /     \                                                     
                 |  |  |   _    _      __       _____    __    __             
                 |  |  |  | |  | |    /  \     |  _  \  |  |  /  |          
                  \  \/   | |  | |   /    \    | | | |  |  | /  /          
                 / \  \   | |__| |  /  /\  \   | |_| |  |  |/  /          
                |  |  |   |  __  | /  /__\  \  |    /   |      \           
                |  |  |   | |  | | |   __   |  |    \   |  |\   \          
                \     /   | |  | | |  |  |  |  | |\  \  |  | \   \       
                 \___/    |_|  |_| |__|  |__|  |_| \__\ |__|  \__/        
                                                                              
                      - O R C A' S   B I G   F R I E N D -                    
                                      &                                       
                       - I N T E G R A L  F E E D E R -                       
                                                                              
 v1 FN, 2020, v2 2021, v3 2022-2024                                           
------------------------------------------------------------------------------


----------------------
SHARK INTEGRAL PACKAGE
----------------------

Number of atoms                             ...     23
Number of basis functions                   ...    848
Number of shells                            ...    328
Maximum angular momentum                    ...      3
Integral batch strategy                     ... SHARK/LIBINT Hybrid
RI-J (if used) integral strategy            ... SPLIT-RIJ (Revised 2003 algorithm where possible)
Printlevel                                  ...      1
Contraction scheme used                     ... PARTIAL GENERAL contraction
Prescreening option                         ... SCHWARTZ
   Thresh                                   ... 2.500e-11
   Tcut                                     ... 2.500e-12
   Tpresel                                  ... 2.500e-12 
Coulomb Range Separation                    ... NOT USED
Exchange Range Separation                   ... NOT USED
Multipole approximations                    ... NOT USED
Finite Nucleus Model                        ... NOT USED
CABS basis                                  ... NOT available
Auxiliary Coulomb fitting basis             ... AVAILABLE
   # of basis functions in Aux-J            ...    671
   # of shells in Aux-J                     ...    225
   Maximum angular momentum in Aux-J        ...      4
Auxiliary J/K fitting basis                 ... NOT available
Auxiliary Correlation fitting basis         ... NOT available
Auxiliary 'external' fitting basis          ... NOT available

Checking pre-screening integrals            ... done (  0.1 sec) Dimension = 328
Save PGC pre-screening integrals            ... done (  0.1 sec) Dimension = 328
Calculate PGC overlap integrals             ... done (  0.2 sec) Dimension = 262
Calculating pre-screening integrals (ORCA)  ... done (  0.3 sec) Dimension = 262
Check shell pair data                       ... done (  0.1 sec)
Shell pair information
Shell pair cut-off parameter TPreSel        ...   2.5e-12
Total number of shell pairs                 ...     53956
Shell pairs after pre-screening             ...     42210
Total number of primitive shell pairs       ...     70194
Primitive shell pairs kept                  ...     50350
          la=0 lb=0:   9574 shell pairs
          la=1 lb=0:  10905 shell pairs
          la=1 lb=1:   2871 shell pairs
          la=2 lb=0:   7547 shell pairs
          la=2 lb=1:   3938 shell pairs
          la=2 lb=2:   1400 shell pairs
          la=3 lb=0:   3056 shell pairs
          la=3 lb=1:   1577 shell pairs
          la=3 lb=2:   1106 shell pairs
          la=3 lb=3:    236 shell pairs

Calculating one electron integrals          ... done (  0.1 sec)
Calculating RI/J V-Matrix + Cholesky decomp.... done (  0.1 sec)
Calculating Nuclear repulsion               ... done (  0.0 sec) ENN=    557.600107105953 Eh

Diagonalization of the overlap matrix:
Smallest eigenvalue                        ... 4.494e-07
Time for diagonalization                   ...    0.202 sec
Threshold for overlap eigenvalues          ... 1.000e-07
Number of eigenvalues below threshold      ... 0

IMPORTANT:
Smallest eigenvalue of S below the DiffSThresh (1.000e-06) while
Thresh>1e-12 and/or TCut>1e-13! In order to avoid SCF convergence issues,
Thresh will be set to at least 1e-12 and TCut to at least 1e-13.
This can be turned off by adding %SCF DiffSThresh -1 END to the input.

Time for construction of square roots      ...    0.150 sec
Total time needed                          ...    0.436 sec

-------------------
DFT GRID GENERATION
-------------------

General Integration Accuracy     IntAcc      ... 4.388
Radial Grid Type                 RadialGrid  ... OptM3 with GC (2021)
Angular Grid (max. ang.)         AngularGrid ... 4 (Lebedev-302)
Angular grid pruning method      GridPruning ... 4 (adaptive)
Weight generation scheme         WeightScheme... mBecke (2022)
Basis function cutoff            BFCut       ... 1.0000e-11
Integration weight cutoff        WCut        ... 1.0000e-14
Partially contracted basis set               ... off
Rotationally invariant grid construction     ... off
Angular grids for H and He will be reduced by one unit
Diffuse basis detected: some atoms will have their outermost
                        angular grid increased by 1.

Total number of grid points                  ...   109688
Total number of batches                      ...     1725
Average number of points per batch           ...       63
Average number of grid points per atom       ...     4769

---------------------
SHARK GRID GENERATION
---------------------

General Integration Accuracy     IntAcc      ... 4.388
Radial Grid Type                 RadialGrid  ... OptM3 with GC (2021)
Angular Grid (max. ang.)         AngularGrid ... 4 (Lebedev-302)
Angular grid pruning method      GridPruning ... 4 (adaptive)
Weight generation scheme         WeightScheme... mBecke (2022)
Basis function cutoff            BFCut       ... 1.0000e-11
Integration weight cutoff        WCut        ... 1.0000e-14
Partially contracted basis set               ... off
Rotationally invariant grid construction     ... off
Angular grids for H and He will be reduced by one unit
Diffuse basis detected: some atoms will have their outermost
                        angular grid increased by 1.
Steep s-basis detected: some atoms will have their radial
                        grid points doubled.

Total number of grid points                  ...   178932
Total number of batches                      ...     2808
Average number of points per batch           ...       63
Average number of grid points per atom       ...     7780

--------------------
COSX GRID GENERATION
--------------------

GRIDX 1
-------
General Integration Accuracy     IntAcc      ... 3.816
Radial Grid Type                 RadialGrid  ... OptM3 with GC (2021)
Angular Grid (max. ang.)         AngularGrid ... 1 (Lebedev-50)
Angular grid pruning method      GridPruning ... 4 (adaptive)
Weight generation scheme         WeightScheme... mBecke (2022)
Basis function cutoff            BFCut       ... 1.0000e-11
Integration weight cutoff        WCut        ... 1.0000e-14
Partially contracted basis set               ... on
Rotationally invariant grid construction     ... off
Angular grids for H and He will be reduced by one unit
Diffuse basis detected: some atoms will have their outermost
                        angular grid increased by 1.

Total number of grid points                  ...    13758
Total number of batches                      ...      119
Average number of points per batch           ...      115
Average number of grid points per atom       ...      598
UseSFitting                                  ... on

GRIDX 2
-------
General Integration Accuracy     IntAcc      ... 4.020
Radial Grid Type                 RadialGrid  ... OptM3 with GC (2021)
Angular Grid (max. ang.)         AngularGrid ... 2 (Lebedev-110)
Angular grid pruning method      GridPruning ... 4 (adaptive)
Weight generation scheme         WeightScheme... mBecke (2022)
Basis function cutoff            BFCut       ... 1.0000e-11
Integration weight cutoff        WCut        ... 1.0000e-14
Partially contracted basis set               ... on
Rotationally invariant grid construction     ... off
Angular grids for H and He will be reduced by one unit
Diffuse basis detected: some atoms will have their outermost
                        angular grid increased by 1.

Total number of grid points                  ...    32893
Total number of batches                      ...      270
Average number of points per batch           ...      121
Average number of grid points per atom       ...     1430
UseSFitting                                  ... on

GRIDX 3
-------
General Integration Accuracy     IntAcc      ... 4.338
Radial Grid Type                 RadialGrid  ... OptM3 with GC (2021)
Angular Grid (max. ang.)         AngularGrid ... 3 (Lebedev-194)
Angular grid pruning method      GridPruning ... 4 (adaptive)
Weight generation scheme         WeightScheme... mBecke (2022)
Basis function cutoff            BFCut       ... 1.0000e-11
Integration weight cutoff        WCut        ... 1.0000e-14
Partially contracted basis set               ... on
Rotationally invariant grid construction     ... off
Angular grids for H and He will be reduced by one unit
Diffuse basis detected: some atoms will have their outermost
                        angular grid increased by 1.

Total number of grid points                  ...    73289
Total number of batches                      ...      586
Average number of points per batch           ...      125
Average number of grid points per atom       ...     3186
UseSFitting                                  ... on
Initializing property integral containers    ... done (  0.2 sec)

SHARK setup successfully completed in  11.0 seconds

Maximum memory used throughout the entire STARTUP-calculation: 88.8 MB


           ************************************************************
           *        Program running with 8 parallel MPI-processes     *
           *              working on a common directory               *
           ************************************************************
-------------------------------------------------------------------------------
                                 ORCA GUESS
                   Start orbitals & Density for SCF / CASSCF
-------------------------------------------------------------------------------

------------
SCF SETTINGS
------------
Hamiltonian:
 Density Functional     Method          .... DFT(GTOs)
 Exchange Functional    Exchange        .... TPSS
 Correlation Functional Correlation     .... TPSS
 LDA part of GGA corr.  LDAOpt          .... PW91-LDA
 Gradients option       PostSCFGGA      .... off
 Hybrid DFT is turned on
   Fraction HF Exchange ScalHFX         ....  0.100000
   Scaling of DF-GGA-X  ScalDFX         ....  0.900000
   Scaling of DF-GGA-C  ScalDFC         ....  1.000000
   Scaling of DF-LDA-C  ScalLDAC        ....  1.000000
   Perturbative correction              ....  0.000000
   NL short-range parameter             ....  5.200000
 RI-approximation to the Coulomb term is turned on
   Number of AuxJ basis functions       .... 671
   RIJ-COSX (HFX calculated with COS-X)).... on


General Settings:
 Integral files         IntName         .... cs_rporg_018_ox_opt_08
 Hartree-Fock type      HFTyp           .... UHF
 Total Charge           Charge          ....    1
 Multiplicity           Mult            ....    2
 Number of Electrons    NEL             ....   79
 Basis Dimension        Dim             ....  782
 Nuclear Repulsion      ENuc            ....    557.6001071060 Eh

Convergence Acceleration:
 AO-DIIS                CNVDIIS         .... on
   Start iteration      DIISMaxIt       ....     0
   Startup error        DIISStart       ....  0.200000
   # of expansion vecs  DIISMaxEq       ....     5
   Bias factor          DIISBfac        ....   1.050
   Max. coefficient     DIISMaxC        ....  10.000
 MO-DIIS                CNVKDIIS        .... off
 Trust-Rad. Augm. Hess. CNVTRAH         .... auto
   Auto Start mean grad. ratio tolernc. ....  1.125000
   Auto Start start iteration           ....    50
   Auto Start num. interpolation iter.  ....    10
   Max. Number of Micro iterations      ....    24
   Max. Number of Macro iterations      .... Maxiter - #DIIS iter
   Number of Davidson start vectors     ....     2
   Converg. threshold    (grad. norm)   ....   1.000e-05
   Grad. Scal. Fac. for Micro threshold ....   0.100
   Minimum threshold for Micro iter.    ....   1.000e-02
   NR start threshold (gradient norm)   ....   1.000e-04
   Initial trust radius                 ....   0.400
   Minimum AH scaling param. (alpha)    ....   1.000
   Maximum AH scaling param. (alpha)    .... 1000.000
   Quad. conv. algorithm                .... NR
   White noise on init. David. guess    .... on
   Maximum white noise                  ....   0.010
   Pseudo random numbers                .... off
   Inactive MOs                         .... canonical
   Orbital update algorithm             .... Taylor
   Preconditioner                       .... Diag
   Full preconditioner red. dimension   ....   250
 SOSCF                  CNVSOSCF        .... on
   Start iteration      SOSCFMaxIt      ....   150
   Startup grad/error   SOSCFStart      ....  0.001000
   Hessian update       SOSCFHessUp     .... L-BFGS
 Level Shifting         CNVShift        .... on
   Level shift para.    LevelShift      ....    0.2500
   Turn off err/grad.   ShiftErr        ....    0.0000
 Zerner damping         CNVZerner       .... off
 Static damping         CNVDamp         .... on
   Fraction old density DampFac         ....    0.8500
   Max. Damping (<1)    DampMax         ....    0.9800
   Min. Damping (>=0)   DampMin         ....    0.0000
   Turn off err/grad.   DampErr         ....    0.0300

SCF Procedure:
 Maximum # iterations   MaxIter         ....  1500
 SCF integral mode      SCFMode         .... Direct
   Integral package                     .... SHARK and LIBINT hybrid scheme
 Reset frequency        DirectResetFreq ....    20
 Integral Threshold     Thresh          ....  1.000e-12 Eh
 Primitive CutOff       TCut            ....  1.000e-13 Eh

Convergence Tolerance:
 Convergence Check Mode ConvCheckMode   .... Total+1el-Energy
 Convergence forced     ConvForced      .... 0
 Energy Change          TolE            ....  1.000e-08 Eh
 1-El. energy change                    ....  1.000e-05 Eh
 Orbital Gradient       TolG            ....  1.000e-05
 Orbital Rotation angle TolX            ....  1.000e-05
 DIIS Error             TolErr          ....  5.000e-07

------------------------------
INITIAL GUESS: MODEL POTENTIAL
------------------------------
Loading Hartree-Fock densities                     ... done
Calculating cut-offs                               ... done
Initializing the effective Hamiltonian             ... done
Setting up the integral package (SHARK)            ... done
Starting the Coulomb interaction                   ... done (   0.8 sec)
Making the grid                                    ... done (   0.6 sec)
Mapping shells                                     ... done
Starting the XC term evaluation                    ... done (   0.6 sec)
  promolecular density results
     # of electrons  =     79.992699532
     EX              =    -62.811263392
     EC              =     -2.635068033
     EX+EC           =    -65.446331425
Transforming the Hamiltonian                       ... done (   0.2 sec)
Diagonalizing the Hamiltonian                      ... done (   0.2 sec)
Back transforming the eigenvectors                 ... done (   0.9 sec)
Now organizing SCF variables                       ... done
                      ------------------
                      INITIAL GUESS DONE (   4.9 sec)
                      ------------------
             **** ENERGY FILE WAS UPDATED (cs_rporg_018_ox_opt_08.en.tmp) ****
Finished Guess after   7.1 sec
Maximum memory used throughout the entire GUESS-calculation: 67.5 MB


           ************************************************************
           *        Program running with 8 parallel MPI-processes     *
           *              working on a common directory               *
           ************************************************************

-------------------------------------------------------------------------------------------
                                      ORCA LEAN-SCF
                              memory conserving SCF solver
-------------------------------------------------------------------------------------------

--------------------
CPCM SOLVATION MODEL
--------------------
CPCM parameters:
  Epsilon                                         ...      35.6880
  Refrac                                          ...       1.3442
  Rsolv                                           ...       2.1900
  Surface type                                    ...    GEPOL SES
  Discretization scheme                           ... Constant num. charges
  Epsilon function type                           ...         CPCM
Solvent:                                          ... ACETONITRILE
SMD-CDS solvent descriptors:
  Soln                                            ...       1.3442
  Soln25                                          ...       1.3416
  Sola                                            ...       0.0700
  Solb                                            ...       0.3200
  Solg                                            ...      41.2500
  Solc                                            ...       0.0000
  Solh                                            ...       0.0000
Radii:
  Scheme                                          ... Element-dependent radii
  Radius for C  used is    3.4960 Bohr (=   1.8500 Ang.)
  Radius for H  used is    2.2677 Bohr (=   1.2000 Ang.)
  Radius for O  used is    4.0969 Bohr (=   2.1680 Ang.)
Calculating surface                               ...        done! (  0.0s)
Cavity surface points                             ...          780
Cavity Volume                                     ...    1232.8721
Cavity Surface-area                               ...     705.8869
Calculating surface distance matrix               ...        done! (  0.0s)
Performing Cholesky decomposition & store         ...        done! (  0.1s)
Overall time for CPCM initialization              ...                 0.1s

----------------------------------------D-I-I-S--------------------------------------------
Iteration    Energy (Eh)           Delta-E    RMSDP     MaxDP     DIISErr   Damp  Time(sec)
-------------------------------------------------------------------------------------------
               ***  Starting incremental Fock matrix formation  ***
    1    -463.3225983520250111     0.00e+00  6.44e-04  6.28e-02  9.01e-02  0.850  34.2
Warning: op=1 Small HOMO/LUMO gap (   0.028) - skipping pre-diagonalization
         Will do a full diagonalization
    2    -463.3631126588055622    -4.05e-02  6.01e-04  5.06e-02  6.82e-02  0.850  24.9
                               ***Turning on AO-DIIS***
    3    -463.3913055147627347    -2.82e-02  4.67e-04  4.06e-02  4.67e-02  0.850  22.5
    4    -463.4101084375009805    -1.88e-02  3.89e-04  3.41e-02  3.67e-02  0.850  24.0
    5    -463.4238812590077714    -1.38e-02  3.29e-04  2.91e-02  3.05e-02  0.850  26.8
    6    -463.4347455556336399    -1.09e-02  2.80e-04  2.49e-02  2.59e-02  0.850  25.0
    7    -463.4436551655057883    -8.91e-03  1.59e-03  1.41e-01  2.20e-02  0.000  22.2
    8    -463.4887633780053875    -4.51e-02  4.53e-05  3.29e-03  2.43e-03  0.000  25.0
    9    -463.4888777248954739    -1.14e-04  1.93e-05  1.82e-03  1.33e-03  0.000  22.9
                              *** Initializing SOSCF ***
---------------------------------------S-O-S-C-F--------------------------------------
Iteration    Energy (Eh)           Delta-E    RMSDP     MaxDP     MaxGrad    Time(sec)
--------------------------------------------------------------------------------------
   10    -463.4889376262506175    -5.99e-05  1.80e-05  1.73e-03  8.25e-04    23.1
               *** Restarting incremental Fock matrix formation ***
   11    -463.4889749405716657    -3.73e-05  1.60e-04  1.78e-02  1.06e-03    31.6
   12    -463.4890121620576338    -3.72e-05  3.00e-04  3.47e-02  8.20e-04    29.7
   13    -463.4890534758585545    -4.13e-05  2.54e-04  2.97e-02  6.25e-04    29.5
   14    -463.4890627124999583    -9.24e-06  1.34e-04  1.52e-02  2.71e-04    27.6
   15    -463.4890656104803384    -2.90e-06  7.49e-05  8.51e-03  1.76e-04    28.0
   16    -463.4890674175741196    -1.81e-06  4.55e-05  5.26e-03  7.76e-05    29.0
   17    -463.4890677258904361    -3.08e-07  1.93e-05  2.26e-03  5.59e-05    27.0
   18    -463.4890679555651332    -2.30e-07  7.43e-06  8.50e-04  2.12e-05    24.6
   19    -463.4890679634534081    -7.89e-09  2.09e-06  2.30e-04  1.50e-05    23.6
                 **** Energy Check signals convergence ****

               *****************************************************
               *                     SUCCESS                       *
               *           SCF CONVERGED AFTER  19 CYCLES          *
               *****************************************************

Recomputing exchange energy using gridx3       ... done (   32.356 sec)
Old exchange energy                            :     -6.405480660 Eh
New exchange energy                            :     -6.405515408 Eh
Exchange energy change after final integration :     -0.000034748 Eh
Total energy after final integration           :   -463.489102712 Eh

SMD CDS free energy correction energy :                -1.73174     Kcal/mol
Total Energy after SMD CDS correction =              -463.491862417 Eh
             **** ENERGY FILE WAS UPDATED (cs_rporg_018_ox_opt_08.en.tmp) ****

----------------
TOTAL SCF ENERGY
----------------

Total Energy       :       -463.49186241695105 Eh          -12612.25477 eV

Components:
Nuclear Repulsion  :        557.60010710595259 Eh           15173.07030 eV
Electronic Energy  :      -1021.01023781218623 Eh          -27783.10104 eV
One Electron Energy:      -1717.89780794541321 Eh          -46746.37589 eV
Two Electron Energy:        696.88757013322697 Eh           18963.27486 eV
CPCM Dielectric    :         -0.07893725721972 Eh              -2.14799 eV
SMD CDS (Gcds)     :         -0.00275970529488 Eh              -0.07510 eV

Virial components:
Potential Energy   :       -924.22593459279403 Eh          -25149.46625 eV
Kinetic Energy     :        460.73407217584298 Eh           12537.21148 eV
Virial Ratio       :          2.00598564423092

DFT components:
N(Alpha)           :       39.999894489995 electrons
N(Beta)            :       38.999889461364 electrons
N(Total)           :       78.999783951359 electrons
E(X)               :      -58.109453965763 Eh       
E(C)               :       -2.603093782901 Eh       
E(XC)              :      -60.712547748664 Eh       

CPCM Solvation Model Properties:
Surface-charge          :         -1.04087949939455
Corrected charge        :         -1.00000000000000
Outlying charge corr.   :          0.00010951938263 Eh               0.00298 eV
Free-energy (cav+disp)  :         -0.00275970529488 Eh              -0.07510 eV

---------------
SCF CONVERGENCE
---------------

  Last Energy change         ...    7.8883e-09  Tolerance :   1.0000e-08
  Last MAX-Density change    ...    2.3002e-04  Tolerance :   1.0000e-07
  Last RMS-Density change    ...    2.0900e-06  Tolerance :   5.0000e-09
  Last DIIS Error            ...    8.2549e-04  Tolerance :   5.0000e-07
  Last Orbital Gradient      ...    1.4981e-05  Tolerance :   1.0000e-05
  Last Orbital Rotation      ...    8.6906e-05  Tolerance :   1.0000e-05


----------------------
UHF SPIN CONTAMINATION
----------------------

Warning: in a DFT calculation there is little theoretical justification to 
         calculate <S**2> as in Hartree-Fock theory. We will do it anyways
         but you should keep in mind that the values have only limited relevance

Expectation value of <S**2>     :     0.771030
Ideal value S*(S+1) for S=0.5   :     0.750000
Deviation                       :     0.021030

----------------
ORBITAL ENERGIES
----------------
                 SPIN UP ORBITALS
  NO   OCC          E(Eh)            E(eV) 
   0   1.0000     -19.132129      -520.6117 
   1   1.0000     -10.225689      -278.2551 
   2   1.0000     -10.177063      -276.9320 
   3   1.0000     -10.176950      -276.9289 
   4   1.0000     -10.172871      -276.8179 
   5   1.0000     -10.171537      -276.7816 
   6   1.0000     -10.169731      -276.7324 
   7   1.0000     -10.154529      -276.3188 
   8   1.0000     -10.150468      -276.2083 
   9   1.0000     -10.142091      -275.9803 
  10   1.0000     -10.124437      -275.4999 
  11   1.0000      -1.099456       -29.9177 
  12   1.0000      -0.878560       -23.9068 
  13   1.0000      -0.818990       -22.2858 
  14   1.0000      -0.776248       -21.1228 
  15   1.0000      -0.767202       -20.8766 
  16   1.0000      -0.708454       -19.2780 
  17   1.0000      -0.690916       -18.8008 
  18   1.0000      -0.620949       -16.8969 
  19   1.0000      -0.613953       -16.7065 
  20   1.0000      -0.561901       -15.2901 
  21   1.0000      -0.536446       -14.5974 
  22   1.0000      -0.505145       -13.7457 
  23   1.0000      -0.498287       -13.5591 
  24   1.0000      -0.482207       -13.1215 
  25   1.0000      -0.474378       -12.9085 
  26   1.0000      -0.444838       -12.1047 
  27   1.0000      -0.431184       -11.7331 
  28   1.0000      -0.416143       -11.3238 
  29   1.0000      -0.408960       -11.1284 
  30   1.0000      -0.402086       -10.9413 
  31   1.0000      -0.396026       -10.7764 
  32   1.0000      -0.383271       -10.4293 
  33   1.0000      -0.368273       -10.0212 
  34   1.0000      -0.357042        -9.7156 
  35   1.0000      -0.354751        -9.6533 
  36   1.0000      -0.334810        -9.1106 
  37   1.0000      -0.319297        -8.6885 
  38   1.0000      -0.255669        -6.9571 
  39   1.0000      -0.252323        -6.8660 
  40   0.0000      -0.095595        -2.6013 
  41   0.0000      -0.050360        -1.3704 
  42   0.0000      -0.006773        -0.1843 
  43   0.0000      -0.000175        -0.0048 
  44   0.0000       0.001561         0.0425 
  45   0.0000       0.005979         0.1627 
  46   0.0000       0.016145         0.4393 
  47   0.0000       0.019358         0.5268 
  48   0.0000       0.020125         0.5476 
  49   0.0000       0.029494         0.8026 
  50   0.0000       0.029617         0.8059 

                 SPIN DOWN ORBITALS
  NO   OCC          E(Eh)            E(eV) 
   0   1.0000     -19.129679      -520.5450 
   1   1.0000     -10.225031      -278.2372 
   2   1.0000     -10.177158      -276.9345 
   3   1.0000     -10.176010      -276.9033 
   4   1.0000     -10.167480      -276.6712 
   5   1.0000     -10.166019      -276.6314 
   6   1.0000     -10.165773      -276.6248 
   7   1.0000     -10.153723      -276.2968 
   8   1.0000     -10.152567      -276.2654 
   9   1.0000     -10.142786      -275.9992 
  10   1.0000     -10.124576      -275.5037 
  11   1.0000      -1.095402       -29.8074 
  12   1.0000      -0.872683       -23.7469 
  13   1.0000      -0.812315       -22.1042 
  14   1.0000      -0.774505       -21.0753 
  15   1.0000      -0.759847       -20.6765 
  16   1.0000      -0.702548       -19.1173 
  17   1.0000      -0.687892       -18.7185 
  18   1.0000      -0.618250       -16.8234 
  19   1.0000      -0.609921       -16.5968 
  20   1.0000      -0.559079       -15.2133 
  21   1.0000      -0.534177       -14.5357 
  22   1.0000      -0.502991       -13.6871 
  23   1.0000      -0.495667       -13.4878 
  24   1.0000      -0.474421       -12.9097 
  25   1.0000      -0.471591       -12.8326 
  26   1.0000      -0.443934       -12.0801 
  27   1.0000      -0.430470       -11.7137 
  28   1.0000      -0.407512       -11.0890 
  29   1.0000      -0.406879       -11.0717 
  30   1.0000      -0.394046       -10.7225 
  31   1.0000      -0.391750       -10.6601 
  32   1.0000      -0.382040       -10.3958 
  33   1.0000      -0.367071        -9.9885 
  34   1.0000      -0.353382        -9.6160 
  35   1.0000      -0.344563        -9.3760 
  36   1.0000      -0.332992        -9.0612 
  37   1.0000      -0.304204        -8.2778 
  38   1.0000      -0.244530        -6.6540 
  39   0.0000      -0.198324        -5.3967 
  40   0.0000      -0.072607        -1.9757 
  41   0.0000      -0.040354        -1.0981 
  42   0.0000      -0.006067        -0.1651 
  43   0.0000       0.002099         0.0571 
  44   0.0000       0.006228         0.1695 
  45   0.0000       0.015663         0.4262 
  46   0.0000       0.016571         0.4509 
  47   0.0000       0.019689         0.5358 
  48   0.0000       0.021420         0.5829 
  49   0.0000       0.030488         0.8296 
*Only the first 10 virtual orbitals were printed.

                    ********************************
                    * MULLIKEN POPULATION ANALYSIS *
                    ********************************

--------------------------------------------
MULLIKEN ATOMIC CHARGES AND SPIN POPULATIONS
--------------------------------------------
   0 C :   -0.526147   -0.076894
   1 C :    0.733128    0.060651
   2 C :    0.025048    0.358261
   3 C :   -0.656001   -0.171961
   4 C :   -0.322686    0.384488
   5 C :    1.223614    0.065011
   6 C :    0.070902    0.065904
   7 C :   -0.387624    0.245736
   8 C :   -0.299800   -0.039303
   9 H :    0.150497    0.019246
  10 H :    0.151467    0.019226
  11 H :    0.134787   -0.003006
  12 H :    0.092823   -0.008614
  13 H :    0.024716   -0.000849
  14 H :    0.249993    0.008104
  15 H :    0.505435   -0.008240
  16 H :    0.182508    0.000675
  17 O :   -0.621796    0.077518
  18 C :   -0.225810   -0.002911
  19 H :    0.037531    0.000766
  20 H :    0.209836    0.002037
  21 H :    0.209292    0.002057
  22 H :    0.038286    0.002097
Sum of atomic charges         :    1.0000000
Sum of atomic spin populations:    1.0000000

-----------------------------------------------------
MULLIKEN REDUCED ORBITAL CHARGES AND SPIN POPULATIONS
-----------------------------------------------------
CHARGE
  0 C s       :     4.027247  s :     4.027247
      pz      :     0.970340  p :     2.405893
      px      :     0.640924
      py      :     0.794630
      dz2     :     0.002390  d :     0.123186
      dxz     :     0.032154
      dyz     :     0.010369
      dx2y2   :     0.081789
      dxy     :    -0.003516
      f0      :    -0.000214  f :    -0.030179
      f+1     :    -0.002146
      f-1     :     0.000596
      f+2     :    -0.000217
      f-2     :     0.001408
      f+3     :    -0.026747
      f-3     :    -0.002858

  1 C s       :     3.239622  s :     3.239622
      pz      :     0.886368  p :     2.051658
      px      :     0.740174
      py      :     0.425116
      dz2     :    -0.010357  d :    -0.032197
      dxz     :     0.070397
      dyz     :    -0.005917
      dx2y2   :    -0.033042
      dxy     :    -0.053278
      f0      :     0.004291  f :     0.007788
      f+1     :     0.001913
      f-1     :    -0.000066
      f+2     :     0.001997
      f-2     :     0.015466
      f+3     :    -0.016228
      f-3     :     0.000414

  2 C s       :     3.581808  s :     3.581808
      pz      :     0.840328  p :     2.305619
      px      :     0.800937
      py      :     0.664353
      dz2     :    -0.003877  d :     0.099051
      dxz     :    -0.001158
      dyz     :    -0.007460
      dx2y2   :     0.035260
      dxy     :     0.076286
      f0      :     0.000471  f :    -0.011526
      f+1     :     0.000598
      f-1     :     0.000065
      f+2     :    -0.001000
      f-2     :     0.003244
      f+3     :    -0.015269
      f-3     :     0.000365

  3 C s       :     3.755384  s :     3.755384
      pz      :     0.943133  p :     2.751961
      px      :     1.041927
      py      :     0.766901
      dz2     :    -0.003634  d :     0.167913
      dxz     :     0.011447
      dyz     :     0.020226
      dx2y2   :     0.122755
      dxy     :     0.017119
      f0      :     0.001136  f :    -0.019258
      f+1     :     0.000327
      f-1     :     0.000366
      f+2     :     0.000012
      f-2     :     0.000334
      f+3     :    -0.021109
      f-3     :    -0.000325

  4 C s       :     3.696139  s :     3.696139
      pz      :     0.841781  p :     2.459743
      px      :     0.594470
      py      :     1.023492
      dz2     :    -0.011220  d :     0.177224
      dxz     :     0.015289
      dyz     :    -0.004911
      dx2y2   :     0.086869
      dxy     :     0.091197
      f0      :     0.001304  f :    -0.010420
      f+1     :     0.000554
      f-1     :     0.000394
      f+2     :     0.000322
      f-2     :     0.000991
      f+3     :    -0.015782
      f-3     :     0.001797

  5 C s       :     2.902278  s :     2.902278
      pz      :     0.912449  p :     1.988243
      px      :     0.285692
      py      :     0.790102
      dz2     :    -0.018816  d :    -0.020486
      dxz     :    -0.039151
      dyz     :    -0.020204
      dx2y2   :     0.026565
      dxy     :     0.031119
      f0      :     0.002326  f :    -0.093649
      f+1     :    -0.003367
      f-1     :    -0.001580
      f+2     :     0.000026
      f-2     :     0.001620
      f+3     :    -0.076127
      f-3     :    -0.016548

  6 C s       :     3.668123  s :     3.668123
      pz      :     0.941209  p :     2.331616
      px      :     0.591545
      py      :     0.798863
      dz2     :     0.001974  d :    -0.041958
      dxz     :    -0.023391
      dyz     :     0.015549
      dx2y2   :     0.076232
      dxy     :    -0.112322
      f0      :     0.000652  f :    -0.028682
      f+1     :    -0.001279
      f-1     :    -0.000305
      f+2     :    -0.000323
      f-2     :     0.000952
      f+3     :    -0.025687
      f-3     :    -0.002693

  7 C s       :     3.635934  s :     3.635934
      pz      :     0.770258  p :     2.531107
      px      :     0.793557
      py      :     0.967291
      dz2     :     0.003686  d :     0.230399
      dxz     :     0.030395
      dyz     :     0.010730
      dx2y2   :     0.168941
      dxy     :     0.016647
      f0      :    -0.000033  f :    -0.009815
      f+1     :     0.000218
      f-1     :     0.000304
      f+2     :    -0.000790
      f-2     :     0.001851
      f+3     :    -0.004110
      f-3     :    -0.007256

  8 C s       :     3.178797  s :     3.178797
      pz      :     1.021987  p :     3.048033
      px      :     1.000259
      py      :     1.025786
      dz2     :     0.008838  d :     0.063604
      dxz     :     0.023786
      dyz     :     0.001437
      dx2y2   :     0.025314
      dxy     :     0.004230
      f0      :     0.002182  f :     0.009366
      f+1     :     0.000446
      f-1     :     0.000036
      f+2     :    -0.000872
      f-2     :     0.002688
      f+3     :     0.002933
      f-3     :     0.001953

  9 H s       :     0.792695  s :     0.792695
      pz      :     0.016985  p :     0.048907
      px      :     0.022194
      py      :     0.009729
      dz2     :     0.002650  d :     0.007901
      dxz     :     0.000399
      dyz     :     0.000922
      dx2y2   :     0.002994
      dxy     :     0.000936

 10 H s       :     0.791333  s :     0.791333
      pz      :     0.017441  p :     0.049308
      px      :     0.022153
      py      :     0.009714
      dz2     :     0.002632  d :     0.007892
      dxz     :     0.000398
      dyz     :     0.000928
      dx2y2   :     0.002992
      dxy     :     0.000942

 11 H s       :     0.802189  s :     0.802189
      pz      :     0.007807  p :     0.054087
      px      :     0.018740
      py      :     0.027540
      dz2     :     0.000094  d :     0.008937
      dxz     :     0.001069
      dyz     :     0.003727
      dx2y2   :    -0.000710
      dxy     :     0.004759

 12 H s       :     0.852960  s :     0.852960
      pz      :     0.021087  p :     0.047735
      px      :     0.017131
      py      :     0.009517
      dz2     :     0.000104  d :     0.006482
      dxz     :     0.000806
      dyz     :     0.003883
      dx2y2   :     0.000313
      dxy     :     0.001377

 13 H s       :     0.945172  s :     0.945172
      pz      :     0.023522  p :     0.022291
      px      :    -0.012432
      py      :     0.011201
      dz2     :     0.000567  d :     0.007821
      dxz     :     0.000657
      dyz     :     0.004134
      dx2y2   :     0.001411
      dxy     :     0.001052

 14 H s       :     0.773467  s :     0.773467
      pz      :     0.018123  p :    -0.028403
      px      :    -0.026956
      py      :    -0.019570
      dz2     :     0.000042  d :     0.004942
      dxz     :     0.003558
      dyz     :     0.001532
      dx2y2   :    -0.001361
      dxy     :     0.001171

 15 H s       :     0.474403  s :     0.474403
      pz      :     0.021304  p :     0.011692
      px      :     0.008083
      py      :    -0.017695
      dz2     :    -0.000084  d :     0.008470
      dxz     :    -0.000042
      dyz     :     0.005303
      dx2y2   :     0.000937
      dxy     :     0.002356

 16 H s       :     0.811448  s :     0.811448
      pz      :     0.010939  p :    -0.003864
      px      :     0.003768
      py      :    -0.018571
      dz2     :     0.000027  d :     0.009908
      dxz     :     0.004674
      dyz     :    -0.000076
      dx2y2   :     0.001728
      dxy     :     0.003556

 17 O s       :     4.203710  s :     4.203710
      pz      :     1.655547  p :     4.327689
      px      :     1.121258
      py      :     1.550885
      dz2     :     0.001168  d :     0.084084
      dxz     :     0.024023
      dyz     :     0.010235
      dx2y2   :     0.022679
      dxy     :     0.025979
      f0      :     0.000783  f :     0.006313
      f+1     :     0.000138
      f-1     :     0.000062
      f+2     :     0.000326
      f-2     :     0.001430
      f+3     :     0.002243
      f-3     :     0.001329

 18 C s       :     3.295857  s :     3.295857
      pz      :     1.052657  p :     2.755549
      px      :     0.712337
      py      :     0.990555
      dz2     :     0.008350  d :     0.144732
      dxz     :     0.037419
      dyz     :     0.042353
      dx2y2   :     0.021761
      dxy     :     0.034849
      f0      :     0.004117  f :     0.029673
      f+1     :     0.002012
      f-1     :     0.002271
      f+2     :     0.008622
      f-2     :    -0.000994
      f+3     :     0.012826
      f-3     :     0.000820

 19 H s       :     0.929579  s :     0.929579
      pz      :     0.007776  p :     0.031339
      px      :     0.010090
      py      :     0.013473
      dz2     :    -0.001284  d :     0.001551
      dxz     :     0.000119
      dyz     :     0.003904
      dx2y2   :    -0.001733
      dxy     :     0.000545

 20 H s       :     0.757494  s :     0.757494
      pz      :     0.013989  p :     0.026334
      px      :     0.007331
      py      :     0.005014
      dz2     :     0.002704  d :     0.006336
      dxz     :     0.001517
      dyz     :     0.000610
      dx2y2   :     0.000897
      dxy     :     0.000608

 21 H s       :     0.758041  s :     0.758041
      pz      :     0.013950  p :     0.026347
      px      :     0.007338
      py      :     0.005059
      dz2     :     0.002698  d :     0.006320
      dxz     :     0.001514
      dyz     :     0.000609
      dx2y2   :     0.000893
      dxy     :     0.000605

 22 H s       :     0.945625  s :     0.945625
      pz      :     0.018875  p :     0.010337
      px      :    -0.016781
      py      :     0.008242
      dz2     :    -0.000362  d :     0.005752
      dxz     :     0.000328
      dyz     :     0.004856
      dx2y2   :     0.000804
      dxy     :     0.000126


SPIN
  0 C s       :    -0.012340  s :    -0.012340
      pz      :    -0.036192  p :    -0.062525
      px      :    -0.021850
      py      :    -0.004483
      dz2     :    -0.000162  d :    -0.000598
      dxz     :    -0.003553
      dyz     :     0.000801
      dx2y2   :     0.001566
      dxy     :     0.000750
      f0      :    -0.000050  f :    -0.001431
      f+1     :    -0.000124
      f-1     :     0.000179
      f+2     :    -0.000492
      f-2     :    -0.000523
      f+3     :     0.000128
      f-3     :    -0.000549

  1 C s       :     0.018159  s :     0.018159
      pz      :     0.050323  p :     0.042290
      px      :    -0.000792
      py      :    -0.007241
      dz2     :    -0.000001  d :     0.001381
      dxz     :    -0.005194
      dyz     :     0.006213
      dx2y2   :     0.002520
      dxy     :    -0.002157
      f0      :    -0.000254  f :    -0.001178
      f+1     :    -0.000006
      f-1     :    -0.000094
      f+2     :    -0.000152
      f-2     :     0.000996
      f+3     :    -0.001276
      f-3     :    -0.000393

  2 C s       :     0.008723  s :     0.008723
      pz      :     0.302535  p :     0.340404
      px      :     0.014761
      py      :     0.023108
      dz2     :    -0.001649  d :     0.011238
      dxz     :     0.002715
      dyz     :     0.002914
      dx2y2   :     0.003170
      dxy     :     0.004089
      f0      :    -0.000569  f :    -0.002104
      f+1     :    -0.000472
      f-1     :    -0.000306
      f+2     :    -0.000244
      f-2     :     0.000159
      f+3     :    -0.000154
      f-3     :    -0.000518

  3 C s       :    -0.031060  s :    -0.031060
      pz      :    -0.113760  p :    -0.156749
      px      :    -0.035722
      py      :    -0.007267
      dz2     :     0.000269  d :     0.016978
      dxz     :     0.018419
      dyz     :    -0.002252
      dx2y2   :    -0.002175
      dxy     :     0.002717
      f0      :     0.000155  f :    -0.001130
      f+1     :    -0.000078
      f-1     :     0.000267
      f+2     :    -0.000059
      f-2     :    -0.000065
      f+3     :    -0.000907
      f-3     :    -0.000442

  4 C s       :     0.008510  s :     0.008510
      pz      :     0.327989  p :     0.364446
      px      :     0.024969
      py      :     0.011488
      dz2     :    -0.001273  d :     0.013876
      dxz     :     0.000522
      dyz     :     0.001354
      dx2y2   :     0.004465
      dxy     :     0.008807
      f0      :    -0.000605  f :    -0.002344
      f+1     :    -0.000403
      f-1     :    -0.000381
      f+2     :    -0.000024
      f-2     :     0.000081
      f+3     :    -0.000684
      f-3     :    -0.000328

  5 C s       :     0.018845  s :     0.018845
      pz      :     0.052143  p :     0.055626
      px      :    -0.005280
      py      :     0.008763
      dz2     :    -0.000305  d :    -0.007184
      dxz     :    -0.000798
      dyz     :    -0.003483
      dx2y2   :    -0.002967
      dxy     :     0.000368
      f0      :    -0.000254  f :    -0.002276
      f+1     :    -0.000040
      f-1     :    -0.000082
      f+2     :    -0.000356
      f-2     :     0.000002
      f+3     :    -0.001174
      f-3     :    -0.000373

  6 C s       :    -0.000518  s :    -0.000518
      pz      :     0.049440  p :     0.057150
      px      :     0.002754
      py      :     0.004956
      dz2     :    -0.000875  d :     0.009978
      dxz     :     0.007171
      dyz     :     0.000433
      dx2y2   :     0.004699
      dxy     :    -0.001451
      f0      :    -0.000094  f :    -0.000706
      f+1     :    -0.000039
      f-1     :     0.000030
      f+2     :    -0.000267
      f-2     :     0.000274
      f+3     :    -0.000248
      f-3     :    -0.000362

  7 C s       :     0.002749  s :     0.002749
      pz      :     0.203497  p :     0.228433
      px      :     0.018985
      py      :     0.005951
      dz2     :    -0.000977  d :     0.015266
      dxz     :     0.006993
      dyz     :     0.001933
      dx2y2   :     0.006051
      dxy     :     0.001265
      f0      :    -0.000407  f :    -0.000711
      f+1     :    -0.000209
      f-1     :    -0.000287
      f+2     :     0.000205
      f-2     :     0.000433
      f+3     :    -0.000284
      f-3     :    -0.000162

  8 C s       :    -0.035314  s :    -0.035314
      pz      :    -0.001298  p :    -0.014650
      px      :    -0.008550
      py      :    -0.004802
      dz2     :     0.000236  d :     0.009601
      dxz     :     0.008247
      dyz     :    -0.000403
      dx2y2   :     0.001038
      dxy     :     0.000483
      f0      :     0.000553  f :     0.001061
      f+1     :     0.000109
      f-1     :     0.000071
      f+2     :    -0.000489
      f-2     :     0.000873
      f+3     :    -0.000024
      f-3     :    -0.000033

  9 H s       :     0.016843  s :     0.016843
      pz      :     0.000727  p :     0.002058
      px      :     0.001153
      py      :     0.000178
      dz2     :     0.000134  d :     0.000345
      dxz     :     0.000025
      dyz     :     0.000044
      dx2y2   :     0.000122
      dxy     :     0.000021

 10 H s       :     0.016804  s :     0.016804
      pz      :     0.000736  p :     0.002076
      px      :     0.001161
      py      :     0.000179
      dz2     :     0.000134  d :     0.000346
      dxz     :     0.000025
      dyz     :     0.000044
      dx2y2   :     0.000123
      dxy     :     0.000021

 11 H s       :    -0.003136  s :    -0.003136
      pz      :    -0.000275  p :    -0.000030
      px      :    -0.000063
      py      :     0.000309
      dz2     :     0.000002  d :     0.000159
      dxz     :     0.000241
      dyz     :    -0.000003
      dx2y2   :    -0.000053
      dxy     :    -0.000028

 12 H s       :    -0.012756  s :    -0.012756
      pz      :     0.004235  p :     0.003295
      px      :    -0.000304
      py      :    -0.000637
      dz2     :     0.000007  d :     0.000847
      dxz     :    -0.000046
[...]
      dxy     :     0.000025

 10 H s       :     0.009061  s :     0.009061
      pz      :     0.000058  p :     0.000693
      px      :     0.000428
      py      :     0.000206
      dz2     :     0.000008  d :     0.000341
      dxz     :    -0.000104
      dyz     :    -0.000036
      dx2y2   :     0.000448
      dxy     :     0.000025

 11 H s       :    -0.000038  s :    -0.000038
      pz      :    -0.000074  p :    -0.000417
      px      :    -0.000322
      py      :    -0.000021
      dz2     :    -0.000016  d :     0.001454
      dxz     :     0.001535
      dyz     :     0.000221
      dx2y2   :    -0.000062
      dxy     :    -0.000224

 12 H s       :    -0.003245  s :    -0.003245
      pz      :     0.010704  p :     0.011941
      px      :    -0.000034
      py      :     0.001272
      dz2     :    -0.000087  d :     0.012979
      dxz     :    -0.000037
      dyz     :     0.012524
      dx2y2   :     0.000486
      dxy     :     0.000093

 13 H s       :    -0.001037  s :    -0.001037
      pz      :     0.004118  p :     0.004342
      px      :    -0.000107
      py      :     0.000331
      dz2     :    -0.000013  d :     0.005089
      dxz     :     0.000929
      dyz     :     0.004176
      dx2y2   :     0.000096
      dxy     :    -0.000098

 14 H s       :    -0.004937  s :    -0.004937
      pz      :     0.019126  p :     0.021270
      px      :     0.001250
      py      :     0.000893
      dz2     :    -0.000068  d :     0.019625
      dxz     :     0.012450
      dyz     :     0.006182
      dx2y2   :     0.000378
      dxy     :     0.000682

 15 H s       :     0.001314  s :     0.001314
      pz      :    -0.006625  p :    -0.007807
      px      :    -0.000539
      py      :    -0.000643
      dz2     :    -0.000015  d :    -0.003147
      dxz     :     0.002218
      dyz     :    -0.004543
      dx2y2   :    -0.000328
      dxy     :    -0.000480

 16 H s       :    -0.004823  s :    -0.004823
      pz      :     0.021405  p :     0.023693
      px      :     0.001661
      py      :     0.000626
      dz2     :    -0.000035  d :     0.017922
      dxz     :     0.012734
      dyz     :     0.004081
      dx2y2   :     0.000545
      dxy     :     0.000596

 17 O s       :     0.001384  s :     0.001384
      pz      :     0.059226  p :     0.060633
      px      :     0.001303
      py      :     0.000104
      dz2     :     0.000040  d :     0.005422
      dxz     :     0.000235
      dyz     :     0.005550
      dx2y2   :    -0.000288
      dxy     :    -0.000114
      f0      :     0.000675  f :     0.001227
      f+1     :    -0.000036
      f-1     :    -0.000023
      f+2     :    -0.000069
      f-2     :     0.000809
      f+3     :    -0.000107
      f-3     :    -0.000023

 18 C s       :    -0.000215  s :    -0.000215
      pz      :    -0.000200  p :    -0.001648
      px      :    -0.001077
      py      :    -0.000371
      dz2     :    -0.000011  d :     0.005633
      dxz     :     0.000915
      dyz     :     0.004817
      dx2y2   :     0.000025
      dxy     :    -0.000113
      f0      :     0.000628  f :     0.003610
      f+1     :     0.000002
      f-1     :     0.000017
      f+2     :     0.000884
      f-2     :     0.001989
      f+3     :    -0.000038
      f-3     :     0.000129

 19 H s       :    -0.000082  s :    -0.000082
      pz      :    -0.000108  p :    -0.000277
      px      :    -0.000131
      py      :    -0.000039
      dz2     :    -0.000014  d :     0.000058
      dxz     :     0.000156
      dyz     :     0.000046
      dx2y2   :    -0.000097
      dxy     :    -0.000034

 20 H s       :     0.001296  s :     0.001296
      pz      :     0.000118  p :     0.000300
      px      :    -0.000072
      py      :     0.000254
      dz2     :     0.000051  d :     0.000364
      dxz     :    -0.000059
      dyz     :    -0.000023
      dx2y2   :     0.000016
      dxy     :     0.000379

 21 H s       :     0.001306  s :     0.001306
      pz      :     0.000115  p :     0.000295
      px      :    -0.000074
      py      :     0.000254
      dz2     :     0.000046  d :     0.000355
      dxz     :    -0.000060
      dyz     :    -0.000023
      dx2y2   :     0.000015
      dxy     :     0.000377

 22 H s       :     0.000142  s :     0.000142
      pz      :    -0.001799  p :    -0.002225
      px      :    -0.000195
      py      :    -0.000232
      dz2     :    -0.000012  d :    -0.001874
      dxz     :    -0.000243
      dyz     :    -0.001342
      dx2y2   :    -0.000124
      dxy     :    -0.000153



                      *****************************
                      * MAYER POPULATION ANALYSIS *
                      *****************************

  NA   - Mulliken gross atomic population
  ZA   - Total nuclear charge
  QA   - Mulliken gross atomic charge
  VA   - Mayer's total valence
  BVA  - Mayer's bonded valence
  FA   - Mayer's free valence

  ATOM       NA         ZA         QA         VA         BVA        FA
  0 C      6.4788     6.0000    -0.4788     2.4873     2.4854     0.0019
  1 C      5.2882     6.0000     0.7118     2.0338     2.0296     0.0042
  2 C      5.9644     6.0000     0.0356     3.1010     3.0100     0.0910
  3 C      6.6813     6.0000    -0.6813     2.8977     2.8838     0.0139
  4 C      6.3110     6.0000    -0.3110     3.1341     3.0322     0.1019
  5 C      4.7364     6.0000     1.2636     1.1967     1.1902     0.0065
  6 C      5.9708     6.0000     0.0292     2.3490     2.3430     0.0060
  7 C      6.4195     6.0000    -0.4195     3.5396     3.4917     0.0480
  8 C      6.2711     6.0000    -0.2711     3.9649     3.9626     0.0023
  9 H      0.8497     1.0000     0.1503     1.0210     1.0207     0.0003
 10 H      0.8489     1.0000     0.1511     1.0202     1.0199     0.0003
 11 H      0.8667     1.0000     0.1333     1.0434     1.0434     0.0000
 12 H      0.9142     1.0000     0.0858     1.1046     1.1044     0.0002
 13 H      0.9758     1.0000     0.0242     1.1076     1.1076     0.0000
 14 H      0.7251     1.0000     0.2749     0.7146     0.7145     0.0001
 15 H      0.5106     1.0000     0.4894     0.6366     0.6365     0.0000
 16 H      0.8362     1.0000     0.1638     0.9847     0.9846     0.0001
 17 O      8.6363     8.0000    -0.6363     1.4215     1.4158     0.0057
 18 C      6.2185     6.0000    -0.2185     3.8911     3.8910     0.0001
 19 H      0.9670     1.0000     0.0330     1.0570     1.0570     0.0000
 20 H      0.7845     1.0000     0.2155     0.9509     0.9508     0.0000
 21 H      0.7869     1.0000     0.2131     0.9529     0.9529     0.0000
 22 H      0.9581     1.0000     0.0419     1.0291     1.0291     0.0000

  Mayer bond orders larger than 0.100000
B(  0-C ,  1-C ) :   0.7008 B(  0-C ,  4-C ) :  -0.1143 B(  0-C ,  5-C ) :   0.4828 
B(  0-C ,  6-C ) :  -0.3650 B(  0-C ,  7-C ) :   0.1317 B(  0-C , 17-O ) :   0.4557 
B(  0-C , 22-H ) :   1.0901 B(  1-C ,  2-C ) :   1.0736 B(  1-C ,  4-C ) :  -0.1525 
B(  1-C , 18-C ) :   0.1759 B(  2-C ,  3-C ) :   1.2603 B(  2-C ,  4-C ) :   0.1012 
B(  2-C ,  5-C ) :  -0.1227 B(  2-C , 16-H ) :   0.9642 B(  2-C , 17-O ) :  -0.2231 
B(  2-C , 18-C ) :  -0.1326 B(  3-C ,  4-C ) :   1.3567 B(  3-C ,  5-C ) :  -0.1630 
B(  3-C , 15-H ) :   0.3843 B(  4-C ,  5-C ) :   0.7345 B(  4-C ,  7-C ) :   0.1039 
B(  4-C , 14-H ) :   0.7900 B(  4-C , 15-H ) :   0.1194 B(  5-C ,  6-C ) :   0.3151 
B(  5-C ,  7-C ) :  -0.1839 B(  5-C , 12-H ) :  -0.1679 B(  5-C , 17-O ) :   0.1758 
B(  6-C ,  7-C ) :   0.9549 B(  6-C , 12-H ) :   0.1787 B(  6-C , 13-H ) :   1.1147 
B(  7-C ,  8-C ) :   1.1282 B(  7-C , 11-H ) :   0.1242 B(  7-C , 12-H ) :   1.2008 
B(  7-C , 14-H ) :  -0.1040 B(  8-C ,  9-H ) :   0.9227 B(  8-C , 10-H ) :   0.9224 
B(  8-C , 11-H ) :   0.9323 B( 17-O , 18-C ) :   0.9050 B( 18-C , 19-H ) :   1.0666 
B( 18-C , 20-H ) :   0.9250 B( 18-C , 21-H ) :   0.9268 

-------
TIMINGS
-------

Total SCF time: 0 days 0 hours 3 min 25 sec 

Total time                  ....     205.649 sec
Sum of individual times     ....     201.336 sec  ( 97.9%)

SCF preparation             ....       2.634 sec  (  1.3%)
Fock matrix formation       ....     180.826 sec  ( 87.9%)
  Startup                   ....       2.693 sec  (  1.5% of F)
  Split-RI-J                ....       8.804 sec  (  4.9% of F)
  Chain of spheres X        ....     111.433 sec  ( 61.6% of F)
  XC integration            ....      49.867 sec  ( 27.6% of F)
    XC Preparation          ....       0.000 sec  (  0.0% of XC)
    Basis function eval.    ....       2.230 sec  (  4.5% of XC)
    Density eval.           ....      20.608 sec  ( 41.3% of XC)
    XC-Functional eval.     ....       0.302 sec  (  0.6% of XC)
    XC-Potential eval.      ....      24.439 sec  ( 49.0% of XC)
  CPCM terms                ....       3.787 sec  (  2.1% of F)
Diagonalization             ....       0.000 sec  (  0.0%)
Density matrix formation    ....       3.230 sec  (  1.6%)
Total Energy calculation    ....       2.294 sec  (  1.1%)
Population analysis         ....       1.491 sec  (  0.7%)
Orbital Transformation      ....       1.369 sec  (  0.7%)
Orbital Orthonormalization  ....       0.000 sec  (  0.0%)
DIIS solution               ....       1.771 sec  (  0.9%)
SOSCF solution              ....       7.721 sec  (  3.8%)
Finished LeanSCF after 206.5 sec

Maximum memory used throughout the entire LEANSCF-calculation: 136.0 MB


-------------------------------------------------------------------------------
                          DFT DISPERSION CORRECTION                            
                                                                               
                              DFTD3 V3.1  Rev 1                                
                          USING Becke-Johnson damping                          
-------------------------------------------------------------------------------
The TPSSH functional is recognized
Active option DFTDOPT                   ...         4   

molecular C6(AA) [au] = 5315.615952 


            DFT-D V3
 parameters
 s6 scaling factor         :     1.0000 
 a1 scaling factor         :     0.4529 
 s8 scaling factor         :     2.2382 
 a2 scaling factor         :     4.6550 
 ad hoc parameters k1-k3   :    16.0000     1.3333    -4.0000 

 Edisp/kcal,au: -16.761676090483  -0.026711428266 
 E6   /kcal   :  -8.069707113 
 E8   /kcal   :  -8.691968977 
 % E8         :  51.856204180 

-------------------------   ----------------
Dispersion correction           -0.026711428
-------------------------   ----------------


-------------------------   --------------------
FINAL SINGLE POINT ENERGY      -463.520375006962
-------------------------   --------------------

                                *** OPTIMIZATION RUN DONE ***



           ************************************************************
           *        Program running with 8 parallel MPI-processes     *
           *              working on a common directory               *
           ************************************************************

------------------------------------------------------------------------------
                              ORCA PROPERTY CALCULATIONS
------------------------------------------------------------------------------

GBWName                                 ... cs_rporg_018_ox_opt_08.gbw
Number of atoms                         ...     23
Number of basis functions               ...    848
Max core memory                         ...   3500 MB

Electric properties:
Dipole moment                           ... YES
Quadrupole moment                       ...  NO
Static polarizability (Dipole/Dipole)   ...  NO
Static polarizability (Dipole/Quad.)    ...  NO
Static polarizability (Quad./Quad.)     ...  NO
Static polarizability (Velocity)        ...  NO

Atomic electric properties:
Dipole moment                           ...  NO
Quadrupole moment                       ...  NO
Static polarizability                   ...  NO

Choice of electric origin               ... Center of mass
Position of electric origin             ...    -0.005618     0.033564     0.001693

General magnetic properties:
Magnetizability                         ...  NO

EPR properties:
g-Tensor (aka g-matrix)                 ...  NO
Zero-Field splitting spin-orbit         ...  NO
Zero-field splitting spin-spin          ...  NO
Hyperfine couplings                     ...  NO (   0 nuclei)
Quadrupole couplings                    ...  NO (   0 nuclei)
Contact density                         ...  NO (   0 nuclei)

NMR properties:
Chemical shifts                         ...  NO (   0 nuclei)
Spin-rotation constants                 ...  NO (   0 nuclei)
Spin-spin couplings                     ...  NO (   0 nuclei,    0 pairs)

Choice of magnetic origin               ... GIAO
Position of magnetic origin             ...     0.000000     0.000000     0.000000

Properties with geometric perturbations:
SCF Hessian                             ...  NO
IR spectrum                             ...  NO
VCD spectrum                            ...  NO
X-ray spectroscopy properties:
SCF XES/XAS/RIXS spectra                ...  NO


-------------
DIPOLE MOMENT
-------------

Method             : SCF
Type of density    : Electron Density
Multiplicity       :   2
Irrep              :   0
Energy             :  -463.4936635786957595 Eh
Relativity type    : 
Basis              : AO
                                X                 Y                 Z
Electronic contribution:     -4.439577869      -0.623481510       0.015899878
Nuclear contribution   :      4.753836208      -0.305061243      -0.019929203
                        -----------------------------------------
Total Dipole Moment    :      0.314258339      -0.928542753      -0.004029324
                        -----------------------------------------
Magnitude (a.u.)       :      0.980288827
Magnitude (Debye)      :      2.491696180



--------------------
Rotational spectrum 
--------------------
 
Rotational constants in cm-1:             0.105188             0.017128             0.014812 
Rotational constants in MHz :          3153.461959           513.491169           444.040189 

Dipole components along the rotational axes: 
x,y,z [a.u.] :     0.314840    -0.928341    -0.005016 
x,y,z [Debye]:     0.800259    -2.359655    -0.012749 

 

Dipole moment calculation done in   0.2 sec 

Maximum memory used throughout the entire PROP-calculation: 74.1 MB

--------------------------------
SUGGESTED CITATIONS FOR THIS RUN
--------------------------------

Below you find a list of papers that are relevant to this ORCA run
We neither can nor want to force you to cite these papers, but we appreciate if you do
You receive ORCA, which is the product of decades of hard work by many enthusiastic individuals, for free
The only thing we kindly ask in return is that you cite our papers,
We deeply appreciate it, if you show your appreciation for ORCA by not just citing the generic ORCA reference.

Please note that relegating all ORCA citations to the supporting information does *not* help us.
SI sections are not indexed - citations you put there will not count into any citation statistics
But we need these citations in order to attract the funding resources that allow us to do what we are doing

Therefore, if you are a happy ORCA user, please consider citing a few of the papers listed below in the main body of your paper

In addition to the list printed below, the program has created the file cs_rporg_018_ox_opt_08.bibtex that contains the list in bibtex format
You can import this file easily into all common literature databanks and citation aid programs


List of essential papers. We consider these as the minimum necessary citations

  1. Neese,F.
     Software update: the ORCA program system, version 5.0
     WIRES Comput. Molec. Sci., 2022 12(1)e1606
     doi.org/10.1002/wcms.1606

List of papers to cite with high priority. The work reported in these papers was absolutely
necessary for this run to complete.
Our perspective: the developers of density functionals and basis sets usually get cited in chemistry papers
Good! But without the algorithms to do something with them, the functionals or basis sets would not do anything.
Hence, in our opinion, the algorithm design and method developments papers are equally worthy of getting cited

  1. Neese,F.
     An improvement of the resolution of the identity approximation for the formation of the Coulomb matrix
     J. Comp. Chem., 2003 24(14)1740-1747
     doi.org/10.1002/jcc.10318
  2. Neese,F.; Wennmohs,F.; Hansen,A.; Becker,U.
     Efficient, approximate and parallel Hartree-Fock and hybrid DFT calculations. A 'chain-of-spheres' algorithm for the Hartree-Fock exchange
     Chem. Phys., 2009 356(1-3)98-109
     doi.org/10.1016/j.chemphys.2008.10.036
  3. Garcia-Rates,M.; Neese,F.
     Effect of the Solute Cavity on the Solvation Energy and its Derivatives within the Framework of the Gaussian Charge Scheme
     J. Comput. Chem., 2020 41 922-939
     doi.org/10.1002/jcc.26139
  4. Helmich-Paris,B.; de Souza,B.; Neese,F.; Izsák,R.
     An improved chain of spheres for exchange algorithm
     J. Chem. Phys., 2021 155 104109
     doi.org/doi: 10.1063/5.0058766.
  5. Neese,F.
     The SHARK Integral Generation and Digestion System
     J. Comp. Chem., 2022  1-16
     doi.org/10.1002/jcc.26942
  6. Grimme,S.; Antony,J.; Ehrlich,S.; Krieg,H.
     A consistent and accurate ab initio parametrization of density functional dispersion correction (DFT-D) for the 94 elements H-Pu
     J. Chem. Phys., 2010 132 154104-XXXX
     doi.org/10.1063/1.3382344
  7. Grimme,S.; Ehrlich,S.; Goerigk,L.
     Effect of the damping function in dispersion corrected density functional theory
     J. Comput. Chem., 2011 32(7)1456-1465
     doi.org/10.1002/jcc.21759

List of suggested additional citations. These are papers that are important in the 'surrounding' of 
of this run, or papers that preceded the highly important papers. If you like your results we are grateful for a citation.

  1. Izsak,R.; Neese,F.
     An overlap fitted chain of spheres exchange method
     J. Chem. Phys., 2011 135 144105
     doi.org/10.1063/1.3646921
  2. Izsak,R.; Hansen,A.; Neese,F.
     The resolution of identity and chain of spheres approximations for the LPNO-CCSD singles Fock term
     Molec. Phys., 2012 110 2413-2417
     doi.org/10.1080/00268976.2012.687466
  3. Neese,F.
     The ORCA program system
     WIRES Comput. Molec. Sci., 2012 2(1)73-78
     doi.org/10.1002/wcms.81
  4. Izsak,R.; Neese,F.; Klopper,W.
     Robust fitting techniques in the chain of spheres approximation to the Fock exchange: The role of the complementary space
     J. Chem. Phys., 2013 139 
     doi.org/10.1063/1.4819264
  5. Neese,F.
     Software update: the ORCA program system, version 4.0
     WIRES Comput. Molec. Sci., 2018 8(1)1-6
     doi.org/10.1002/wcms.1327
  6. Neese,F.; Wennmohs,F.; Becker,U.; Riplinger,C.
     The ORCA quantum chemistry program package
     J. Chem. Phys., 2020 152 Art. No. L224108
     doi.org/10.1063/5.0004608

List of optional additional citations

  1. Neese,F.
     Approximate second-order SCF convergence for spin unrestricted wavefunctions
     Chem. Phys. Lett., 2000 325(1-3)93-98
     doi.org/10.1016/s0009-2614(00)00662-x

Timings for individual modules:

Sum of individual times          ...     2916.069 sec (=  48.601 min)
Startup calculation              ...       72.972 sec (=   1.216 min)   2.5 %
SCF iterations                   ...     1926.565 sec (=  32.109 min)  66.1 %
Property calculations            ...        2.192 sec (=   0.037 min)   0.1 %
SCF Gradient evaluation          ...      913.906 sec (=  15.232 min)  31.3 %
Geometry relaxation              ...        0.434 sec (=   0.007 min)   0.0 %
                             ****ORCA TERMINATED NORMALLY****
TOTAL RUN TIME: 0 days 0 hours 48 minutes 58 seconds 568 msec
