
                                 *****************
                                 * O   R   C   A *
                                 *****************

                                            #,                                       
                                            ###                                      
                                            ####                                     
                                            #####                                    
                                            ######                                   
                                           ########,                                 
                                     ,,################,,,,,                         
                               ,,#################################,,                 
                          ,,##########################################,,             
                       ,#########################################, ''#####,          
                    ,#############################################,,   '####,        
                  ,##################################################,,,,####,       
                ,###########''''           ''''###############################       
              ,#####''   ,,,,##########,,,,          '''####'''          '####       
            ,##' ,,,,###########################,,,                        '##       
           ' ,,###''''                  '''############,,,                           
         ,,##''                                '''############,,,,        ,,,,,,###''
      ,#''                                            '''#######################'''  
     '                                                          ''''####''''         
             ,#######,   #######,   ,#######,      ##                                
            ,#'     '#,  ##    ##  ,#'     '#,    #''#        ,####,   ,####,        
            ##       ##  ##   ,#'  ##            #'  '#       #'       #'  '#        
            ##       ##  #######   ##           ,######,      #####,   #    #        
            '#,     ,#'  ##    ##  '#,     ,#' ,#      #,     #,   #   #,  ,#        
             '#######'   ##     ##  '#######'  #'      '#     '####' # '####'        



                #########################################################
                #                        -***-                          #
                #          Department of theory and spectroscopy        #
                #                                                       #
                #                      Frank Neese                      #
                #                                                       #
                #     Directorship, Architecture, Infrastructure        #
                #                    SHARK, DRIVERS                     #
                #        Core code/Algorithms in most modules           #
                #                                                       #
                #        Max Planck Institute fuer Kohlenforschung      #
                #                Kaiser Wilhelm Platz 1                 #
                #                 D-45470 Muelheim/Ruhr                 #
                #                      Germany                          #
                #                                                       #
                #                  All rights reserved                  #
                #                        -***-                          #
                #########################################################


                         Program Version 6.0.0  -   RELEASE  -


 With contributions from (in alphabetic order):
   Daniel Aravena         : Magnetic Suceptibility
   Michael Atanasov       : Ab Initio Ligand Field Theory (pilot matlab implementation)
   Alexander A. Auer      : GIAO ZORA, VPT2 properties, NMR spectrum
   Ute Becker             : All parallelization in ORCA, NUMFREQ, NUMCALC
   Giovanni Bistoni       : ED, misc. LED, open-shell LED, HFLD
   Martin Brehm           : Molecular dynamics
   Dmytro Bykov           : pre 5.0 version of the SCF Hessian
   Marcos Casanova-Páez   : Triplet and SCS-CIS(D). UHF-(DLPNO)-IP/EA/STEOM-CCSD. UHF-CVS-IP/STEOM-CCSD
   Vijay G. Chilkuri      : MRCI spin determinant printing, contributions to CSF-ICE
   Pauline Colinet        : FMM embedding
   Dipayan Datta          : RHF DLPNO-CCSD density
   Achintya Kumar Dutta   : EOM-CC, STEOM-CC
   Nicolas Foglia         : Exact transition moments, OPA infrastructure, MCD improvements
   Dmitry Ganyushin       : Spin-Orbit,Spin-Spin,Magnetic field MRCI
   Miquel Garcia          : C-PCM and meta-GGA Hessian, CCSD/C-PCM, Gaussian charge scheme
   Tiago L. C. Gouveia    : GS-ROHF, GS-ROCIS
   Yang Guo               : DLPNO-NEVPT2, F12-NEVPT2, CIM, IAO-localization
   Andreas Hansen         : Spin unrestricted coupled pair/coupled cluster methods
   Ingolf Harden          : AUTO-CI MPn and infrastructure 
   Benjamin Helmich-Paris : MC-RPA, TRAH-(SCF,CASSCF), AVAS, COSX integrals, SCF dyn. polar.
   Lee Huntington         : MR-EOM, pCC
   Robert Izsak           : Overlap fitted RIJCOSX, COSX-SCS-MP3, EOM
   Riya Kayal             : Wick's Theorem for AUTO-CI, AUTO-CI UHF-CCSDT
   Emily Kempfer          : AUTO-CI, RHF CISDT and CCSDT
   Christian Kollmar      : KDIIS, OOCD, Brueckner-CCSD(T), CCSD density, CASPT2, CASPT2-K, improved NEVPT2
   Axel Koslowski         : Symmetry handling
   Simone Kossmann        : Meta GGA functionals, TD-DFT gradient, OOMP2, (MP2 Hessian; deprecated post 5.0)
   Lucas Lang             : DCDCAS
   Marvin Lechner         : AUTO-CI (C++ implementation), FIC-MRCC
   Spencer Leger          : CASSCF response
   Dagmar Lenk            : GEPOL surface, SMD, ORCA-2-JSON
   Dimitrios Liakos       : Extrapolation schemes; Compound Job, initial MDCI parallelization
   Dimitrios Manganas     : Further ROCIS development; embedding schemes. LFT, Crystal Embedding
   Dimitrios Pantazis     : SARC Basis sets
   Anastasios Papadopoulos: AUTO-CI, single reference methods and gradients
   Taras Petrenko         : pre 6.0 DFT Hessian and TD-DFT gradient, (ASA, deprecated), ECA, 1-Electron XAS/XES, NRVS
   Peter Pinski           : DLPNO-MP2, DLPNO-MP2 Gradient
   Christoph Reimann      : Effective Core Potentials
   Marius Retegan         : Local ZFS, SOC
   Christoph Riplinger    : Optimizer, TS searches, QM/MM, DLPNO-CCSD(T), (RO)-DLPNO pert. Triples
   Michael Roemelt        : Original ROCIS implementation
   Masaaki Saitow         : Open-shell DLPNO-CCSD energy and density
   Barbara Sandhoefer     : DKH picture change effects
   Kantharuban Sivalingam : CASSCF convergence/infrastructure, NEVPT2 and variants, FIC-MRCI
   Bernardo de Souza      : ESD, SOC TD-DFT
   Georgi Stoychev        : AutoAux, RI-MP2 NMR, DLPNO-MP2 response, X2C
   Van Anh Tran           : RI-MP2 g-tensors
   Willem Van den Heuvel  : Paramagnetic NMR
   Zikuan Wang            : NOTCH, Electric field optimization 
   Frank Wennmohs         : Technical directorship and infrastructure
   Hang Xu                : AUTO-CI-Response properties 


 We gratefully acknowledge several colleagues who have allowed us to
 interface, adapt or use parts of their codes:
   Stefan Grimme, W. Hujo, H. Kruse, P. Pracht,  : VdW corrections, initial TS optimization,
                  C. Bannwarth, S. Ehlert,         DFT functionals, gCP, sTDA/sTD-DF
                  L. Wittmann, M. Mueller
   Ed Valeev, F. Pavosevic, A. Kumar             : LibInt (2-el integral package), F12 methods
   Garnet Chan, S. Sharma, J. Yang, R. Olivares  : DMRG
   Ulf Ekstrom                                   : XCFun DFT Library
   Mihaly Kallay                                 : mrcc  (arbitrary order and MRCC methods)
   Frank Weinhold                                : gennbo (NPA and NBO analysis)
   Simon Mueller                                 : openCOSMO-RS
   Christopher J. Cramer and Donald G. Truhlar   : smd solvation model
   Lars Goerigk                                  : TD-DFT with DH, B97 family of functionals
   V. Asgeirsson, H. Jonsson                     : NEB implementation
   FAccTs GmbH                                   : IRC, NEB, NEB-TS, DLPNO-Multilevel, CI-OPT
                                                   MM, QMMM, 2- and 3-layer-ONIOM, Crystal-QMMM,
                                                   LR-CPCM, SF, NACMEs, symmetry and pop. for TD-DFT,
                                                   nearIR, NL-DFT gradient (VV10), updates on ESD,
                                                   ML-optimized integration grids, MBIS, APM,
                                                   GOAT, DOCKER, SOLVATOR, interface openCOSMO-RS
   S Lehtola, MJT Oliveira, MAL Marques          : LibXC Library
   Liviu Ungur et al                             : ANISO software


 Your calculation uses the libint2 library for the computation of 2-el integrals
 For citations please refer to: http://libint.valeyev.net

 Your ORCA version has been built with support for libXC version: 6.2.2
 For citations please refer to: https://libxc.gitlab.io

 This ORCA versions uses:
   CBLAS   interface :  Fast vector & matrix operations
   LAPACKE interface :  Fast linear algebra routines
   SCALAPACK package :  Parallel linear algebra routines
   Shared memory     :  Shared parallel matrices
   BLAS/LAPACK       :  OpenBLAS 0.3.27  USE64BITINT DYNAMIC_ARCH NO_AFFINITY Sandybridge SINGLE_THREADED
        Core in use  :  Sandybridge
   Copyright (c) 2011-2014, The OpenBLAS Project


NOTE: MaxCore=3000 MB was set to SCF,MP2,MDCI,CIPSI,MRCI and CIS
      => If you want to overwrite this, your respective input block should be placed after the MaxCore statement
Your calculation utilizes the atom-pairwise dispersion correction
with the Becke-Johnson damping scheme (D3BJ)


Your calculation utilizes the SMD solvation module
Please cite in your paper:
A.V. Marenich, C.J. Cramer, D.G. Truhlar J. Phys. Chem. B, 113, (2009), 6378 

Warning: RI is on but no J-basis has been assigned. Assigning Def2/J (nothing to worry about!)
================================================================================

----- Orbital basis set information -----
Your calculation utilizes the basis: aug-cc-pVTZ 
    H, B-Ne : Obtained from the ccRepo (grant-hill.group.shef.ac.uk/ccrepo) Feb. 2017
              R. A. Kendall, T. H. Dunning, Jr., R. J. Harrison, J. Chem. Phys. 96, 6796 (1992)
         He : Obtained from the ccRepo (grant-hill.group.shef.ac.uk/ccrepo) Feb. 2017
              D. E. Woon, T. H. Dunning, Jr., J. Chem. Phys. 100, 2975 (1994)
  Li-Be, Na : Obtained from the ccRepo (grant-hill.group.shef.ac.uk/ccrepo) Feb. 2017
              B. P. Prascher, D. E. Woon, K. A. Peterson, T. H. Dunning, Jr., A. K. Wilson, Theor. Chem. Acc. 128, 69 (2011)
         Mg : Obtained from the Peterson Research Group Website (tyr0.chem.wsu.edu/~kipeters) Feb. 2017
              B. P. Prascher, D. E. Woon, K. A. Peterson, T. H. Dunning, Jr., A. K. Wilson, Theor. Chem. Acc. 128, 69 (2011)
      Al-Ar : Obtained from the ccRepo (grant-hill.group.shef.ac.uk/ccrepo) Feb. 2017
              D. E. Woon, T. H. Dunning, Jr., J. Chem. Phys. 98, 1358 (1993)
      Sc-Zn : Obtained from the ccRepo (grant-hill.group.shef.ac.uk/ccrepo) Feb. 2017
              N. B. Balabanov, K. A. Peterson, J. Chem. Phys. 123, 064107 (2005)
              N. B. Balabanov, K. A. Peterson, J. Chem. Phys. 125, 074110 (2006)
      Ga-Kr : Obtained from the ccRepo (grant-hill.group.shef.ac.uk/ccrepo) Feb. 2017
              A. K. Wilson, D. E. Woon, K. A. Peterson, T. H. Dunning, Jr., J. Chem. Phys. 110, 7667 (1999)
     Ag, Au : Obtained from the Peterson Research Group Website (tyr0.chem.wsu.edu/~kipeters) Feb. 2017
              K. A. Peterson, C. Puzzarini, Theor. Chem. Acc. 114, 283 (2005)

----- AuxJ basis set information -----
Your calculation utilizes the auxiliary basis: def2/J
   F. Weigend, Phys. Chem. Chem. Phys. 8, 1057 (2006).

================================================================================
                                        WARNINGS
                       Please study these warnings very carefully!
================================================================================

Using LibXC functional ID 497 : Re-regularized SCAN exchange by Furness et al
[ 1]  J. W. Furness, A. D. Kaplan, J. Ning, J. P. Perdew, and J. Sun.,  J. Phys. Chem. Lett. 11, 8208-8215 (2020)
[ 2]  J. W. Furness, A. D. Kaplan, J. Ning, J. P. Perdew, and J. Sun.,  J. Phys. Chem. Lett. 11, 9248-9248 (2020)
Using LibXC functional ID 498 : Re-regularized SCAN correlation by Furness et al
[ 1]  J. W. Furness, A. D. Kaplan, J. Ning, J. P. Perdew, and J. Sun.,  J. Phys. Chem. Lett. 11, 8208-8215 (2020)
[ 2]  J. W. Furness, A. D. Kaplan, J. Ning, J. P. Perdew, and J. Sun.,  J. Phys. Chem. Lett. 11, 9248-9248 (2020)
Using LibXC functional ID 497 : Re-regularized SCAN exchange by Furness et al
[ 1]  J. W. Furness, A. D. Kaplan, J. Ning, J. P. Perdew, and J. Sun.,  J. Phys. Chem. Lett. 11, 8208-8215 (2020)
[ 2]  J. W. Furness, A. D. Kaplan, J. Ning, J. P. Perdew, and J. Sun.,  J. Phys. Chem. Lett. 11, 9248-9248 (2020)
Using LibXC functional ID 498 : Re-regularized SCAN correlation by Furness et al
[ 1]  J. W. Furness, A. D. Kaplan, J. Ning, J. P. Perdew, and J. Sun.,  J. Phys. Chem. Lett. 11, 8208-8215 (2020)
[ 2]  J. W. Furness, A. D. Kaplan, J. Ning, J. P. Perdew, and J. Sun.,  J. Phys. Chem. Lett. 11, 9248-9248 (2020)

================================================================================
                                       INPUT FILE
================================================================================
NAME = cs_rporg_073_red_solv_04.inp
|  1> !r2SCANh aug-cc-pVTZ d3 TightSCF SlowConv RIJCOSX defgrid2
|  2>  
|  3> %pal
|  4> nprocs 4
|  5> end
|  6>  
|  7> %scf
|  8> MaxIter 1500
|  9> end
| 10>  
| 11> %maxcore 3000
| 12>  
| 13> !CPCM
| 14> %cpcm smd true
| 15> SMDsolvent "MeCN"
| 16> surfacetype gepol_ses
| 17> rsolv 2.19
| 18> end 
| 19>  
| 20> * xyz 0 1
| 21> C          -2.35855566249028     -1.18298734946581      0.44746508492782
| 22> C          -3.63998601494038     -0.64494677752617      0.40531310745406
| 23> C          -3.85303233632332      0.64184728390947     -0.08922899701963
| 24> C          -2.76160264019232      1.37149847988341     -0.55944574759612
| 25> C          -1.47660109339583      0.83661893600173     -0.53774129143291
| 26> C          -1.25440681594945     -0.45059005524099     -0.02098393310126
| 27> N          -0.00000421351286     -1.04691099052655     -0.00000634656969
| 28> C           1.25440223898594     -0.45059921009457      0.02097107702327
| 29> C           1.47660100518815      0.83661344736755      0.53772022597142
| 30> C           2.76160709047823      1.37148092391060      0.55943972704073
| 31> C           3.85303807972459      0.64181530245744      0.08924769050056
| 32> C           3.63998848210222     -0.64498151368667     -0.40528711196994
| 33> C           2.35855298180034     -1.18301040091692     -0.44745622777963
| 34> H           2.19908895406864     -2.18668027905193     -0.85522438065874
| 35> H           4.48199840421952     -1.23797876876707     -0.77528111411611
| 36> H           4.85916686280388      1.06886680223861      0.11285453118115
| 37> H           2.91087680856629      2.37556477081901      0.96852154939093
| 38> H           0.64246040679070      1.40934002015136      0.94801182020360
| 39> H          -0.00000725820461     -2.05910419744794     -0.00000990999799
| 40> H          -0.64246082169541      1.40933334107559     -0.94805093043179
| 41> H          -2.91086965745103      2.37558015369041     -0.96853357662371
| 42> H          -4.85915726714274      1.06890811498503     -0.11281791601209
| 43> H          -4.48199557743319     -1.23793238163885      0.77532568830103
| 44> H          -2.19909265599709     -2.18665445212673      0.85523908131503
| 45> *
| 46> 
| 47>                          ****END OF INPUT****
================================================================================

                       ****************************
                       * Single Point Calculation *
                       ****************************

---------------------------------
CARTESIAN COORDINATES (ANGSTROEM)
---------------------------------
  C     -2.358556   -1.182987    0.447465
  C     -3.639986   -0.644947    0.405313
  C     -3.853032    0.641847   -0.089229
  C     -2.761603    1.371498   -0.559446
  C     -1.476601    0.836619   -0.537741
  C     -1.254407   -0.450590   -0.020984
  N     -0.000004   -1.046911   -0.000006
  C      1.254402   -0.450599    0.020971
  C      1.476601    0.836613    0.537720
  C      2.761607    1.371481    0.559440
  C      3.853038    0.641815    0.089248
  C      3.639988   -0.644982   -0.405287
  C      2.358553   -1.183010   -0.447456
  H      2.199089   -2.186680   -0.855224
  H      4.481998   -1.237979   -0.775281
  H      4.859167    1.068867    0.112855
  H      2.910877    2.375565    0.968522
  H      0.642460    1.409340    0.948012
  H     -0.000007   -2.059104   -0.000010
  H     -0.642461    1.409333   -0.948051
  H     -2.910870    2.375580   -0.968534
  H     -4.859157    1.068908   -0.112818
  H     -4.481996   -1.237932    0.775326
  H     -2.199093   -2.186654    0.855239

----------------------------
CARTESIAN COORDINATES (A.U.)
----------------------------
  NO LB      ZA    FRAG     MASS         X           Y           Z
   0 C     6.0000    0    12.011   -4.457024   -2.235522    0.845586
   1 C     6.0000    0    12.011   -6.878577   -1.218773    0.765931
   2 C     6.0000    0    12.011   -7.281176    1.212916   -0.168618
   3 C     6.0000    0    12.011   -5.218673    2.591757   -1.057199
   4 C     6.0000    0    12.011   -2.790372    1.580981   -1.016184
   5 C     6.0000    0    12.011   -2.370485   -0.851492   -0.039654
   6 N     7.0000    0    14.007   -0.000008   -1.978375   -0.000012
   7 C     6.0000    0    12.011    2.370477   -0.851509    0.039630
   8 C     6.0000    0    12.011    2.790372    1.580970    1.016144
   9 C     6.0000    0    12.011    5.218681    2.591723    1.057188
  10 C     6.0000    0    12.011    7.281187    1.212855    0.168654
  11 C     6.0000    0    12.011    6.878581   -1.218838   -0.765882
  12 C     6.0000    0    12.011    4.457019   -2.235566   -0.845570
  13 H     1.0000    0     1.008    4.155676   -4.132227   -1.616140
  14 H     1.0000    0     1.008    8.469750   -2.339441   -1.465069
  15 H     1.0000    0     1.008    9.182495    2.019866    0.213264
  16 H     1.0000    0     1.008    5.500760    4.489167    1.830240
  17 H     1.0000    0     1.008    1.214074    2.663267    1.791483
  18 H     1.0000    0     1.008   -0.000014   -3.891143   -0.000019
  19 H     1.0000    0     1.008   -1.214075    2.663254   -1.791557
  20 H     1.0000    0     1.008   -5.500746    4.489196   -1.830263
  21 H     1.0000    0     1.008   -9.182476    2.019944   -0.213195
  22 H     1.0000    0     1.008   -8.469744   -2.339353    1.465153
  23 H     1.0000    0     1.008   -4.155683   -4.132178    1.616168

--------------------------------
INTERNAL COORDINATES (ANGSTROEM)
--------------------------------
 C      0   0   0     0.000000000000     0.00000000     0.00000000
 C      1   0   0     1.390441726373     0.00000000     0.00000000
 C      2   1   0     1.394919203645   120.56171043     0.00000000
 C      3   2   1     1.394529828260   118.86029285     0.96642220
 C      4   3   2     1.392047479488   121.07540355   359.84760720
 C      5   4   3     1.404747468927   120.25407646   359.13972924
 N      6   5   4     1.389087688375   122.80371709   178.56987546
 C      7   6   5     1.389087232629   129.15543612    25.75027691
 C      8   7   6     1.404748518480   122.80358395    25.74979504
 C      9   8   7     1.392047266950   120.25408374   178.56918592
 C     10   9   8     1.394530055124   121.07544341   359.13969084
 C     11  10   9     1.394919656446   118.86031331   359.84769431
 C     12  11  10     1.390442468877   120.56167826     0.96643337
 H     13  12  11     1.095014551008   120.01147695   178.82766220
 H     12  11  10     1.094313490322   120.14800446   180.28198152
 H     11  10   9     1.093263643653   120.57104110   180.17771090
 H     10   9   8     1.094446781592   118.96265767   180.11428601
 H      9   8   7     1.091854137403   119.87082907     0.18590260
 H      7   6   5     1.012193206932   115.42231082   205.75050912
 H      5   4   3     1.091854286298   119.85542825   177.52327560
 H      4   3   2     1.094446664747   119.95473886   178.86353059
 H      3   2   1     1.093263356632   120.56774685   180.63667809
 H      2   1   3     1.094313181863   119.28685768   180.67855923
 H      1   2   3     1.095014034400   120.01156945   178.82764142

---------------------------
INTERNAL COORDINATES (A.U.)
---------------------------
 C      0   0   0     0.000000000000     0.00000000     0.00000000
 C      1   0   0     2.627554068021     0.00000000     0.00000000
 C      2   1   0     2.636015273837   120.56171043     0.00000000
 C      3   2   1     2.635279460995   118.86029285     0.96642220
 C      4   3   2     2.630588501648   121.07540355   359.84760720
 C      5   4   3     2.654588003590   120.25407646   359.13972924
 N      6   5   4     2.624995307031   122.80371709   178.56987546
 C      7   6   5     2.624994445796   129.15543612    25.75027691
 C      8   7   6     2.654589986958   122.80358395    25.74979504
 C      9   8   7     2.630588100009   120.25408374   178.56918592
 C     10   9   8     2.635279889706   121.07544341   359.13969084
 C     11  10   9     2.636016129507   118.86031331   359.84769431
 C     12  11  10     2.627555471151   120.56167826     0.96643337
 H     13  12  11     2.069277614063   120.01147695   178.82766220
 H     12  11  10     2.067952801364   120.14800446   180.28198152
 H     11  10   9     2.065968878677   120.57104110   180.17771090
 H     10   9   8     2.068204685361   118.96265767   180.11428601
 H      9   8   7     2.063305297881   119.87082907     0.18590260
 H      7   6   5     1.912767955717   115.42231082   205.75050912
 H      5   4   3     2.063305579251   119.85542825   177.52327560
 H      4   3   2     2.068204464555   119.95473886   178.86353059
 H      3   2   1     2.065968336286   120.56774685   180.63667809
 H      2   1   3     2.067952218461   119.28685768   180.67855923
 H      1   2   3     2.069276637816   120.01156945   178.82764142

---------------------
BASIS SET INFORMATION
---------------------
There are 3 groups of distinct atoms

 Group   1 Type C   : 19s6p3d2f contracted to 5s4p3d2f pattern {88111/3111/111/11}
 Group   2 Type N   : 19s6p3d2f contracted to 5s4p3d2f pattern {88111/3111/111/11}
 Group   3 Type H   : 6s3p2d contracted to 4s3p2d pattern {3111/111/11}

Atom   0C    basis set group =>   1
Atom   1C    basis set group =>   1
Atom   2C    basis set group =>   1
Atom   3C    basis set group =>   1
Atom   4C    basis set group =>   1
Atom   5C    basis set group =>   1
Atom   6N    basis set group =>   2
Atom   7C    basis set group =>   1
Atom   8C    basis set group =>   1
Atom   9C    basis set group =>   1
Atom  10C    basis set group =>   1
Atom  11C    basis set group =>   1
Atom  12C    basis set group =>   1
Atom  13H    basis set group =>   3
Atom  14H    basis set group =>   3
Atom  15H    basis set group =>   3
Atom  16H    basis set group =>   3
Atom  17H    basis set group =>   3
Atom  18H    basis set group =>   3
Atom  19H    basis set group =>   3
Atom  20H    basis set group =>   3
Atom  21H    basis set group =>   3
Atom  22H    basis set group =>   3
Atom  23H    basis set group =>   3
---------------------------------
AUXILIARY/J BASIS SET INFORMATION
---------------------------------
There are 3 groups of distinct atoms

 Group   1 Type C   : 12s5p4d2f1g contracted to 6s4p3d1f1g pattern {711111/2111/211/2/1}
 Group   2 Type N   : 12s5p4d2f1g contracted to 6s4p3d1f1g pattern {711111/2111/211/2/1}
 Group   3 Type H   : 5s2p1d contracted to 3s1p1d pattern {311/2/1}

Atom   0C    basis set group =>   1
Atom   1C    basis set group =>   1
Atom   2C    basis set group =>   1
Atom   3C    basis set group =>   1
Atom   4C    basis set group =>   1
Atom   5C    basis set group =>   1
Atom   6N    basis set group =>   2
Atom   7C    basis set group =>   1
Atom   8C    basis set group =>   1
Atom   9C    basis set group =>   1
Atom  10C    basis set group =>   1
Atom  11C    basis set group =>   1
Atom  12C    basis set group =>   1
Atom  13H    basis set group =>   3
Atom  14H    basis set group =>   3
Atom  15H    basis set group =>   3
Atom  16H    basis set group =>   3
Atom  17H    basis set group =>   3
Atom  18H    basis set group =>   3
Atom  19H    basis set group =>   3
Atom  20H    basis set group =>   3
Atom  21H    basis set group =>   3
Atom  22H    basis set group =>   3
Atom  23H    basis set group =>   3


           ************************************************************
           *        Program running with 4 parallel MPI-processes     *
           *              working on a common directory               *
           ************************************************************
------------------------------------------------------------------------------
                             ORCA STARTUP CALCULATIONS
                           -- RI-GTO INTEGRALS CHOSEN --
------------------------------------------------------------------------------
------------------------------------------------------------------------------
                   ___                                                        
                  /   \      - P O W E R E D   B Y -                         
                 /     \                                                     
                 |  |  |   _    _      __       _____    __    __             
                 |  |  |  | |  | |    /  \     |  _  \  |  |  /  |          
                  \  \/   | |  | |   /    \    | | | |  |  | /  /          
                 / \  \   | |__| |  /  /\  \   | |_| |  |  |/  /          
                |  |  |   |  __  | /  /__\  \  |    /   |      \           
                |  |  |   | |  | | |   __   |  |    \   |  |\   \          
                \     /   | |  | | |  |  |  |  | |\  \  |  | \   \       
                 \___/    |_|  |_| |__|  |__|  |_| \__\ |__|  \__/        
                                                                              
                      - O R C A' S   B I G   F R I E N D -                    
                                      &                                       
                       - I N T E G R A L  F E E D E R -                       
                                                                              
 v1 FN, 2020, v2 2021, v3 2022-2024                                           
------------------------------------------------------------------------------


----------------------
SHARK INTEGRAL PACKAGE
----------------------

Number of atoms                             ...     24
Number of basis functions                   ...    929
Number of shells                            ...    359
Maximum angular momentum                    ...      3
Integral batch strategy                     ... SHARK/LIBINT Hybrid
RI-J (if used) integral strategy            ... SPLIT-RIJ (Revised 2003 algorithm where possible)
Printlevel                                  ...      1
Contraction scheme used                     ... PARTIAL GENERAL contraction
Prescreening option                         ... SCHWARTZ
   Thresh                                   ... 2.500e-11
   Tcut                                     ... 2.500e-12
   Tpresel                                  ... 2.500e-12 
Coulomb Range Separation                    ... NOT USED
Exchange Range Separation                   ... NOT USED
Multipole approximations                    ... NOT USED
Finite Nucleus Model                        ... NOT USED
CABS basis                                  ... NOT available
Auxiliary Coulomb fitting basis             ... AVAILABLE
   # of basis functions in Aux-J            ...    758
   # of shells in Aux-J                     ...    250
   Maximum angular momentum in Aux-J        ...      4
Auxiliary J/K fitting basis                 ... NOT available
Auxiliary Correlation fitting basis         ... NOT available
Auxiliary 'external' fitting basis          ... NOT available

Checking pre-screening integrals            ... done (  0.0 sec) Dimension = 359
Save PGC pre-screening integrals            ... done (  0.0 sec) Dimension = 359
Calculate PGC overlap integrals             ... done (  0.2 sec) Dimension = 281
Calculating pre-screening integrals (ORCA)  ... done (  0.3 sec) Dimension = 281
Check shell pair data                       ... done (  0.0 sec)
Shell pair information
Shell pair cut-off parameter TPreSel        ...   2.5e-12
Total number of shell pairs                 ...     64620
Shell pairs after pre-screening             ...     50146
Total number of primitive shell pairs       ...     83100
Primitive shell pairs kept                  ...     59423
          la=0 lb=0:  11278 shell pairs
          la=1 lb=0:  12865 shell pairs
          la=1 lb=1:   3285 shell pairs
          la=2 lb=0:   8883 shell pairs
          la=2 lb=1:   4567 shell pairs
          la=2 lb=2:   1644 shell pairs
          la=3 lb=0:   3910 shell pairs
          la=3 lb=1:   1984 shell pairs
          la=3 lb=2:   1408 shell pairs
          la=3 lb=3:    322 shell pairs

Calculating one electron integrals          ... done (  0.1 sec)
Calculating RI/J V-Matrix + Cholesky decomp.... done (  0.1 sec)
Calculating Nuclear repulsion               ... done (  0.0 sec) ENN=    693.892561935810 Eh

Diagonalization of the overlap matrix:
Smallest eigenvalue                        ... 4.629e-07
Time for diagonalization                   ...    0.255 sec
Threshold for overlap eigenvalues          ... 1.000e-07
Number of eigenvalues below threshold      ... 0

IMPORTANT:
Smallest eigenvalue of S below the DiffSThresh (1.000e-06) while
Thresh>1e-12 and/or TCut>1e-13! In order to avoid SCF convergence issues,
Thresh will be set to at least 1e-12 and TCut to at least 1e-13.
This can be turned off by adding %SCF DiffSThresh -1 END to the input.

Time for construction of square roots      ...    0.166 sec
Total time needed                          ...    0.443 sec

-------------------
DFT GRID GENERATION
-------------------

General Integration Accuracy     IntAcc      ... 4.388
Radial Grid Type                 RadialGrid  ... OptM3 with GC (2021)
Angular Grid (max. ang.)         AngularGrid ... 4 (Lebedev-302)
Angular grid pruning method      GridPruning ... 4 (adaptive)
Weight generation scheme         WeightScheme... mBecke (2022)
Basis function cutoff            BFCut       ... 1.0000e-11
Integration weight cutoff        WCut        ... 1.0000e-14
Partially contracted basis set               ... off
Rotationally invariant grid construction     ... off
Angular grids for H and He will be reduced by one unit
Diffuse basis detected: some atoms will have their outermost
                        angular grid increased by 1.

Total number of grid points                  ...   118559
Total number of batches                      ...     1862
Average number of points per batch           ...       63
Average number of grid points per atom       ...     4940

---------------------
SHARK GRID GENERATION
---------------------

General Integration Accuracy     IntAcc      ... 4.388
Radial Grid Type                 RadialGrid  ... OptM3 with GC (2021)
Angular Grid (max. ang.)         AngularGrid ... 4 (Lebedev-302)
Angular grid pruning method      GridPruning ... 4 (adaptive)
Weight generation scheme         WeightScheme... mBecke (2022)
Basis function cutoff            BFCut       ... 1.0000e-11
Integration weight cutoff        WCut        ... 1.0000e-14
Partially contracted basis set               ... off
Rotationally invariant grid construction     ... off
Angular grids for H and He will be reduced by one unit
Diffuse basis detected: some atoms will have their outermost
                        angular grid increased by 1.
Steep s-basis detected: some atoms will have their radial
                        grid points doubled.

Total number of grid points                  ...   200163
Total number of batches                      ...     3140
Average number of points per batch           ...       63
Average number of grid points per atom       ...     8340

--------------------
COSX GRID GENERATION
--------------------

GRIDX 1
-------
General Integration Accuracy     IntAcc      ... 3.816
Radial Grid Type                 RadialGrid  ... OptM3 with GC (2021)
Angular Grid (max. ang.)         AngularGrid ... 1 (Lebedev-50)
Angular grid pruning method      GridPruning ... 4 (adaptive)
Weight generation scheme         WeightScheme... mBecke (2022)
Basis function cutoff            BFCut       ... 1.0000e-11
Integration weight cutoff        WCut        ... 1.0000e-14
Partially contracted basis set               ... on
Rotationally invariant grid construction     ... off
Angular grids for H and He will be reduced by one unit
Diffuse basis detected: some atoms will have their outermost
                        angular grid increased by 1.

Total number of grid points                  ...    14904
Total number of batches                      ...      127
Average number of points per batch           ...      117
Average number of grid points per atom       ...      621
UseSFitting                                  ... on

GRIDX 2
-------
General Integration Accuracy     IntAcc      ... 4.020
Radial Grid Type                 RadialGrid  ... OptM3 with GC (2021)
Angular Grid (max. ang.)         AngularGrid ... 2 (Lebedev-110)
Angular grid pruning method      GridPruning ... 4 (adaptive)
Weight generation scheme         WeightScheme... mBecke (2022)
Basis function cutoff            BFCut       ... 1.0000e-11
Integration weight cutoff        WCut        ... 1.0000e-14
Partially contracted basis set               ... on
Rotationally invariant grid construction     ... off
Angular grids for H and He will be reduced by one unit
Diffuse basis detected: some atoms will have their outermost
                        angular grid increased by 1.

Total number of grid points                  ...    35976
Total number of batches                      ...      290
Average number of points per batch           ...      124
Average number of grid points per atom       ...     1499
UseSFitting                                  ... on

GRIDX 3
-------
General Integration Accuracy     IntAcc      ... 4.338
Radial Grid Type                 RadialGrid  ... OptM3 with GC (2021)
Angular Grid (max. ang.)         AngularGrid ... 3 (Lebedev-194)
Angular grid pruning method      GridPruning ... 4 (adaptive)
Weight generation scheme         WeightScheme... mBecke (2022)
Basis function cutoff            BFCut       ... 1.0000e-11
Integration weight cutoff        WCut        ... 1.0000e-14
Partially contracted basis set               ... on
Rotationally invariant grid construction     ... off
Angular grids for H and He will be reduced by one unit
Diffuse basis detected: some atoms will have their outermost
                        angular grid increased by 1.

Total number of grid points                  ...    79729
Total number of batches                      ...      634
Average number of points per batch           ...      125
Average number of grid points per atom       ...     3322
UseSFitting                                  ... on
Initializing property integral containers    ... done (  0.0 sec)

SHARK setup successfully completed in  14.3 seconds

Maximum memory used throughout the entire STARTUP-calculation: 112.1 MB


           ************************************************************
           *        Program running with 4 parallel MPI-processes     *
           *              working on a common directory               *
           ************************************************************
-------------------------------------------------------------------------------
                                 ORCA GUESS
                   Start orbitals & Density for SCF / CASSCF
-------------------------------------------------------------------------------

------------
SCF SETTINGS
------------
Hamiltonian:
 Density Functional     Method          .... DFT(GTOs)
  Functional kind                       .... Exchange
  Functional name                       .... Re-regularized SCAN exchange by Furness et al
  Functional family                     .... MGGA
  Functional refs                              
    [ 0] J. W. Furness, A. D. Kaplan, J. Ning, J. P. Perdew, and J. Sun.,  J. Phys. Chem. Lett. 11, 8208-8215 (2020), doi: 10.1021/acs.jpclett.0c02405
    [ 1] J. W. Furness, A. D. Kaplan, J. Ning, J. P. Perdew, and J. Sun.,  J. Phys. Chem. Lett. 11, 9248-9248 (2020), doi: 10.1021/acs.jpclett.0c03077
  Functional external parameters        .... 6
    Parameter  0 _c1        =  6.670000e-01 : c1 parameter        
    Parameter  1 _c2        =  8.000000e-01 : c2 parameter        
    Parameter  2 _d         =  1.240000e+00 : d parameter         
    Parameter  3 _k1        =  6.500000e-02 : k1 parameter        
    Parameter  4 _eta       =  1.000000e-03 : eta parameter       
    Parameter  5 _dp2       =  3.610000e-01 : dp2 parameter       
  Functional kind                       .... Correlation
  Functional name                       .... Re-regularized SCAN correlation by Furness et al
  Functional family                     .... MGGA
  Functional refs                              
    [ 0] J. W. Furness, A. D. Kaplan, J. Ning, J. P. Perdew, and J. Sun.,  J. Phys. Chem. Lett. 11, 8208-8215 (2020), doi: 10.1021/acs.jpclett.0c02405
    [ 1] J. W. Furness, A. D. Kaplan, J. Ning, J. P. Perdew, and J. Sun.,  J. Phys. Chem. Lett. 11, 9248-9248 (2020), doi: 10.1021/acs.jpclett.0c03077
  Functional external parameters        .... 1
    Parameter  0 _eta       =  1.000000e-03 : Regularization parameter
 Gradients option       PostSCFGGA      .... off
 Hybrid DFT is turned on
   Fraction HF Exchange ScalHFX         ....  0.100000
   Scaling of DF-GGA-X  ScalDFX         ....  0.900000
   Scaling of DF-GGA-C  ScalDFC         ....  1.000000
   Scaling of DF-LDA-C  ScalLDAC        ....  1.000000
   Perturbative correction              ....  0.000000
   NL short-range parameter             .... 11.900000
 RI-approximation to the Coulomb term is turned on
   Number of AuxJ basis functions       .... 758
   RIJ-COSX (HFX calculated with COS-X)).... on


General Settings:
 Integral files         IntName         .... cs_rporg_073_red_solv_04
 Hartree-Fock type      HFTyp           .... RHF
 Total Charge           Charge          ....    0
 Multiplicity           Mult            ....    1
 Number of Electrons    NEL             ....   90
 Basis Dimension        Dim             ....  851
 Nuclear Repulsion      ENuc            ....    693.8925619358 Eh

Convergence Acceleration:
 AO-DIIS                CNVDIIS         .... on
   Start iteration      DIISMaxIt       ....     0
   Startup error        DIISStart       ....  0.200000
   # of expansion vecs  DIISMaxEq       ....     5
   Bias factor          DIISBfac        ....   1.050
   Max. coefficient     DIISMaxC        ....  10.000
 MO-DIIS                CNVKDIIS        .... off
 Trust-Rad. Augm. Hess. CNVTRAH         .... auto
   Auto Start mean grad. ratio tolernc. ....  1.125000
   Auto Start start iteration           ....    50
   Auto Start num. interpolation iter.  ....    10
   Max. Number of Micro iterations      ....    24
   Max. Number of Macro iterations      .... Maxiter - #DIIS iter
   Number of Davidson start vectors     ....     2
   Converg. threshold    (grad. norm)   ....   1.000e-05
   Grad. Scal. Fac. for Micro threshold ....   0.100
   Minimum threshold for Micro iter.    ....   1.000e-02
   NR start threshold (gradient norm)   ....   1.000e-04
   Initial trust radius                 ....   0.400
   Minimum AH scaling param. (alpha)    ....   1.000
   Maximum AH scaling param. (alpha)    .... 1000.000
   Quad. conv. algorithm                .... NR
   White noise on init. David. guess    .... on
   Maximum white noise                  ....   0.010
   Pseudo random numbers                .... off
   Inactive MOs                         .... canonical
   Orbital update algorithm             .... Taylor
   Preconditioner                       .... Diag
   Full preconditioner red. dimension   ....   250
 SOSCF                  CNVSOSCF        .... on
   Start iteration      SOSCFMaxIt      ....   150
   Startup grad/error   SOSCFStart      ....  0.001000
   Hessian update       SOSCFHessUp     .... L-BFGS
 Level Shifting         CNVShift        .... on
   Level shift para.    LevelShift      ....    0.2500
   Turn off err/grad.   ShiftErr        ....    0.0000
 Zerner damping         CNVZerner       .... off
 Static damping         CNVDamp         .... on
   Fraction old density DampFac         ....    0.8500
   Max. Damping (<1)    DampMax         ....    0.9800
   Min. Damping (>=0)   DampMin         ....    0.0000
   Turn off err/grad.   DampErr         ....    0.0300

SCF Procedure:
 Maximum # iterations   MaxIter         ....  1500
 SCF integral mode      SCFMode         .... Direct
   Integral package                     .... SHARK and LIBINT hybrid scheme
 Reset frequency        DirectResetFreq ....    20
 Integral Threshold     Thresh          ....  1.000e-12 Eh
 Primitive CutOff       TCut            ....  1.000e-13 Eh

Convergence Tolerance:
 Convergence Check Mode ConvCheckMode   .... Total+1el-Energy
 Convergence forced     ConvForced      .... 0
 Energy Change          TolE            ....  1.000e-08 Eh
 1-El. energy change                    ....  1.000e-05 Eh
 Orbital Gradient       TolG            ....  1.000e-05
 Orbital Rotation angle TolX            ....  1.000e-05
 DIIS Error             TolErr          ....  5.000e-07

------------------------------
INITIAL GUESS: MODEL POTENTIAL
------------------------------
Loading Hartree-Fock densities                     ... done
Calculating cut-offs                               ... done
Initializing the effective Hamiltonian             ... done
Setting up the integral package (SHARK)            ... done
Starting the Coulomb interaction                   ... done (   1.5 sec)
Making the grid                                    ... done (   0.7 sec)
Mapping shells                                     ... done
Starting the XC term evaluation                    ... done (   1.5 sec)
  promolecular density results
     # of electrons  =     89.986474560
     EX              =    -71.155160740
     EC              =     -2.984647312
     EX+EC           =    -74.139808052
Transforming the Hamiltonian                       ... done (   0.2 sec)
Diagonalizing the Hamiltonian                      ... done (   0.3 sec)
Back transforming the eigenvectors                 ... done (   0.1 sec)
Now organizing SCF variables                       ... done
                      ------------------
                      INITIAL GUESS DONE (   4.4 sec)
                      ------------------
             **** ENERGY FILE WAS UPDATED (cs_rporg_073_red_solv_04.en.tmp) ****
Finished Guess after   5.2 sec
Maximum memory used throughout the entire GUESS-calculation: 89.5 MB


           ************************************************************
           *        Program running with 4 parallel MPI-processes     *
           *              working on a common directory               *
           ************************************************************

-------------------------------------------------------------------------------------------
                                      ORCA LEAN-SCF
                              memory conserving SCF solver
-------------------------------------------------------------------------------------------

--------------------
CPCM SOLVATION MODEL
--------------------
CPCM parameters:
  Epsilon                                         ...      35.6880
  Refrac                                          ...       1.3442
  Rsolv                                           ...       2.1900
  Surface type                                    ...    GEPOL SES
  Discretization scheme                           ... Constant num. charges
  Epsilon function type                           ...         CPCM
Solvent:                                          ... ACETONITRILE
SMD-CDS solvent descriptors:
  Soln                                            ...       1.3442
  Soln25                                          ...       1.3416
  Sola                                            ...       0.0700
  Solb                                            ...       0.3200
  Solg                                            ...      41.2500
  Solc                                            ...       0.0000
  Solh                                            ...       0.0000
Radii:
  Scheme                                          ... Element-dependent radii
  Radius for C  used is    3.4960 Bohr (=   1.8500 Ang.)
  Radius for N  used is    3.5716 Bohr (=   1.8900 Ang.)
  Radius for H  used is    2.2677 Bohr (=   1.2000 Ang.)
Calculating surface                               ...        done! (  0.0s)
Cavity surface points                             ...          800
Cavity Volume                                     ...    1287.6786
Cavity Surface-area                               ...     724.5665
Calculating surface distance matrix               ...        done! (  0.0s)
Performing Cholesky decomposition & store         ...        done! (  0.0s)
Overall time for CPCM initialization              ...                 0.1s

----------------------------------------D-I-I-S--------------------------------------------
Iteration    Energy (Eh)           Delta-E    RMSDP     MaxDP     DIISErr   Damp  Time(sec)
-------------------------------------------------------------------------------------------
               ***  Starting incremental Fock matrix formation  ***
    1    -518.2360206138411058     0.00e+00  9.47e-04  6.49e-02  1.74e-01  0.850  52.6
    2    -518.3056230963517237    -6.96e-02  9.10e-04  5.39e-02  1.35e-01  0.850  29.6
                               ***Turning on AO-DIIS***
    3    -518.3547184263358076    -4.91e-02  7.54e-04  4.02e-02  9.85e-02  0.850  28.7
    4    -518.3876943724955026    -3.30e-02  6.25e-04  2.90e-02  7.93e-02  0.850  28.3
    5    -518.4119236038499139    -2.42e-02  5.27e-04  2.33e-02  6.58e-02  0.850  28.0
    6    -518.4309718192929495    -1.90e-02  4.45e-04  2.18e-02  5.53e-02  0.850  27.7
    7    -518.4465010290838336    -1.55e-02  3.76e-04  1.90e-02  4.67e-02  0.850  27.5
    8    -518.4593014410705791    -1.28e-02  3.18e-04  1.62e-02  3.95e-02  0.850  27.3
    9    -518.4698453304871464    -1.05e-02  2.69e-04  1.37e-02  3.32e-02  0.850  27.1
   10    -518.4785492145784929    -8.70e-03  2.28e-04  1.18e-02  2.79e-02  0.850  26.9
   11    -518.4857658983711417    -7.22e-03  1.29e-03  6.72e-02  2.34e-02  0.000  26.7
   12    -518.5238485518285643    -3.81e-02  3.23e-05  2.31e-03  1.55e-03  0.000  28.6
                              *** Initializing SOSCF ***
---------------------------------------S-O-S-C-F--------------------------------------
Iteration    Energy (Eh)           Delta-E    RMSDP     MaxDP     MaxGrad    Time(sec)
--------------------------------------------------------------------------------------
   13    -518.5238696272016341    -2.11e-05  1.84e-05  1.73e-03  2.49e-04    25.6
               *** Restarting incremental Fock matrix formation ***
   14    -518.5238783144819763    -8.69e-06  6.38e-04  3.23e-02  5.48e-05    49.8
   15    -518.5238784385079498    -1.24e-07  1.49e-04  7.10e-03  1.01e-04    41.5
   16    -518.5238786493029011    -2.11e-07  1.74e-04  7.96e-03  2.63e-05    39.4
   17    -518.5238786494500118    -1.47e-10  2.61e-06  2.21e-04  9.00e-06    39.2
                 **** Energy Check signals convergence ****

               *****************************************************
               *                     SUCCESS                       *
               *           SCF CONVERGED AFTER  17 CYCLES          *
               *****************************************************

Recomputing exchange energy using gridx3       ... done (   69.376 sec)
Old exchange energy                            :     -7.274509141 Eh
New exchange energy                            :     -7.274552261 Eh
Exchange energy change after final integration :     -0.000043120 Eh
Total energy after final integration           :   -518.523921769 Eh

SMD CDS free energy correction energy :                -3.05687     Kcal/mol
Total Energy after SMD CDS correction =              -518.528793203 Eh
             **** ENERGY FILE WAS UPDATED (cs_rporg_073_red_solv_04.en.tmp) ****

----------------
TOTAL SCF ENERGY
----------------

Total Energy       :       -518.52879320312309 Eh          -14109.88580 eV

Components:
Nuclear Repulsion  :        693.89256193580979 Eh           18881.77654 eV
Electronic Energy  :      -1212.40018405371393 Eh          -32991.08624 eV
One Electron Energy:      -2075.66300459219792 Eh          -56481.66183 eV
Two Electron Energy:        863.26282053848411 Eh           23490.57558 eV
CPCM Dielectric    :         -0.01625653154590 Eh              -0.44236 eV
SMD CDS (Gcds)     :         -0.00487143387333 Eh              -0.13256 eV

Virial components:
Potential Energy   :      -1033.94182731893352 Eh          -28134.98748 eV
Kinetic Energy     :        515.41303411581032 Eh           14025.10168 eV
Virial Ratio       :          2.00604516937112

DFT components:
N(Alpha)           :       45.000026557151 electrons
N(Beta)            :       45.000026557151 electrons
N(Total)           :       90.000053114301 electrons
E(X)               :      -65.693739281998 Eh       
E(C)               :       -2.906889029974 Eh       
E(XC)              :      -68.600628311972 Eh       

CPCM Solvation Model Properties:
Surface-charge          :         -0.05392263084311
Corrected charge        :         -0.00000000000000
Outlying charge corr.   :          0.00018892375842 Eh               0.00514 eV
Free-energy (cav+disp)  :         -0.00487143387333 Eh              -0.13256 eV

---------------
SCF CONVERGENCE
---------------

  Last Energy change         ...    1.4711e-10  Tolerance :   1.0000e-08
  Last MAX-Density change    ...    2.2124e-04  Tolerance :   1.0000e-07
  Last RMS-Density change    ...    2.6075e-06  Tolerance :   5.0000e-09
  Last DIIS Error            ...    2.4905e-04  Tolerance :   5.0000e-07
  Last Orbital Gradient      ...    9.0001e-06  Tolerance :   1.0000e-05
  Last Orbital Rotation      ...    1.6159e-05  Tolerance :   1.0000e-05


----------------
ORBITAL ENERGIES
----------------

  NO   OCC          E(Eh)            E(eV) 
   0   2.0000     -14.331084      -389.9686 
   1   2.0000     -10.207334      -277.7557 
   2   2.0000     -10.207330      -277.7556 
   3   2.0000     -10.161246      -276.5016 
   4   2.0000     -10.161244      -276.5015 
   5   2.0000     -10.161225      -276.5010 
   6   2.0000     -10.161224      -276.5010 
   7   2.0000     -10.157502      -276.3997 
   8   2.0000     -10.157496      -276.3995 
   9   2.0000     -10.157140      -276.3898 
  10   2.0000     -10.157135      -276.3897 
  11   2.0000     -10.152765      -276.2708 
  12   2.0000     -10.152762      -276.2707 
  13   2.0000      -0.958658       -26.0864 
  14   2.0000      -0.859584       -23.3905 
  15   2.0000      -0.839129       -22.8339 
  16   2.0000      -0.758875       -20.6500 
  17   2.0000      -0.748573       -20.3697 
  18   2.0000      -0.742915       -20.2157 
  19   2.0000      -0.713007       -19.4019 
  20   2.0000      -0.619924       -16.8690 
  21   2.0000      -0.617954       -16.8154 
  22   2.0000      -0.593606       -16.1528 
  23   2.0000      -0.575154       -15.6507 
  24   2.0000      -0.525791       -14.3075 
  25   2.0000      -0.516724       -14.0608 
  26   2.0000      -0.486488       -13.2380 
  27   2.0000      -0.466509       -12.6944 
  28   2.0000      -0.443540       -12.0693 
  29   2.0000      -0.435574       -11.8526 
  30   2.0000      -0.420793       -11.4504 
  31   2.0000      -0.416316       -11.3285 
  32   2.0000      -0.407433       -11.0868 
  33   2.0000      -0.406390       -11.0584 
  34   2.0000      -0.389517       -10.5993 
  35   2.0000      -0.367216        -9.9924 
  36   2.0000      -0.353362        -9.6155 
  37   2.0000      -0.341305        -9.2874 
  38   2.0000      -0.331692        -9.0258 
  39   2.0000      -0.327552        -8.9131 
  40   2.0000      -0.314800        -8.5661 
  41   2.0000      -0.255615        -6.9556 
  42   2.0000      -0.254790        -6.9332 
  43   2.0000      -0.252780        -6.8785 
  44   2.0000      -0.191430        -5.2091 
  45   0.0000      -0.032309        -0.8792 
  46   0.0000      -0.027585        -0.7506 
  47   0.0000      -0.023778        -0.6470 
  48   0.0000       0.005447         0.1482 
  49   0.0000       0.008006         0.2179 
  50   0.0000       0.018955         0.5158 
  51   0.0000       0.023036         0.6269 
  52   0.0000       0.029724         0.8088 
  53   0.0000       0.033264         0.9051 
  54   0.0000       0.038416         1.0454 
  55   0.0000       0.046309         1.2601 
*Only the first 10 virtual orbitals were printed.

                    ********************************
                    * MULLIKEN POPULATION ANALYSIS *
                    ********************************

-----------------------
MULLIKEN ATOMIC CHARGES
-----------------------
   0 C :   -0.985236
   1 C :   -0.438826
   2 C :   -0.370382
   3 C :   -0.935082
   4 C :   -0.430618
   5 C :    1.163363
   6 N :   -0.589740
   7 C :    1.159177
   8 C :   -0.430335
   9 C :   -0.937499
  10 C :   -0.373489
  11 C :   -0.440114
  12 C :   -0.979144
  13 H :    0.434917
  14 H :    0.387950
  15 H :    0.527258
  16 H :    0.309197
  17 H :    0.661319
  18 H :   -0.049207
  19 H :    0.660790
  20 H :    0.307704
  21 H :    0.527902
  22 H :    0.383585
  23 H :    0.436509
Sum of atomic charges:    0.0000000

--------------------------------
MULLIKEN REDUCED ORBITAL CHARGES
--------------------------------
  0 C s       :     4.087097  s :     4.087097
      pz      :     1.061711  p :     2.873666
      px      :     0.817611
      py      :     0.994343
      dz2     :     0.019044  d :     0.049309
      dxz     :    -0.009553
      dyz     :     0.027043
      dx2y2   :     0.031797
      dxy     :    -0.019021
      f0      :    -0.000442  f :    -0.024836
      f+1     :    -0.001477
      f-1     :    -0.000014
      f+2     :    -0.000196
      f-2     :    -0.002979
      f+3     :    -0.017985
      f-3     :    -0.001743

  1 C s       :     3.538739  s :     3.538739
      pz      :     0.928020  p :     2.882369
      px      :     1.022318
      py      :     0.932031
      dz2     :    -0.006076  d :     0.028590
      dxz     :    -0.021685
      dyz     :    -0.001008
      dx2y2   :     0.003505
      dxy     :     0.053854
      f0      :     0.000119  f :    -0.010873
      f+1     :     0.000063
      f-1     :     0.000329
      f+2     :    -0.002726
      f-2     :     0.000909
      f+3     :    -0.007890
      f-3     :    -0.001676

  2 C s       :     3.523551  s :     3.523551
      pz      :     0.975928  p :     2.820937
      px      :     0.942901
      py      :     0.902107
      dz2     :     0.010706  d :     0.039666
      dxz     :    -0.005254
      dyz     :     0.014222
      dx2y2   :    -0.014968
      dxy     :     0.034959
      f0      :     0.000301  f :    -0.013772
      f+1     :     0.001261
      f-1     :     0.000171
      f+2     :    -0.001754
      f-2     :    -0.002623
      f+3     :    -0.009785
      f-3     :    -0.001342

  3 C s       :     3.816328  s :     3.816328
      pz      :     0.973367  p :     3.064317
      px      :     1.130198
      py      :     0.960752
      dz2     :    -0.003772  d :     0.066411
      dxz     :     0.026444
      dyz     :     0.033863
      dx2y2   :     0.009552
      dxy     :     0.000323
      f0      :     0.000303  f :    -0.011974
      f+1     :     0.000071
      f-1     :    -0.000140
      f+2     :     0.001575
      f-2     :    -0.002613
      f+3     :    -0.009647
      f-3     :    -0.001523

  4 C s       :     3.826011  s :     3.826011
      pz      :     1.000391  p :     2.622789
      px      :     0.714662
      py      :     0.907735
      dz2     :    -0.013525  d :     0.009925
      dxz     :    -0.018802
      dyz     :    -0.023140
      dx2y2   :     0.037757
      dxy     :     0.027634
      f0      :     0.000152  f :    -0.028107
      f+1     :    -0.000293
      f-1     :    -0.001967
      f+2     :    -0.002055
      f-2     :    -0.002815
      f+3     :    -0.021722
      f-3     :     0.000594

  5 C s       :     3.318662  s :     3.318662
      pz      :     0.854629  p :     1.712554
      px      :     0.227750
      py      :     0.630175
      dz2     :    -0.046211  d :    -0.164699
      dxz     :     0.055537
      dyz     :    -0.004153
      dx2y2   :    -0.114865
      dxy     :    -0.055006
      f0      :     0.003741  f :    -0.029880
      f+1     :     0.000120
      f-1     :    -0.000999
      f+2     :    -0.001765
      f-2     :    -0.001709
      f+3     :    -0.017225
      f-3     :    -0.012041

  6 N s       :     4.043056  s :     4.043056
      pz      :     1.573884  p :     3.446611
      px      :     0.817571
      py      :     1.055156
      dz2     :    -0.018722  d :     0.095411
      dxz     :     0.065566
      dyz     :     0.016214
      dx2y2   :     0.006386
      dxy     :     0.025967
      f0      :     0.000544  f :     0.004663
      f+1     :    -0.001040
      f-1     :    -0.000337
      f+2     :     0.001377
      f-2     :     0.002242
      f+3     :     0.005549
      f-3     :    -0.003671

  7 C s       :     3.318777  s :     3.318777
      pz      :     0.854622  p :     1.714855
      px      :     0.228797
      py      :     0.631436
      dz2     :    -0.045808  d :    -0.163025
      dxz     :     0.055130
      dyz     :    -0.003746
      dx2y2   :    -0.112558
      dxy     :    -0.056044
      f0      :     0.003747  f :    -0.029784
      f+1     :     0.000118
      f-1     :    -0.000995
      f+2     :    -0.001750
      f-2     :    -0.001688
      f+3     :    -0.017179
      f-3     :    -0.012036

  8 C s       :     3.826995  s :     3.826995
      pz      :     0.999762  p :     2.623013
      px      :     0.715316
      py      :     0.907934
      dz2     :    -0.013550  d :     0.008335
      dxz     :    -0.019028
      dyz     :    -0.023220
      dx2y2   :     0.037286
      dxy     :     0.026847
      f0      :     0.000147  f :    -0.028009
      f+1     :    -0.000300
      f-1     :    -0.001961
      f+2     :    -0.002054
      f-2     :    -0.002778
      f+3     :    -0.021661
      f-3     :     0.000597

  9 C s       :     3.815657  s :     3.815657
      pz      :     0.973787  p :     3.067176
      px      :     1.132379
      py      :     0.961011
      dz2     :    -0.003723  d :     0.066612
      dxz     :     0.026319
      dyz     :     0.034105
      dx2y2   :     0.009447
      dxy     :     0.000463
      f0      :     0.000306  f :    -0.011946
      f+1     :     0.000074
      f-1     :    -0.000131
      f+2     :     0.001572
      f-2     :    -0.002625
      f+3     :    -0.009645
      f-3     :    -0.001497

 10 C s       :     3.523310  s :     3.523310
      pz      :     0.976380  p :     2.824936
      px      :     0.943866
      py      :     0.904691
      dz2     :     0.010502  d :     0.038939
      dxz     :    -0.005485
      dyz     :     0.014240
      dx2y2   :    -0.014547
      dxy     :     0.034229
      f0      :     0.000298  f :    -0.013696
      f+1     :     0.001265
      f-1     :     0.000170
      f+2     :    -0.001743
      f-2     :    -0.002616
      f+3     :    -0.009745
      f-3     :    -0.001325

 11 C s       :     3.544648  s :     3.544648
      pz      :     0.927441  p :     2.876570
      px      :     1.019559
      py      :     0.929569
      dz2     :    -0.005917  d :     0.029817
      dxz     :    -0.021291
      dyz     :    -0.001130
      dx2y2   :     0.003804
      dxy     :     0.054350
      f0      :     0.000116  f :    -0.010920
      f+1     :     0.000064
      f-1     :     0.000330
      f+2     :    -0.002724
      f-2     :     0.000910
      f+3     :    -0.007935
      f-3     :    -0.001681

 12 C s       :     4.087134  s :     4.087134
      pz      :     1.061970  p :     2.865754
      px      :     0.809970
      py      :     0.993814
      dz2     :     0.018978  d :     0.051114
      dxz     :    -0.009232
      dyz     :     0.027515
      dx2y2   :     0.033064
      dxy     :    -0.019211
      f0      :    -0.000450  f :    -0.024857
      f+1     :    -0.001481
      f-1     :    -0.000017
      f+2     :    -0.000198
      f-2     :    -0.002977
      f+3     :    -0.018003
      f-3     :    -0.001731

 13 H s       :     0.577180  s :     0.577180
      pz      :     0.003769  p :    -0.018913
      px      :    -0.008231
      py      :    -0.014451
      dz2     :     0.002137  d :     0.006816
      dxz     :     0.000036
      dyz     :     0.002756
      dx2y2   :     0.001297
      dxy     :     0.000589

 14 H s       :     0.602667  s :     0.602667
      pz      :     0.013707  p :     0.001096
      px      :    -0.011435
      py      :    -0.001176
      dz2     :     0.001529  d :     0.008287
      dxz     :     0.002291
      dyz     :     0.000561
      dx2y2   :     0.002538
      dxy     :     0.001368

 15 H s       :     0.479016  s :     0.479016
      pz      :     0.013519  p :    -0.014591
      px      :    -0.029869
      py      :     0.001760
      dz2     :    -0.000403  d :     0.008317
      dxz     :     0.004386
      dyz     :     0.000725
      dx2y2   :     0.001830
      dxy     :     0.001780

 16 H s       :     0.649499  s :     0.649499
      pz      :     0.014564  p :     0.032253
      px      :     0.012424
      py      :     0.005265
      dz2     :     0.001897  d :     0.009051
      dxz     :     0.000103
      dyz     :     0.002591
      dx2y2   :     0.001566
      dxy     :     0.002893

 17 H s       :     0.408530  s :     0.408530
      pz      :     0.008143  p :    -0.077481
      px      :    -0.045171
      py      :    -0.040453
      dz2     :     0.001779  d :     0.007632
      dxz     :     0.002896
      dyz     :     0.000286
      dx2y2   :     0.000850
      dxy     :     0.001821

 18 H s       :     0.894612  s :     0.894612
      pz      :     0.051040  p :     0.113432
      px      :     0.038077
      py      :     0.024315
      dz2     :     0.004842  d :     0.041163
      dxz     :    -0.000257
      dyz     :     0.014153
      dx2y2   :     0.002888
      dxy     :     0.019537

 19 H s       :     0.409036  s :     0.409036
      pz      :     0.008109  p :    -0.077484
      px      :    -0.045252
      py      :    -0.040341
      dz2     :     0.001783  d :     0.007658
      dxz     :     0.002894
      dyz     :     0.000290
      dx2y2   :     0.000862
      dxy     :     0.001829

 20 H s       :     0.650630  s :     0.650630
      pz      :     0.014733  p :     0.032601
      px      :     0.012589
      py      :     0.005278
      dz2     :     0.001900  d :     0.009065
      dxz     :     0.000101
      dyz     :     0.002600
      dx2y2   :     0.001568
      dxy     :     0.002896

 21 H s       :     0.478636  s :     0.478636
      pz      :     0.013494  p :    -0.014821
      px      :    -0.029942
      py      :     0.001627
      dz2     :    -0.000405  d :     0.008283
      dxz     :     0.004379
      dyz     :     0.000723
      dx2y2   :     0.001824
      dxy     :     0.001761

 22 H s       :     0.606569  s :     0.606569
      pz      :     0.013686  p :     0.001559
      px      :    -0.011051
      py      :    -0.001077
      dz2     :     0.001525  d :     0.008287
      dxz     :     0.002291
      dyz     :     0.000564
      dx2y2   :     0.002539
      dxy     :     0.001368

 23 H s       :     0.575934  s :     0.575934
      pz      :     0.003721  p :    -0.019269
      px      :    -0.008014
      py      :    -0.014975
      dz2     :     0.002139  d :     0.006826
      dxz     :     0.000036
      dyz     :     0.002755
      dx2y2   :     0.001295
      dxy     :     0.000602



                     *******************************
                     * LOEWDIN POPULATION ANALYSIS *
                     *******************************

----------------------
LOEWDIN ATOMIC CHARGES
----------------------
   0 C :    0.213920
   1 C :    0.172803
   2 C :    0.171551
   3 C :    0.177981
   4 C :    0.203684
   5 C :   -0.223705
   6 N :    0.562769
   7 C :   -0.223721
   8 C :    0.203687
   9 C :    0.177975
  10 C :    0.171555
  11 C :    0.172804
  12 C :    0.213911
  13 H :   -0.163356
  14 H :   -0.171348
  15 H :   -0.179897
  16 H :   -0.170552
  17 H :   -0.182096
  18 H :   -0.260691
  19 H :   -0.182112
  20 H :   -0.170552
  21 H :   -0.179902
  22 H :   -0.171351
  23 H :   -0.163357

-------------------------------
LOEWDIN REDUCED ORBITAL CHARGES
-------------------------------
  0 C s       :     2.482021  s :     2.482021
      pz      :     0.655350  p :     2.284773
      px      :     0.835892
      py      :     0.793530
      dz2     :     0.070323  d :     0.679354
      dxz     :     0.136363
      dyz     :     0.067169
      dx2y2   :     0.233924
      dxy     :     0.171575
      f0      :     0.026977  f :     0.339931
      f+1     :     0.041510
      f-1     :     0.015487
      f+2     :     0.035351
      f-2     :     0.051543
      f+3     :     0.109813
      f-3     :     0.059248

  1 C s       :     2.493128  s :     2.493128
      pz      :     0.637435  p :     2.284717
      px      :     0.832777
      py      :     0.814505
      dz2     :     0.072571  d :     0.711985
      dxz     :     0.110312
      dyz     :     0.105310
      dx2y2   :     0.170858
      dxy     :     0.252934
      f0      :     0.026765  f :     0.337366
      f+1     :     0.019228
      f-1     :     0.034496
      f+2     :     0.051273
      f-2     :     0.036766
      f+3     :     0.105423
      f-3     :     0.063414

  2 C s       :     2.493574  s :     2.493574
      pz      :     0.662607  p :     2.306735
      px      :     0.828504
      py      :     0.815624
      dz2     :     0.085953  d :     0.696537
      dxz     :     0.076243
      dyz     :     0.125211
      dx2y2   :     0.202051
      dxy     :     0.207078
      f0      :     0.021688  f :     0.331604
      f+1     :     0.029980
      f-1     :     0.027804
      f+2     :     0.047270
      f-2     :     0.049036
      f+3     :     0.098383
      f-3     :     0.057441

  3 C s       :     2.491854  s :     2.491854
      pz      :     0.639172  p :     2.281875
      px      :     0.847216
      py      :     0.795487
      dz2     :     0.070140  d :     0.710299
      dxz     :     0.148635
      dyz     :     0.068397
      dx2y2   :     0.252614
      dxy     :     0.170513
      f0      :     0.026517  f :     0.337991
      f+1     :     0.039115
      f-1     :     0.015580
      f+2     :     0.033909
      f-2     :     0.052511
      f+3     :     0.114175
      f-3     :     0.056184

  4 C s       :     2.475011  s :     2.475011
      pz      :     0.656748  p :     2.284910
      px      :     0.830000
      py      :     0.798162
      dz2     :     0.072442  d :     0.696632
      dxz     :     0.119055
      dyz     :     0.099263
      dx2y2   :     0.179885
      dxy     :     0.225987
      f0      :     0.028012  f :     0.339763
      f+1     :     0.020762
      f-1     :     0.035277
      f+2     :     0.050591
      f-2     :     0.039963
      f+3     :     0.100981
      f-3     :     0.064176

  5 C s       :     2.445951  s :     2.445951
      pz      :     0.643136  p :     2.205338
      px      :     0.759300
      py      :     0.802903
      dz2     :     0.113814  d :     1.007368
      dxz     :     0.200848
      dyz     :     0.152438
      dx2y2   :     0.260952
      dxy     :     0.279316
      f0      :     0.043188  f :     0.565048
      f+1     :     0.050005
      f-1     :     0.040184
      f+2     :     0.074206
      f-2     :     0.087488
      f+3     :     0.180634
      f-3     :     0.089342

  6 N s       :     2.609180  s :     2.609180
      pz      :     1.060671  p :     2.975887
      px      :     0.966906
      py      :     0.948309
      dz2     :     0.053658  d :     0.622358
      dxz     :     0.137912
      dyz     :     0.034300
      dx2y2   :     0.221761
      dxy     :     0.174727
      f0      :     0.021371  f :     0.229805
      f+1     :     0.021157
      f-1     :     0.011232
      f+2     :     0.018488
      f-2     :     0.030552
      f+3     :     0.084379
      f-3     :     0.042628

  7 C s       :     2.445952  s :     2.445952
      pz      :     0.643148  p :     2.205358
      px      :     0.759303
      py      :     0.802908
      dz2     :     0.113811  d :     1.007371
      dxz     :     0.200848
      dyz     :     0.152440
      dx2y2   :     0.260956
      dxy     :     0.279316
      f0      :     0.043187  f :     0.565039
      f+1     :     0.050005
      f-1     :     0.040176
      f+2     :     0.074206
      f-2     :     0.087485
      f+3     :     0.180636
      f-3     :     0.089344

  8 C s       :     2.475011  s :     2.475011
      pz      :     0.656725  p :     2.284892
      px      :     0.830005
      py      :     0.798162
      dz2     :     0.072447  d :     0.696640
      dxz     :     0.119049
      dyz     :     0.099265
      dx2y2   :     0.179880
      dxy     :     0.225999
      f0      :     0.028011  f :     0.339769
      f+1     :     0.020763
      f-1     :     0.035280
      f+2     :     0.050591
      f-2     :     0.039963
      f+3     :     0.100983
      f-3     :     0.064178

  9 C s       :     2.491855  s :     2.491855
      pz      :     0.639172  p :     2.281881
      px      :     0.847221
      py      :     0.795489
      dz2     :     0.070139  d :     0.710299
      dxz     :     0.148632
      dyz     :     0.068396
      dx2y2   :     0.252618
      dxy     :     0.170515
      f0      :     0.026516  f :     0.337990
      f+1     :     0.039117
      f-1     :     0.015580
      f+2     :     0.033906
      f-2     :     0.052510
      f+3     :     0.114175
      f-3     :     0.056186

 10 C s       :     2.493572  s :     2.493572
      pz      :     0.662600  p :     2.306733
      px      :     0.828507
      py      :     0.815626
      dz2     :     0.085952  d :     0.696536
      dxz     :     0.076242
      dyz     :     0.125209
      dx2y2   :     0.202054
      dxy     :     0.207078
      f0      :     0.021689  f :     0.331605
      f+1     :     0.029980
      f-1     :     0.027804
      f+2     :     0.047269
      f-2     :     0.049036
      f+3     :     0.098385
      f-3     :     0.057442

 11 C s       :     2.493129  s :     2.493129
      pz      :     0.637433  p :     2.284717
      px      :     0.832778
      py      :     0.814505
      dz2     :     0.072572  d :     0.711984
      dxz     :     0.110311
      dyz     :     0.105307
      dx2y2   :     0.170857
      dxy     :     0.252937
      f0      :     0.026765  f :     0.337366
      f+1     :     0.019228
      f-1     :     0.034495
      f+2     :     0.051274
      f-2     :     0.036766
      f+3     :     0.105423
      f-3     :     0.063416

 12 C s       :     2.482022  s :     2.482022
      pz      :     0.655347  p :     2.284770
      px      :     0.835891
      py      :     0.793532
      dz2     :     0.070322  d :     0.679365
      dxz     :     0.136366
      dyz     :     0.067170
      dx2y2   :     0.233927
      dxy     :     0.171579
      f0      :     0.026977  f :     0.339933
      f+1     :     0.041509
      f-1     :     0.015487
      f+2     :     0.035350
      f-2     :     0.051545
      f+3     :     0.109815
      f-3     :     0.059250

 13 H s       :     0.648406  s :     0.648406
      pz      :     0.089739  p :     0.298774
      px      :     0.078811
      py      :     0.130223
      dz2     :     0.031683  d :     0.216176
      dxz     :     0.015945
      dyz     :     0.055809
      dx2y2   :     0.046141
      dxy     :     0.066597

 14 H s       :     0.661238  s :     0.661238
      pz      :     0.087480  p :     0.297885
      px      :     0.114107
      py      :     0.096298
      dz2     :     0.029485  d :     0.212226
      dxz     :     0.040240
      dyz     :     0.029205
      dx2y2   :     0.069360
      dxy     :     0.043936

 15 H s       :     0.665064  s :     0.665064
      pz      :     0.085354  p :     0.302604
      px      :     0.130082
      py      :     0.087168
      dz2     :     0.020543  d :     0.212230
      dxz     :     0.055395
      dyz     :     0.013812
      dx2y2   :     0.061942
      dxy     :     0.060538

 16 H s       :     0.660363  s :     0.660363
      pz      :     0.089116  p :     0.297666
      px      :     0.077653
      py      :     0.130897
      dz2     :     0.031080  d :     0.212523
      dxz     :     0.015399
      dyz     :     0.055066
      dx2y2   :     0.042349
      dxy     :     0.068629

 17 H s       :     0.634457  s :     0.634457
      pz      :     0.094403  p :     0.317274
      px      :     0.131243
      py      :     0.091628
      dz2     :     0.032378  d :     0.230366
      dxz     :     0.051399
      dyz     :     0.029862
      dx2y2   :     0.069927
      dxy     :     0.046800

 18 H s       :     0.555433  s :     0.555433
      pz      :     0.122193  p :     0.401351
      px      :     0.104855
      py      :     0.174303
      dz2     :     0.031403  d :     0.303907
      dxz     :     0.009295
      dyz     :     0.094471
      dx2y2   :     0.070450
      dxy     :     0.098288

 19 H s       :     0.634452  s :     0.634452
      pz      :     0.094408  p :     0.317292
      px      :     0.131245
      py      :     0.091639
      dz2     :     0.032378  d :     0.230369
      dxz     :     0.051398
      dyz     :     0.029864
      dx2y2   :     0.069929
      dxy     :     0.046799

 20 H s       :     0.660364  s :     0.660364
      pz      :     0.089116  p :     0.297665
      px      :     0.077653
      py      :     0.130896
      dz2     :     0.031079  d :     0.212523
      dxz     :     0.015399
      dyz     :     0.055066
      dx2y2   :     0.042349
      dxy     :     0.068629

 21 H s       :     0.665064  s :     0.665064
      pz      :     0.085356  p :     0.302606
      px      :     0.130082
      py      :     0.087169
      dz2     :     0.020543  d :     0.212231
      dxz     :     0.055396
      dyz     :     0.013813
      dx2y2   :     0.061942
      dxy     :     0.060538

 22 H s       :     0.661239  s :     0.661239
      pz      :     0.087481  p :     0.297886
      px      :     0.114108
      py      :     0.096297
      dz2     :     0.029486  d :     0.212226
      dxz     :     0.040240
      dyz     :     0.029205
      dx2y2   :     0.069359
      dxy     :     0.043936

 23 H s       :     0.648408  s :     0.648408
      pz      :     0.089741  p :     0.298774
      px      :     0.078811
      py      :     0.130222
      dz2     :     0.031684  d :     0.216176
      dxz     :     0.015946
      dyz     :     0.055809
      dx2y2   :     0.046141
      dxy     :     0.066597



                      *****************************
                      * MAYER POPULATION ANALYSIS *
                      *****************************

  NA   - Mulliken gross atomic population
  ZA   - Total nuclear charge
  QA   - Mulliken gross atomic charge
  VA   - Mayer's total valence
  BVA  - Mayer's bonded valence
  FA   - Mayer's free valence

  ATOM       NA         ZA         QA         VA         BVA        FA
  0 C      6.9852     6.0000    -0.9852     2.3593     2.3593    -0.0000
  1 C      6.4388     6.0000    -0.4388     2.6823     2.6823    -0.0000
  2 C      6.3704     6.0000    -0.3704     2.8976     2.8976    -0.0000
  3 C      6.9351     6.0000    -0.9351     2.8102     2.8102     0.0000
  4 C      6.4306     6.0000    -0.4306     2.0412     2.0412     0.0000
  5 C      4.8366     6.0000     1.1634     0.9485     0.9485    -0.0000
  6 N      7.5897     7.0000    -0.5897     2.1389     2.1389    -0.0000
  7 C      4.8408     6.0000     1.1592     0.9566     0.9566     0.0000
  8 C      6.4303     6.0000    -0.4303     2.0431     2.0431    -0.0000
  9 C      6.9375     6.0000    -0.9375     2.8149     2.8149     0.0000
 10 C      6.3735     6.0000    -0.3735     2.8992     2.8992     0.0000
 11 C      6.4401     6.0000    -0.4401     2.6735     2.6735     0.0000
 12 C      6.9791     6.0000    -0.9791     2.3512     2.3512     0.0000
 13 H      0.5651     1.0000     0.4349     0.5740     0.5740    -0.0000
 14 H      0.6121     1.0000     0.3879     0.7714     0.7714     0.0000
 15 H      0.4727     1.0000     0.5273     0.5411     0.5411     0.0000
 16 H      0.6908     1.0000     0.3092     0.9200     0.9200     0.0000
 17 H      0.3387     1.0000     0.6613     0.0786     0.0786     0.0000
 18 H      1.0492     1.0000    -0.0492     1.2095     1.2095     0.0000
 19 H      0.3392     1.0000     0.6608     0.0785     0.0785     0.0000
 20 H      0.6923     1.0000     0.3077     0.9222     0.9222     0.0000
 21 H      0.4721     1.0000     0.5279     0.5400     0.5400    -0.0000
 22 H      0.6164     1.0000     0.3836     0.7771     0.7771    -0.0000
 23 H      0.5635     1.0000     0.4365     0.5684     0.5684     0.0000

  Mayer bond orders larger than 0.100000
B(  0-C ,  1-C ) :   1.1664 B(  0-C ,  2-C ) :   0.1323 B(  0-C ,  4-C ) :   0.1081 
B(  0-C ,  5-C ) :   0.2334 B(  0-C ,  7-C ) :   0.1099 B(  0-C , 23-H ) :   0.5276 
B(  1-C ,  2-C ) :   1.0165 B(  1-C ,  4-C ) :  -0.1237 B(  1-C ,  5-C ) :  -0.1396 
B(  1-C , 22-H ) :   0.7530 B(  2-C ,  3-C ) :   1.2077 B(  2-C ,  4-C ) :   0.1619 
B(  2-C , 21-H ) :   0.5400 B(  3-C ,  4-C ) :   1.1848 B(  3-C ,  5-C ) :  -0.2969 
B(  3-C , 20-H ) :   0.8749 B(  4-C ,  5-C ) :   0.5378 B(  4-C ,  6-N ) :  -0.2478 
B(  4-C ,  7-C ) :   0.2029 B(  4-C , 17-H ) :  -0.1393 B(  4-C , 19-H ) :   0.3155 
B(  5-C ,  6-N ) :   0.5221 B(  5-C ,  8-C ) :   0.2113 B(  5-C , 12-C ) :   0.1048 
B(  5-C , 17-H ) :  -0.1582 B(  5-C , 18-H ) :  -0.1073 B(  6-N ,  7-C ) :   0.5228 
B(  6-N ,  8-C ) :  -0.2462 B(  6-N , 18-H ) :   1.3364 B(  7-C ,  8-C ) :   0.5421 
B(  7-C ,  9-C ) :  -0.2960 B(  7-C , 11-C ) :  -0.1349 B(  7-C , 12-C ) :   0.2349 
B(  7-C , 18-H ) :  -0.1081 B(  7-C , 19-H ) :  -0.1623 B(  8-C ,  9-C ) :   1.1840 
B(  8-C , 10-C ) :   0.1594 B(  8-C , 11-C ) :  -0.1248 B(  8-C , 12-C ) :   0.1062 
B(  8-C , 17-H ) :   0.3153 B(  8-C , 19-H ) :  -0.1355 B(  9-C , 10-C ) :   1.2148 
B(  9-C , 16-H ) :   0.8728 B( 10-C , 11-C ) :   1.0152 B( 10-C , 12-C ) :   0.1277 
B( 10-C , 15-H ) :   0.5408 B( 11-C , 12-C ) :   1.1594 B( 11-C , 14-H ) :   0.7451 
B( 12-C , 13-H ) :   0.5329 

-------
TIMINGS
-------

Total SCF time: 0 days 0 hours 10 min 26 sec 

Total time                  ....     626.058 sec
Sum of individual times     ....     625.752 sec  (100.0%)

SCF preparation             ....       0.992 sec  (  0.2%)
Fock matrix formation       ....     607.077 sec  ( 97.0%)
  Startup                   ....       0.704 sec  (  0.1% of F)
  Split-RI-J                ....      33.953 sec  (  5.6% of F)
  Chain of spheres X        ....     369.518 sec  ( 60.9% of F)
  XC integration            ....     185.567 sec  ( 30.6% of F)
    XC Preparation          ....       0.000 sec  (  0.0% of XC)
    Basis function eval.    ....      11.827 sec  (  6.4% of XC)
    Density eval.           ....      74.528 sec  ( 40.2% of XC)
    XC-Functional eval.     ....       2.061 sec  (  1.1% of XC)
    XC-Potential eval.      ....      92.364 sec  ( 49.8% of XC)
  CPCM terms                ....      15.286 sec  (  2.5% of F)
Diagonalization             ....       0.000 sec  (  0.0%)
Density matrix formation    ....       1.778 sec  (  0.3%)
Total Energy calculation    ....       0.813 sec  (  0.1%)
Population analysis         ....       0.504 sec  (  0.1%)
Orbital Transformation      ....       1.261 sec  (  0.2%)
Orbital Orthonormalization  ....       0.000 sec  (  0.0%)
DIIS solution               ....      11.106 sec  (  1.8%)
SOSCF solution              ....       2.220 sec  (  0.4%)
Finished LeanSCF after 626.2 sec

Maximum memory used throughout the entire LEANSCF-calculation: 153.6 MB


-------------------------------------------------------------------------------
                          DFT DISPERSION CORRECTION                            
                                                                               
                              DFTD3 V3.1  Rev 1                                
                          USING Becke-Johnson damping                          
-------------------------------------------------------------------------------
The R2SCANh functional is recognized
Active option DFTDOPT                   ...         4   

molecular C6(AA) [au] = 6978.068150 


            DFT-D V3
 parameters
 s6 scaling factor         :     1.0000 
 a1 scaling factor         :     0.4709 
 s8 scaling factor         :     1.1236 
 a2 scaling factor         :     5.9157 
 ad hoc parameters k1-k3   :    16.0000     1.3333    -4.0000 

 Edisp/kcal,au: -5.724219208986  -0.009122122988 
 E6   /kcal   :  -4.123124015 
 E8   /kcal   :  -1.601095194 
 % E8         :  27.970542972 

-------------------------   ----------------
Dispersion correction           -0.009122123
-------------------------   ----------------


-------------------------   --------------------
FINAL SINGLE POINT ENERGY      -518.537915326111
-------------------------   --------------------



           ************************************************************
           *        Program running with 4 parallel MPI-processes     *
           *              working on a common directory               *
           ************************************************************

------------------------------------------------------------------------------
                              ORCA PROPERTY CALCULATIONS
------------------------------------------------------------------------------

GBWName                                 ... cs_rporg_073_red_solv_04.gbw
Number of atoms                         ...     24
Number of basis functions               ...    929
Max core memory                         ...   3000 MB

Electric properties:
Dipole moment                           ... YES
Quadrupole moment                       ...  NO
Static polarizability (Dipole/Dipole)   ...  NO
Static polarizability (Dipole/Quad.)    ...  NO
Static polarizability (Quad./Quad.)     ...  NO
Static polarizability (Velocity)        ...  NO

Atomic electric properties:
Dipole moment                           ...  NO
Quadrupole moment                       ...  NO
Static polarizability                   ...  NO

Choice of electric origin               ... Center of mass
Position of electric origin             ...     0.000000    -0.001483     0.000001

General magnetic properties:
Magnetizability                         ...  NO

EPR properties:
g-Tensor (aka g-matrix)                 ...  NO
Zero-Field splitting spin-orbit         ...  NO
Zero-field splitting spin-spin          ...  NO
Hyperfine couplings                     ...  NO (   0 nuclei)
Quadrupole couplings                    ...  NO (   0 nuclei)
Contact density                         ...  NO (   0 nuclei)

NMR properties:
Chemical shifts                         ...  NO (   0 nuclei)
Spin-rotation constants                 ...  NO (   0 nuclei)
Spin-spin couplings                     ...  NO (   0 nuclei,    0 pairs)

Choice of magnetic origin               ... GIAO
Position of magnetic origin             ...     0.000000     0.000000     0.000000

Properties with geometric perturbations:
SCF Hessian                             ...  NO
IR spectrum                             ...  NO
VCD spectrum                            ...  NO
X-ray spectroscopy properties:
SCF XES/XAS/RIXS spectra                ...  NO


-------------
DIPOLE MOMENT
-------------

Method             : SCF
Type of density    : Electron Density
Multiplicity       :   1
Irrep              :   0
Energy             :  -518.5287932031230866 Eh
Relativity type    : 
Basis              : AO
                                X                 Y                 Z
Electronic contribution:     -0.000002582      -1.332742535       0.000534694
Nuclear contribution   :      0.000006870       0.752166841       0.000025965
                        -----------------------------------------
Total Dipole Moment    :      0.000004288      -0.580575693       0.000560659
                        -----------------------------------------
Magnitude (a.u.)       :      0.580575964
Magnitude (Debye)      :      1.475706824



--------------------
Rotational spectrum 
--------------------
 
Rotational constants in cm-1:             0.084180             0.013733             0.012322 
Rotational constants in MHz :          2523.650354           411.709672           369.402071 

Dipole components along the rotational axes: 
x,y,z [a.u.] :    -0.000008    -0.580576     0.000559 
x,y,z [Debye]:    -0.000020    -1.475706     0.001422 

 

Dipole moment calculation done in   0.2 sec 

Maximum memory used throughout the entire PROP-calculation: 92.1 MB

--------------------------------
SUGGESTED CITATIONS FOR THIS RUN
--------------------------------

Below you find a list of papers that are relevant to this ORCA run
We neither can nor want to force you to cite these papers, but we appreciate if you do
You receive ORCA, which is the product of decades of hard work by many enthusiastic individuals, for free
The only thing we kindly ask in return is that you cite our papers,
We deeply appreciate it, if you show your appreciation for ORCA by not just citing the generic ORCA reference.

Please note that relegating all ORCA citations to the supporting information does *not* help us.
SI sections are not indexed - citations you put there will not count into any citation statistics
But we need these citations in order to attract the funding resources that allow us to do what we are doing

Therefore, if you are a happy ORCA user, please consider citing a few of the papers listed below in the main body of your paper

In addition to the list printed below, the program has created the file cs_rporg_073_red_solv_04.bibtex that contains the list in bibtex format
You can import this file easily into all common literature databanks and citation aid programs


List of essential papers. We consider these as the minimum necessary citations

  1. Neese,F.
     Software update: the ORCA program system, version 5.0
     WIRES Comput. Molec. Sci., 2022 12(1)e1606
     doi.org/10.1002/wcms.1606

List of papers to cite with high priority. The work reported in these papers was absolutely
necessary for this run to complete.
Our perspective: the developers of density functionals and basis sets usually get cited in chemistry papers
Good! But without the algorithms to do something with them, the functionals or basis sets would not do anything.
Hence, in our opinion, the algorithm design and method developments papers are equally worthy of getting cited

  1. Neese,F.
     An improvement of the resolution of the identity approximation for the formation of the Coulomb matrix
     J. Comp. Chem., 2003 24(14)1740-1747
     doi.org/10.1002/jcc.10318
  2. Neese,F.; Wennmohs,F.; Hansen,A.; Becker,U.
     Efficient, approximate and parallel Hartree-Fock and hybrid DFT calculations. A 'chain-of-spheres' algorithm for the Hartree-Fock exchange
     Chem. Phys., 2009 356(1-3)98-109
     doi.org/10.1016/j.chemphys.2008.10.036
  3. Garcia-Rates,M.; Neese,F.
     Effect of the Solute Cavity on the Solvation Energy and its Derivatives within the Framework of the Gaussian Charge Scheme
     J. Comput. Chem., 2020 41 922-939
     doi.org/10.1002/jcc.26139
  4. Helmich-Paris,B.; de Souza,B.; Neese,F.; Izsák,R.
     An improved chain of spheres for exchange algorithm
     J. Chem. Phys., 2021 155 104109
     doi.org/doi: 10.1063/5.0058766.
  5. Neese,F.
     The SHARK Integral Generation and Digestion System
     J. Comp. Chem., 2022  1-16
     doi.org/10.1002/jcc.26942
  6. Lehtola,S.; Steigemann,C.; Oliveira,M.; Marques,M.
     Recent developments in Libxc - A comprehensive library of functionals for density functional theory
     Software X, 2018 7 
     doi.org/10.1016/j.softx.2017.11.002
  7. Grimme,S.; Antony,J.; Ehrlich,S.; Krieg,H.
     A consistent and accurate ab initio parametrization of density functional dispersion correction (DFT-D) for the 94 elements H-Pu
     J. Chem. Phys., 2010 132 154104-XXXX
     doi.org/10.1063/1.3382344
  8. Grimme,S.; Ehrlich,S.; Goerigk,L.
     Effect of the damping function in dispersion corrected density functional theory
     J. Comput. Chem., 2011 32(7)1456-1465
     doi.org/10.1002/jcc.21759
  9. Bursch,M.; Neugebauer,H.; Ehlert,S.; Grimme,S.
     Dispersion corrected r2SCAN based global hybrid functionals: r2SCANh, r2SCAN0, and r2SCAN50
     J. Phys. Chem., 2022 156(13)134105
     doi.org/10.1063/5.0086040

List of suggested additional citations. These are papers that are important in the 'surrounding' of 
of this run, or papers that preceded the highly important papers. If you like your results we are grateful for a citation.

  1. Izsak,R.; Neese,F.
     An overlap fitted chain of spheres exchange method
     J. Chem. Phys., 2011 135 144105
     doi.org/10.1063/1.3646921
  2. Izsak,R.; Hansen,A.; Neese,F.
     The resolution of identity and chain of spheres approximations for the LPNO-CCSD singles Fock term
     Molec. Phys., 2012 110 2413-2417
     doi.org/10.1080/00268976.2012.687466
  3. Neese,F.
     The ORCA program system
     WIRES Comput. Molec. Sci., 2012 2(1)73-78
     doi.org/10.1002/wcms.81
  4. Izsak,R.; Neese,F.; Klopper,W.
     Robust fitting techniques in the chain of spheres approximation to the Fock exchange: The role of the complementary space
     J. Chem. Phys., 2013 139 
     doi.org/10.1063/1.4819264
  5. Neese,F.
     Software update: the ORCA program system, version 4.0
     WIRES Comput. Molec. Sci., 2018 8(1)1-6
     doi.org/10.1002/wcms.1327
  6. Neese,F.; Wennmohs,F.; Becker,U.; Riplinger,C.
     The ORCA quantum chemistry program package
     J. Chem. Phys., 2020 152 Art. No. L224108
     doi.org/10.1063/5.0004608
  7. Wittmann,L.; Neugebauer,H.; Grimme,S.; Bursch,M.
     Dispersion-corrected r2SCAN based double-hybrid functionals
     J. Chem. Phys., 2023 159(22)224103
     doi.org/10.1063/5.0174988

List of optional additional citations

  1. Neese,F.
     Approximate second-order SCF convergence for spin unrestricted wavefunctions
     Chem. Phys. Lett., 2000 325(1-3)93-98
     doi.org/10.1016/s0009-2614(00)00662-x

Timings for individual modules:

Sum of individual times          ...      652.107 sec (=  10.868 min)
Startup calculation              ...       15.873 sec (=   0.265 min)   2.4 %
SCF iterations                   ...      634.108 sec (=  10.568 min)  97.2 %
Property calculations            ...        2.126 sec (=   0.035 min)   0.3 %
                             ****ORCA TERMINATED NORMALLY****
TOTAL RUN TIME: 0 days 0 hours 10 minutes 54 seconds 959 msec
