
                                 *****************
                                 * O   R   C   A *
                                 *****************

                                            #,                                       
                                            ###                                      
                                            ####                                     
                                            #####                                    
                                            ######                                   
                                           ########,                                 
                                     ,,################,,,,,                         
                               ,,#################################,,                 
                          ,,##########################################,,             
                       ,#########################################, ''#####,          
                    ,#############################################,,   '####,        
                  ,##################################################,,,,####,       
                ,###########''''           ''''###############################       
              ,#####''   ,,,,##########,,,,          '''####'''          '####       
            ,##' ,,,,###########################,,,                        '##       
           ' ,,###''''                  '''############,,,                           
         ,,##''                                '''############,,,,        ,,,,,,###''
      ,#''                                            '''#######################'''  
     '                                                          ''''####''''         
             ,#######,   #######,   ,#######,      ##                                
            ,#'     '#,  ##    ##  ,#'     '#,    #''#        ,####,   ,####,        
            ##       ##  ##   ,#'  ##            #'  '#       #'       #'  '#        
            ##       ##  #######   ##           ,######,      #####,   #    #        
            '#,     ,#'  ##    ##  '#,     ,#' ,#      #,     #,   #   #,  ,#        
             '#######'   ##     ##  '#######'  #'      '#     '####' # '####'        



                #########################################################
                #                        -***-                          #
                #          Department of theory and spectroscopy        #
                #                                                       #
                #                      Frank Neese                      #
                #                                                       #
                #     Directorship, Architecture, Infrastructure        #
                #                    SHARK, DRIVERS                     #
                #        Core code/Algorithms in most modules           #
                #                                                       #
                #        Max Planck Institute fuer Kohlenforschung      #
                #                Kaiser Wilhelm Platz 1                 #
                #                 D-45470 Muelheim/Ruhr                 #
                #                      Germany                          #
                #                                                       #
                #                  All rights reserved                  #
                #                        -***-                          #
                #########################################################


                         Program Version 6.0.0  -   RELEASE  -


 With contributions from (in alphabetic order):
   Daniel Aravena         : Magnetic Suceptibility
   Michael Atanasov       : Ab Initio Ligand Field Theory (pilot matlab implementation)
   Alexander A. Auer      : GIAO ZORA, VPT2 properties, NMR spectrum
   Ute Becker             : All parallelization in ORCA, NUMFREQ, NUMCALC
   Giovanni Bistoni       : ED, misc. LED, open-shell LED, HFLD
   Martin Brehm           : Molecular dynamics
   Dmytro Bykov           : pre 5.0 version of the SCF Hessian
   Marcos Casanova-Páez   : Triplet and SCS-CIS(D). UHF-(DLPNO)-IP/EA/STEOM-CCSD. UHF-CVS-IP/STEOM-CCSD
   Vijay G. Chilkuri      : MRCI spin determinant printing, contributions to CSF-ICE
   Pauline Colinet        : FMM embedding
   Dipayan Datta          : RHF DLPNO-CCSD density
   Achintya Kumar Dutta   : EOM-CC, STEOM-CC
   Nicolas Foglia         : Exact transition moments, OPA infrastructure, MCD improvements
   Dmitry Ganyushin       : Spin-Orbit,Spin-Spin,Magnetic field MRCI
   Miquel Garcia          : C-PCM and meta-GGA Hessian, CCSD/C-PCM, Gaussian charge scheme
   Tiago L. C. Gouveia    : GS-ROHF, GS-ROCIS
   Yang Guo               : DLPNO-NEVPT2, F12-NEVPT2, CIM, IAO-localization
   Andreas Hansen         : Spin unrestricted coupled pair/coupled cluster methods
   Ingolf Harden          : AUTO-CI MPn and infrastructure 
   Benjamin Helmich-Paris : MC-RPA, TRAH-(SCF,CASSCF), AVAS, COSX integrals, SCF dyn. polar.
   Lee Huntington         : MR-EOM, pCC
   Robert Izsak           : Overlap fitted RIJCOSX, COSX-SCS-MP3, EOM
   Riya Kayal             : Wick's Theorem for AUTO-CI, AUTO-CI UHF-CCSDT
   Emily Kempfer          : AUTO-CI, RHF CISDT and CCSDT
   Christian Kollmar      : KDIIS, OOCD, Brueckner-CCSD(T), CCSD density, CASPT2, CASPT2-K, improved NEVPT2
   Axel Koslowski         : Symmetry handling
   Simone Kossmann        : Meta GGA functionals, TD-DFT gradient, OOMP2, (MP2 Hessian; deprecated post 5.0)
   Lucas Lang             : DCDCAS
   Marvin Lechner         : AUTO-CI (C++ implementation), FIC-MRCC
   Spencer Leger          : CASSCF response
   Dagmar Lenk            : GEPOL surface, SMD, ORCA-2-JSON
   Dimitrios Liakos       : Extrapolation schemes; Compound Job, initial MDCI parallelization
   Dimitrios Manganas     : Further ROCIS development; embedding schemes. LFT, Crystal Embedding
   Dimitrios Pantazis     : SARC Basis sets
   Anastasios Papadopoulos: AUTO-CI, single reference methods and gradients
   Taras Petrenko         : pre 6.0 DFT Hessian and TD-DFT gradient, (ASA, deprecated), ECA, 1-Electron XAS/XES, NRVS
   Peter Pinski           : DLPNO-MP2, DLPNO-MP2 Gradient
   Christoph Reimann      : Effective Core Potentials
   Marius Retegan         : Local ZFS, SOC
   Christoph Riplinger    : Optimizer, TS searches, QM/MM, DLPNO-CCSD(T), (RO)-DLPNO pert. Triples
   Michael Roemelt        : Original ROCIS implementation
   Masaaki Saitow         : Open-shell DLPNO-CCSD energy and density
   Barbara Sandhoefer     : DKH picture change effects
   Kantharuban Sivalingam : CASSCF convergence/infrastructure, NEVPT2 and variants, FIC-MRCI
   Bernardo de Souza      : ESD, SOC TD-DFT
   Georgi Stoychev        : AutoAux, RI-MP2 NMR, DLPNO-MP2 response, X2C
   Van Anh Tran           : RI-MP2 g-tensors
   Willem Van den Heuvel  : Paramagnetic NMR
   Zikuan Wang            : NOTCH, Electric field optimization 
   Frank Wennmohs         : Technical directorship and infrastructure
   Hang Xu                : AUTO-CI-Response properties 


 We gratefully acknowledge several colleagues who have allowed us to
 interface, adapt or use parts of their codes:
   Stefan Grimme, W. Hujo, H. Kruse, P. Pracht,  : VdW corrections, initial TS optimization,
                  C. Bannwarth, S. Ehlert,         DFT functionals, gCP, sTDA/sTD-DF
                  L. Wittmann, M. Mueller
   Ed Valeev, F. Pavosevic, A. Kumar             : LibInt (2-el integral package), F12 methods
   Garnet Chan, S. Sharma, J. Yang, R. Olivares  : DMRG
   Ulf Ekstrom                                   : XCFun DFT Library
   Mihaly Kallay                                 : mrcc  (arbitrary order and MRCC methods)
   Frank Weinhold                                : gennbo (NPA and NBO analysis)
   Simon Mueller                                 : openCOSMO-RS
   Christopher J. Cramer and Donald G. Truhlar   : smd solvation model
   Lars Goerigk                                  : TD-DFT with DH, B97 family of functionals
   V. Asgeirsson, H. Jonsson                     : NEB implementation
   FAccTs GmbH                                   : IRC, NEB, NEB-TS, DLPNO-Multilevel, CI-OPT
                                                   MM, QMMM, 2- and 3-layer-ONIOM, Crystal-QMMM,
                                                   LR-CPCM, SF, NACMEs, symmetry and pop. for TD-DFT,
                                                   nearIR, NL-DFT gradient (VV10), updates on ESD,
                                                   ML-optimized integration grids, MBIS, APM,
                                                   GOAT, DOCKER, SOLVATOR, interface openCOSMO-RS
   S Lehtola, MJT Oliveira, MAL Marques          : LibXC Library
   Liviu Ungur et al                             : ANISO software


 Your calculation uses the libint2 library for the computation of 2-el integrals
 For citations please refer to: http://libint.valeyev.net

 Your ORCA version has been built with support for libXC version: 6.2.2
 For citations please refer to: https://libxc.gitlab.io

 This ORCA versions uses:
   CBLAS   interface :  Fast vector & matrix operations
   LAPACKE interface :  Fast linear algebra routines
   SCALAPACK package :  Parallel linear algebra routines
   Shared memory     :  Shared parallel matrices
   BLAS/LAPACK       :  OpenBLAS 0.3.27  USE64BITINT DYNAMIC_ARCH NO_AFFINITY SkylakeX SINGLE_THREADED
        Core in use  :  SkylakeX
   Copyright (c) 2011-2014, The OpenBLAS Project


NOTE: MaxCore=3000 MB was set to SCF,MP2,MDCI,CIPSI,MRCI and CIS
      => If you want to overwrite this, your respective input block should be placed after the MaxCore statement
Your calculation utilizes the atom-pairwise dispersion correction
with the Becke-Johnson damping scheme (D3BJ)


Your calculation utilizes the SMD solvation module
Please cite in your paper:
A.V. Marenich, C.J. Cramer, D.G. Truhlar J. Phys. Chem. B, 113, (2009), 6378 

Warning: RI is on but no J-basis has been assigned. Assigning Def2/J (nothing to worry about!)
================================================================================

----- Orbital basis set information -----
Your calculation utilizes the basis: aug-cc-pVTZ 
    H, B-Ne : Obtained from the ccRepo (grant-hill.group.shef.ac.uk/ccrepo) Feb. 2017
              R. A. Kendall, T. H. Dunning, Jr., R. J. Harrison, J. Chem. Phys. 96, 6796 (1992)
         He : Obtained from the ccRepo (grant-hill.group.shef.ac.uk/ccrepo) Feb. 2017
              D. E. Woon, T. H. Dunning, Jr., J. Chem. Phys. 100, 2975 (1994)
  Li-Be, Na : Obtained from the ccRepo (grant-hill.group.shef.ac.uk/ccrepo) Feb. 2017
              B. P. Prascher, D. E. Woon, K. A. Peterson, T. H. Dunning, Jr., A. K. Wilson, Theor. Chem. Acc. 128, 69 (2011)
         Mg : Obtained from the Peterson Research Group Website (tyr0.chem.wsu.edu/~kipeters) Feb. 2017
              B. P. Prascher, D. E. Woon, K. A. Peterson, T. H. Dunning, Jr., A. K. Wilson, Theor. Chem. Acc. 128, 69 (2011)
      Al-Ar : Obtained from the ccRepo (grant-hill.group.shef.ac.uk/ccrepo) Feb. 2017
              D. E. Woon, T. H. Dunning, Jr., J. Chem. Phys. 98, 1358 (1993)
      Sc-Zn : Obtained from the ccRepo (grant-hill.group.shef.ac.uk/ccrepo) Feb. 2017
              N. B. Balabanov, K. A. Peterson, J. Chem. Phys. 123, 064107 (2005)
              N. B. Balabanov, K. A. Peterson, J. Chem. Phys. 125, 074110 (2006)
      Ga-Kr : Obtained from the ccRepo (grant-hill.group.shef.ac.uk/ccrepo) Feb. 2017
              A. K. Wilson, D. E. Woon, K. A. Peterson, T. H. Dunning, Jr., J. Chem. Phys. 110, 7667 (1999)
     Ag, Au : Obtained from the Peterson Research Group Website (tyr0.chem.wsu.edu/~kipeters) Feb. 2017
              K. A. Peterson, C. Puzzarini, Theor. Chem. Acc. 114, 283 (2005)

----- AuxJ basis set information -----
Your calculation utilizes the auxiliary basis: def2/J
   F. Weigend, Phys. Chem. Chem. Phys. 8, 1057 (2006).

================================================================================
                                        WARNINGS
                       Please study these warnings very carefully!
================================================================================


WARNING: your system is open-shell and RHF/RKS was chosen
  ===> : WILL SWITCH to UHF/UKS


================================================================================
                                       INPUT FILE
================================================================================
NAME = cs_rporg_102_ox_solv_04.inp
|  1> !PBE0 aug-cc-pVTZ d3 TightSCF SlowConv RIJCOSX defgrid2
|  2>  
|  3> %pal
|  4> nprocs 4
|  5> end
|  6>  
|  7> %scf
|  8> MaxIter 1500
|  9> end
| 10>  
| 11> %maxcore 3000
| 12>  
| 13> !CPCM
| 14> %cpcm smd true
| 15> SMDsolvent "MeCN"
| 16> surfacetype gepol_ses
| 17> rsolv 2.19
| 18> end 
| 19>  
| 20> * xyz 1 2
| 21> C           1.23906097821424     -1.40551070901350     -0.00000531617187
| 22> C           2.45015803140750     -0.67322429285633     -0.00000921567554
| 23> C           2.42811091171597      0.71268482354482     -0.00001568112958
| 24> C           1.19571143634270      1.39424054969992     -0.00001075953318
| 25> C          -0.03981045812169      0.67829020396443      0.00000284784769
| 26> N          -1.17332230996389      1.38563715697618      0.00000321346217
| 27> C          -2.32918806881659      0.72347909408816      0.00002389103772
| 28> C          -2.42077579021744     -0.67559967987832      0.00002275899277
| 29> C          -1.24727430719380     -1.42666779167592      0.00001979178345
| 30> C          -0.01202551197153     -0.74717299874334      0.00001126438315
| 31> H          -1.27875276164831     -2.52070410881391      0.00003141451029
| 32> H          -3.39973883027065     -1.16186770315986      0.00002731924985
| 33> H          -3.23745148992936      1.33696404502357      0.00004224395057
| 34> H           1.14599213399064      2.48703198107260     -0.00001815853916
| 35> H           3.36241847162623      1.28070852836563     -0.00003089393792
| 36> H           3.40229793543149     -1.21093180244413     -0.00001262742469
| 37> H           1.27044702940448     -2.50010749615001     -0.00001669280572
| 38> *
| 39> 
| 40>                          ****END OF INPUT****
================================================================================

                       ****************************
                       * Single Point Calculation *
                       ****************************

---------------------------------
CARTESIAN COORDINATES (ANGSTROEM)
---------------------------------
  C      1.239061   -1.405511   -0.000005
  C      2.450158   -0.673224   -0.000009
  C      2.428111    0.712685   -0.000016
  C      1.195711    1.394241   -0.000011
  C     -0.039810    0.678290    0.000003
  N     -1.173322    1.385637    0.000003
  C     -2.329188    0.723479    0.000024
  C     -2.420776   -0.675600    0.000023
  C     -1.247274   -1.426668    0.000020
  C     -0.012026   -0.747173    0.000011
  H     -1.278753   -2.520704    0.000031
  H     -3.399739   -1.161868    0.000027
  H     -3.237451    1.336964    0.000042
  H      1.145992    2.487032   -0.000018
  H      3.362418    1.280709   -0.000031
  H      3.402298   -1.210932   -0.000013
  H      1.270447   -2.500107   -0.000017

----------------------------
CARTESIAN COORDINATES (A.U.)
----------------------------
  NO LB      ZA    FRAG     MASS         X           Y           Z
   0 C     6.0000    0    12.011    2.341486   -2.656030   -0.000010
   1 C     6.0000    0    12.011    4.630128   -1.272210   -0.000017
   2 C     6.0000    0    12.011    4.588465    1.346779   -0.000030
   3 C     6.0000    0    12.011    2.259567    2.634733   -0.000020
   4 C     6.0000    0    12.011   -0.075231    1.281783    0.000005
   5 N     7.0000    0    14.007   -2.217258    2.618475    0.000006
   6 C     6.0000    0    12.011   -4.401528    1.367177    0.000045
   7 C     6.0000    0    12.011   -4.574603   -1.276698    0.000043
   8 C     6.0000    0    12.011   -2.357007   -2.696011    0.000037
   9 C     6.0000    0    12.011   -0.022725   -1.411952    0.000021
  10 H     1.0000    0     1.008   -2.416493   -4.763440    0.000059
  11 H     1.0000    0     1.008   -6.424575   -2.195612    0.000052
  12 H     1.0000    0     1.008   -6.117897    2.526496    0.000080
  13 H     1.0000    0     1.008    2.165611    4.699809   -0.000034
  14 H     1.0000    0     1.008    6.354050    2.420188   -0.000058
  15 H     1.0000    0     1.008    6.429411   -2.288329   -0.000024
  16 H     1.0000    0     1.008    2.400797   -4.724518   -0.000032

--------------------------------
INTERNAL COORDINATES (ANGSTROEM)
--------------------------------
 C      0   0   0     0.000000000000     0.00000000     0.00000000
 C      1   0   0     1.415273636989     0.00000000     0.00000000
 C      2   1   0     1.386084468729   120.24774976     0.00000000
 C      3   2   1     1.408306314258   119.85536335     0.00000000
 C      4   3   2     1.427970325128   120.96493325     0.00000000
 N      5   4   3     1.336109587647   117.94345218   180.00017777
 C      6   5   4     1.332095699702   118.22754485   180.00039128
 C      7   6   5     1.402073367009   123.55240080     0.00000000
 C      8   7   6     1.393272779906   118.87478141     0.00000000
 C      9   8   7     1.409805929833   118.56517804     0.00000000
 H      9   8   7     1.094489084663   120.97208036   179.99923160
 H      8   7   6     1.093080611976   120.15979511   180.00079453
 H      7   6   5     1.096041161404   116.15601097   179.99890829
 H      4   3   2     1.093921899206   121.54899527   180.00015460
 H      3   2   1     1.093426516038   120.38663360   180.00074048
 H      2   1   3     1.093480572627   119.38588938   180.00033358
 H      1   2   3     1.095046670580   119.51671001   179.99900926

---------------------------
INTERNAL COORDINATES (A.U.)
---------------------------
 C      0   0   0     0.000000000000     0.00000000     0.00000000
 C      1   0   0     2.674479578468     0.00000000     0.00000000
 C      2   1   0     2.619320044380   120.24774976     0.00000000
 C      3   2   1     2.661313246620   119.85536335     0.00000000
 C      4   3   2     2.698472841858   120.96493325     0.00000000
 N      5   4   3     2.524881205559   117.94345218   180.00017777
 C      6   5   4     2.517296056610   118.22754485   180.00039128
 C      7   6   5     2.649534683312   123.55240080     0.00000000
 C      8   7   6     2.632903983869   118.87478141     0.00000000
 C      9   8   7     2.664147109363   118.56517804     0.00000000
 H      9   8   7     2.068284626580   120.97208036   179.99923160
 H      8   7   6     2.065622998933   120.15979511   180.00079453
 H      7   6   5     2.071217626559   116.15601097   179.99890829
 H      4   3   2     2.067212801399   121.54899527   180.00015460
 H      3   2   1     2.066276662880   120.38663360   180.00074048
 H      2   1   3     2.066378815029   119.38588938   180.00033358
 H      1   2   3     2.069338311258   119.51671001   179.99900926

---------------------
BASIS SET INFORMATION
---------------------
There are 3 groups of distinct atoms

 Group   1 Type C   : 19s6p3d2f contracted to 5s4p3d2f pattern {88111/3111/111/11}
 Group   2 Type N   : 19s6p3d2f contracted to 5s4p3d2f pattern {88111/3111/111/11}
 Group   3 Type H   : 6s3p2d contracted to 4s3p2d pattern {3111/111/11}

Atom   0C    basis set group =>   1
Atom   1C    basis set group =>   1
Atom   2C    basis set group =>   1
Atom   3C    basis set group =>   1
Atom   4C    basis set group =>   1
Atom   5N    basis set group =>   2
Atom   6C    basis set group =>   1
Atom   7C    basis set group =>   1
Atom   8C    basis set group =>   1
Atom   9C    basis set group =>   1
Atom  10H    basis set group =>   3
Atom  11H    basis set group =>   3
Atom  12H    basis set group =>   3
Atom  13H    basis set group =>   3
Atom  14H    basis set group =>   3
Atom  15H    basis set group =>   3
Atom  16H    basis set group =>   3
---------------------------------
AUXILIARY/J BASIS SET INFORMATION
---------------------------------
There are 3 groups of distinct atoms

 Group   1 Type C   : 12s5p4d2f1g contracted to 6s4p3d1f1g pattern {711111/2111/211/2/1}
 Group   2 Type N   : 12s5p4d2f1g contracted to 6s4p3d1f1g pattern {711111/2111/211/2/1}
 Group   3 Type H   : 5s2p1d contracted to 3s1p1d pattern {311/2/1}

Atom   0C    basis set group =>   1
Atom   1C    basis set group =>   1
Atom   2C    basis set group =>   1
Atom   3C    basis set group =>   1
Atom   4C    basis set group =>   1
Atom   5N    basis set group =>   2
Atom   6C    basis set group =>   1
Atom   7C    basis set group =>   1
Atom   8C    basis set group =>   1
Atom   9C    basis set group =>   1
Atom  10H    basis set group =>   3
Atom  11H    basis set group =>   3
Atom  12H    basis set group =>   3
Atom  13H    basis set group =>   3
Atom  14H    basis set group =>   3
Atom  15H    basis set group =>   3
Atom  16H    basis set group =>   3


           ************************************************************
           *        Program running with 4 parallel MPI-processes     *
           *              working on a common directory               *
           ************************************************************
------------------------------------------------------------------------------
                             ORCA STARTUP CALCULATIONS
                           -- RI-GTO INTEGRALS CHOSEN --
------------------------------------------------------------------------------
------------------------------------------------------------------------------
                   ___                                                        
                  /   \      - P O W E R E D   B Y -                         
                 /     \                                                     
                 |  |  |   _    _      __       _____    __    __             
                 |  |  |  | |  | |    /  \     |  _  \  |  |  /  |          
                  \  \/   | |  | |   /    \    | | | |  |  | /  /          
                 / \  \   | |__| |  /  /\  \   | |_| |  |  |/  /          
                |  |  |   |  __  | /  /__\  \  |    /   |      \           
                |  |  |   | |  | | |   __   |  |    \   |  |\   \          
                \     /   | |  | | |  |  |  |  | |\  \  |  | \   \       
                 \___/    |_|  |_| |__|  |__|  |_| \__\ |__|  \__/        
                                                                              
                      - O R C A' S   B I G   F R I E N D -                    
                                      &                                       
                       - I N T E G R A L  F E E D E R -                       
                                                                              
 v1 FN, 2020, v2 2021, v3 2022-2024                                           
------------------------------------------------------------------------------


----------------------
SHARK INTEGRAL PACKAGE
----------------------

Number of atoms                             ...     17
Number of basis functions                   ...    681
Number of shells                            ...    263
Maximum angular momentum                    ...      3
Integral batch strategy                     ... SHARK/LIBINT Hybrid
RI-J (if used) integral strategy            ... SPLIT-RIJ (Revised 2003 algorithm where possible)
Printlevel                                  ...      1
Contraction scheme used                     ... PARTIAL GENERAL contraction
Prescreening option                         ... SCHWARTZ
   Thresh                                   ... 2.500e-11
   Tcut                                     ... 2.500e-12
   Tpresel                                  ... 2.500e-12 
Coulomb Range Separation                    ... NOT USED
Exchange Range Separation                   ... NOT USED
Multipole approximations                    ... NOT USED
Finite Nucleus Model                        ... NOT USED
CABS basis                                  ... NOT available
Auxiliary Coulomb fitting basis             ... AVAILABLE
   # of basis functions in Aux-J            ...    567
   # of shells in Aux-J                     ...    185
   Maximum angular momentum in Aux-J        ...      4
Auxiliary J/K fitting basis                 ... NOT available
Auxiliary Correlation fitting basis         ... NOT available
Auxiliary 'external' fitting basis          ... NOT available

Checking pre-screening integrals            ... done (  0.0 sec) Dimension = 263
Save PGC pre-screening integrals            ... done (  0.0 sec) Dimension = 263
Calculate PGC overlap integrals             ... done (  0.1 sec) Dimension = 203
Calculating pre-screening integrals (ORCA)  ... done (  0.2 sec) Dimension = 203
Check shell pair data                       ... done (  0.0 sec)
Shell pair information
Shell pair cut-off parameter TPreSel        ...   2.5e-12
Total number of shell pairs                 ...     34716
Shell pairs after pre-screening             ...     29323
Total number of primitive shell pairs       ...     44304
Primitive shell pairs kept                  ...     34942
          la=0 lb=0:   6635 shell pairs
          la=1 lb=0:   7373 shell pairs
          la=1 lb=1:   1793 shell pairs
          la=2 lb=0:   5270 shell pairs
          la=2 lb=1:   2529 shell pairs
          la=2 lb=2:    935 shell pairs
          la=3 lb=0:   2538 shell pairs
          la=3 lb=1:   1185 shell pairs
          la=3 lb=2:    855 shell pairs
          la=3 lb=3:    210 shell pairs

Calculating one electron integrals          ... done (  0.1 sec)
Calculating RI/J V-Matrix + Cholesky decomp.... done (  0.1 sec)
Calculating Nuclear repulsion               ... done (  0.0 sec) ENN=    461.150510663416 Eh

Diagonalization of the overlap matrix:
Smallest eigenvalue                        ... 5.370e-07
Time for diagonalization                   ...    0.063 sec
Threshold for overlap eigenvalues          ... 1.000e-07
Number of eigenvalues below threshold      ... 0

IMPORTANT:
Smallest eigenvalue of S below the DiffSThresh (1.000e-06) while
Thresh>1e-12 and/or TCut>1e-13! In order to avoid SCF convergence issues,
Thresh will be set to at least 1e-12 and TCut to at least 1e-13.
This can be turned off by adding %SCF DiffSThresh -1 END to the input.

Time for construction of square roots      ...    0.048 sec
Total time needed                          ...    0.136 sec

-------------------
DFT GRID GENERATION
-------------------

General Integration Accuracy     IntAcc      ... 4.388
Radial Grid Type                 RadialGrid  ... OptM3 with GC (2021)
Angular Grid (max. ang.)         AngularGrid ... 4 (Lebedev-302)
Angular grid pruning method      GridPruning ... 4 (adaptive)
Weight generation scheme         WeightScheme... mBecke (2022)
Basis function cutoff            BFCut       ... 1.0000e-11
Integration weight cutoff        WCut        ... 1.0000e-14
Partially contracted basis set               ... off
Rotationally invariant grid construction     ... off
Angular grids for H and He will be reduced by one unit
Diffuse basis detected: some atoms will have their outermost
                        angular grid increased by 1.

Total number of grid points                  ...    86422
Total number of batches                      ...     1359
Average number of points per batch           ...       63
Average number of grid points per atom       ...     5084

---------------------
SHARK GRID GENERATION
---------------------

General Integration Accuracy     IntAcc      ... 4.388
Radial Grid Type                 RadialGrid  ... OptM3 with GC (2021)
Angular Grid (max. ang.)         AngularGrid ... 4 (Lebedev-302)
Angular grid pruning method      GridPruning ... 4 (adaptive)
Weight generation scheme         WeightScheme... mBecke (2022)
Basis function cutoff            BFCut       ... 1.0000e-11
Integration weight cutoff        WCut        ... 1.0000e-14
Partially contracted basis set               ... off
Rotationally invariant grid construction     ... off
Angular grids for H and He will be reduced by one unit
Diffuse basis detected: some atoms will have their outermost
                        angular grid increased by 1.
Steep s-basis detected: some atoms will have their radial
                        grid points doubled.

Total number of grid points                  ...   149392
Total number of batches                      ...     2344
Average number of points per batch           ...       63
Average number of grid points per atom       ...     8788

--------------------
COSX GRID GENERATION
--------------------

GRIDX 1
-------
General Integration Accuracy     IntAcc      ... 3.816
Radial Grid Type                 RadialGrid  ... OptM3 with GC (2021)
Angular Grid (max. ang.)         AngularGrid ... 1 (Lebedev-50)
Angular grid pruning method      GridPruning ... 4 (adaptive)
Weight generation scheme         WeightScheme... mBecke (2022)
Basis function cutoff            BFCut       ... 1.0000e-11
Integration weight cutoff        WCut        ... 1.0000e-14
Partially contracted basis set               ... on
Rotationally invariant grid construction     ... off
Angular grids for H and He will be reduced by one unit
Diffuse basis detected: some atoms will have their outermost
                        angular grid increased by 1.

Total number of grid points                  ...    10865
Total number of batches                      ...       92
Average number of points per batch           ...      118
Average number of grid points per atom       ...      639
UseSFitting                                  ... on

GRIDX 2
-------
General Integration Accuracy     IntAcc      ... 4.020
Radial Grid Type                 RadialGrid  ... OptM3 with GC (2021)
Angular Grid (max. ang.)         AngularGrid ... 2 (Lebedev-110)
Angular grid pruning method      GridPruning ... 4 (adaptive)
Weight generation scheme         WeightScheme... mBecke (2022)
Basis function cutoff            BFCut       ... 1.0000e-11
Integration weight cutoff        WCut        ... 1.0000e-14
Partially contracted basis set               ... on
Rotationally invariant grid construction     ... off
Angular grids for H and He will be reduced by one unit
Diffuse basis detected: some atoms will have their outermost
                        angular grid increased by 1.

Total number of grid points                  ...    26739
Total number of batches                      ...      221
Average number of points per batch           ...      120
Average number of grid points per atom       ...     1573
UseSFitting                                  ... on

GRIDX 3
-------
General Integration Accuracy     IntAcc      ... 4.338
Radial Grid Type                 RadialGrid  ... OptM3 with GC (2021)
Angular Grid (max. ang.)         AngularGrid ... 3 (Lebedev-194)
Angular grid pruning method      GridPruning ... 4 (adaptive)
Weight generation scheme         WeightScheme... mBecke (2022)
Basis function cutoff            BFCut       ... 1.0000e-11
Integration weight cutoff        WCut        ... 1.0000e-14
Partially contracted basis set               ... on
Rotationally invariant grid construction     ... off
Angular grids for H and He will be reduced by one unit
Diffuse basis detected: some atoms will have their outermost
                        angular grid increased by 1.

Total number of grid points                  ...    59306
Total number of batches                      ...      472
Average number of points per batch           ...      125
Average number of grid points per atom       ...     3489
UseSFitting                                  ... on
Initializing property integral containers    ... done (  0.1 sec)

SHARK setup successfully completed in   7.1 seconds

Maximum memory used throughout the entire STARTUP-calculation: 75.3 MB


           ************************************************************
           *        Program running with 4 parallel MPI-processes     *
           *              working on a common directory               *
           ************************************************************
-------------------------------------------------------------------------------
                                 ORCA GUESS
                   Start orbitals & Density for SCF / CASSCF
-------------------------------------------------------------------------------

------------
SCF SETTINGS
------------
Hamiltonian:
 Density Functional     Method          .... DFT(GTOs)
 Exchange Functional    Exchange        .... PBE
   PBE kappa parameter   XKappa         ....  0.804000
   PBE mue parameter    XMuePBE         ....  0.219520
 Correlation Functional Correlation     .... PBE
   PBE beta parameter  CBetaPBE         ....  0.066725
 LDA part of GGA corr.  LDAOpt          .... PW91-LDA
 Gradients option       PostSCFGGA      .... off
 Hybrid DFT is turned on
   Fraction HF Exchange ScalHFX         ....  0.250000
   Scaling of DF-GGA-X  ScalDFX         ....  0.750000
   Scaling of DF-GGA-C  ScalDFC         ....  1.000000
   Scaling of DF-LDA-C  ScalLDAC        ....  1.000000
   Perturbative correction              ....  0.000000
   NL short-range parameter             ....  6.900000
 RI-approximation to the Coulomb term is turned on
   Number of AuxJ basis functions       .... 567
   RIJ-COSX (HFX calculated with COS-X)).... on


General Settings:
 Integral files         IntName         .... cs_rporg_102_ox_solv_04
 Hartree-Fock type      HFTyp           .... UHF
 Total Charge           Charge          ....    1
 Multiplicity           Mult            ....    2
 Number of Electrons    NEL             ....   67
 Basis Dimension        Dim             ....  621
 Nuclear Repulsion      ENuc            ....    461.1505106634 Eh

Convergence Acceleration:
 AO-DIIS                CNVDIIS         .... on
   Start iteration      DIISMaxIt       ....     0
   Startup error        DIISStart       ....  0.200000
   # of expansion vecs  DIISMaxEq       ....     5
   Bias factor          DIISBfac        ....   1.050
   Max. coefficient     DIISMaxC        ....  10.000
 MO-DIIS                CNVKDIIS        .... off
 Trust-Rad. Augm. Hess. CNVTRAH         .... auto
   Auto Start mean grad. ratio tolernc. ....  1.125000
   Auto Start start iteration           ....    50
   Auto Start num. interpolation iter.  ....    10
   Max. Number of Micro iterations      ....    24
   Max. Number of Macro iterations      .... Maxiter - #DIIS iter
   Number of Davidson start vectors     ....     2
   Converg. threshold    (grad. norm)   ....   1.000e-05
   Grad. Scal. Fac. for Micro threshold ....   0.100
   Minimum threshold for Micro iter.    ....   1.000e-02
   NR start threshold (gradient norm)   ....   1.000e-04
   Initial trust radius                 ....   0.400
   Minimum AH scaling param. (alpha)    ....   1.000
   Maximum AH scaling param. (alpha)    .... 1000.000
   Quad. conv. algorithm                .... NR
   White noise on init. David. guess    .... on
   Maximum white noise                  ....   0.010
   Pseudo random numbers                .... off
   Inactive MOs                         .... canonical
   Orbital update algorithm             .... Taylor
   Preconditioner                       .... Diag
   Full preconditioner red. dimension   ....   250
 SOSCF                  CNVSOSCF        .... on
   Start iteration      SOSCFMaxIt      ....   150
   Startup grad/error   SOSCFStart      ....  0.001000
   Hessian update       SOSCFHessUp     .... L-BFGS
 Level Shifting         CNVShift        .... on
   Level shift para.    LevelShift      ....    0.2500
   Turn off err/grad.   ShiftErr        ....    0.0000
 Zerner damping         CNVZerner       .... off
 Static damping         CNVDamp         .... on
   Fraction old density DampFac         ....    0.8500
   Max. Damping (<1)    DampMax         ....    0.9800
   Min. Damping (>=0)   DampMin         ....    0.0000
   Turn off err/grad.   DampErr         ....    0.0300

SCF Procedure:
 Maximum # iterations   MaxIter         ....  1500
 SCF integral mode      SCFMode         .... Direct
   Integral package                     .... SHARK and LIBINT hybrid scheme
 Reset frequency        DirectResetFreq ....    20
 Integral Threshold     Thresh          ....  1.000e-12 Eh
 Primitive CutOff       TCut            ....  1.000e-13 Eh

Convergence Tolerance:
 Convergence Check Mode ConvCheckMode   .... Total+1el-Energy
 Convergence forced     ConvForced      .... 0
 Energy Change          TolE            ....  1.000e-08 Eh
 1-El. energy change                    ....  1.000e-05 Eh
 Orbital Gradient       TolG            ....  1.000e-05
 Orbital Rotation angle TolX            ....  1.000e-05
 DIIS Error             TolErr          ....  5.000e-07

------------------------------
INITIAL GUESS: MODEL POTENTIAL
------------------------------
Loading Hartree-Fock densities                     ... done
Calculating cut-offs                               ... done
Initializing the effective Hamiltonian             ... done
Setting up the integral package (SHARK)            ... done
Starting the Coulomb interaction                   ... done (   0.5 sec)
Making the grid                                    ... done (   0.4 sec)
Mapping shells                                     ... done
Starting the XC term evaluation                    ... done (   0.7 sec)
  promolecular density results
     # of electrons  =     67.993095414
     EX              =    -54.595035370
     EC              =     -2.257407876
     EX+EC           =    -56.852443245
Transforming the Hamiltonian                       ... done (   0.0 sec)
Diagonalizing the Hamiltonian                      ... done (   0.1 sec)
Back transforming the eigenvectors                 ... done (   0.1 sec)
Now organizing SCF variables                       ... done
                      ------------------
                      INITIAL GUESS DONE (   2.1 sec)
                      ------------------
             **** ENERGY FILE WAS UPDATED (cs_rporg_102_ox_solv_04.en.tmp) ****
Finished Guess after   3.1 sec
Maximum memory used throughout the entire GUESS-calculation: 53.9 MB


           ************************************************************
           *        Program running with 4 parallel MPI-processes     *
           *              working on a common directory               *
           ************************************************************

-------------------------------------------------------------------------------------------
                                      ORCA LEAN-SCF
                              memory conserving SCF solver
-------------------------------------------------------------------------------------------

--------------------
CPCM SOLVATION MODEL
--------------------
CPCM parameters:
  Epsilon                                         ...      35.6880
  Refrac                                          ...       1.3442
  Rsolv                                           ...       2.1900
  Surface type                                    ...    GEPOL SES
  Discretization scheme                           ... Constant num. charges
  Epsilon function type                           ...         CPCM
Solvent:                                          ... ACETONITRILE
SMD-CDS solvent descriptors:
  Soln                                            ...       1.3442
  Soln25                                          ...       1.3416
  Sola                                            ...       0.0700
  Solb                                            ...       0.3200
  Solg                                            ...      41.2500
  Solc                                            ...       0.0000
  Solh                                            ...       0.0000
Radii:
  Scheme                                          ... Element-dependent radii
  Radius for C  used is    3.4960 Bohr (=   1.8500 Ang.)
  Radius for N  used is    3.5716 Bohr (=   1.8900 Ang.)
  Radius for H  used is    2.2677 Bohr (=   1.2000 Ang.)
Calculating surface                               ...        done! (  0.0s)
Cavity surface points                             ...          546
Cavity Volume                                     ...     968.2874
Cavity Surface-area                               ...     557.1578
Calculating surface distance matrix               ...        done! (  0.0s)
Performing Cholesky decomposition & store         ...        done! (  0.0s)
Overall time for CPCM initialization              ...                 0.1s

----------------------------------------D-I-I-S--------------------------------------------
Iteration    Energy (Eh)           Delta-E    RMSDP     MaxDP     DIISErr   Damp  Time(sec)
-------------------------------------------------------------------------------------------
               ***  Starting incremental Fock matrix formation  ***
    1    -401.2590921359992535     0.00e+00  5.30e-04  3.96e-02  8.25e-02  0.850  23.6
Warning: op=1 Small HOMO/LUMO gap (   0.063) - skipping pre-diagonalization
         Will do a full diagonalization
    2    -401.2827300339050680    -2.36e-02  5.16e-04  3.62e-02  6.27e-02  0.850  14.3
                               ***Turning on AO-DIIS***
    3    -401.2997161726027571    -1.70e-02  3.91e-04  2.87e-02  4.43e-02  0.850  13.5
    4    -401.3115040927328891    -1.18e-02  3.16e-04  2.36e-02  3.68e-02  0.850  12.3
    5    -401.3204110374530273    -8.91e-03  2.64e-04  1.96e-02  3.19e-02  0.850  12.5
    6    -401.3276052307695636    -7.19e-03  2.22e-04  1.64e-02  2.75e-02  0.850  12.0
    7    -401.3335959977350740    -5.99e-03  1.26e-03  9.15e-02  2.33e-02  0.000  11.9
    8    -401.3643265411715220    -3.07e-02  5.40e-05  5.21e-03  3.90e-03  0.000  12.5
    9    -401.3644237165567574    -9.72e-05  1.97e-05  1.46e-03  2.59e-03  0.000  12.0
                              *** Initializing SOSCF ***
---------------------------------------S-O-S-C-F--------------------------------------
Iteration    Energy (Eh)           Delta-E    RMSDP     MaxDP     MaxGrad    Time(sec)
--------------------------------------------------------------------------------------
   10    -401.3644938842368219    -7.02e-05  1.64e-05  1.27e-03  7.72e-04    11.8
               *** Restarting incremental Fock matrix formation ***
   11    -401.3644946252398995    -7.41e-07  3.54e-04  3.22e-02  8.51e-04    21.0
   12    -401.3645116876143675    -1.71e-05  4.05e-04  3.52e-02  4.88e-04    18.7
   13    -401.3645211101446648    -9.42e-06  3.60e-04  3.12e-02  3.76e-04    18.9
   14    -401.3645243162025054    -3.21e-06  1.35e-04  1.21e-02  1.19e-04    18.6
   15    -401.3645249928772500    -6.77e-07  4.82e-05  4.44e-03  8.27e-05    18.2
   16    -401.3645256713832623    -6.79e-07  5.50e-05  4.99e-03  4.65e-05    16.9
   17    -401.3645258202978994    -1.49e-07  5.01e-06  4.51e-04  3.94e-05    16.4
   18    -401.3645258615155171    -4.12e-08  1.16e-05  1.05e-03  2.34e-05    15.5
   19    -401.3645258876609887    -2.61e-08  6.81e-07  4.66e-05  4.35e-06    15.6
   20    -401.3645258897626036    -2.10e-09  1.12e-06  1.08e-04  5.09e-06    14.4
                 **** Energy Check signals convergence ****

               *****************************************************
               *                     SUCCESS                       *
               *           SCF CONVERGED AFTER  20 CYCLES          *
               *****************************************************

Recomputing exchange energy using gridx3       ... done (   27.294 sec)
Old exchange energy                            :    -13.856412624 Eh
New exchange energy                            :    -13.856478374 Eh
Exchange energy change after final integration :     -0.000065750 Eh
Total energy after final integration           :   -401.364591639 Eh

SMD CDS free energy correction energy :                -2.11658     Kcal/mol
Total Energy after SMD CDS correction =              -401.367964620 Eh
             **** ENERGY FILE WAS UPDATED (cs_rporg_102_ox_solv_04.en.tmp) ****

----------------
TOTAL SCF ENERGY
----------------

Total Energy       :       -401.36796461961319 Eh          -10921.77757 eV

Components:
Nuclear Repulsion  :        461.15051066341562 Eh           12548.54335 eV
Electronic Energy  :       -862.42474067691990 Eh          -23467.77027 eV
One Electron Energy:      -1442.41278989893408 Eh          -39250.04745 eV
Two Electron Energy:        579.98804922201418 Eh           15782.27717 eV
CPCM Dielectric    :         -0.09029587625835 Eh              -2.45708 eV
SMD CDS (Gcds)     :         -0.00337298023121 Eh              -0.09178 eV

Virial components:
Potential Energy   :       -800.06743862534790 Eh          -21770.94182 eV
Kinetic Energy     :        398.69947400573471 Eh           10849.16425 eV
Virial Ratio       :          2.00669298754540

DFT components:
N(Alpha)           :       34.000015179574 electrons
N(Beta)            :       33.000022266959 electrons
N(Total)           :       67.000037446533 electrons
E(X)               :      -41.466045599206 Eh       
E(C)               :       -2.221902253818 Eh       
E(XC)              :      -43.687947853024 Eh       

CPCM Solvation Model Properties:
Surface-charge          :         -1.03532003487092
Corrected charge        :         -1.00000000000000
Outlying charge corr.   :          0.00009284042219 Eh               0.00253 eV
Free-energy (cav+disp)  :         -0.00337298023121 Eh              -0.09178 eV

---------------
SCF CONVERGENCE
---------------

  Last Energy change         ...    2.1016e-09  Tolerance :   1.0000e-08
  Last MAX-Density change    ...    1.0764e-04  Tolerance :   1.0000e-07
  Last RMS-Density change    ...    1.1249e-06  Tolerance :   5.0000e-09
  Last DIIS Error            ...    7.7180e-04  Tolerance :   5.0000e-07
  Last Orbital Gradient      ...    5.0925e-06  Tolerance :   1.0000e-05
  Last Orbital Rotation      ...    6.1843e-05  Tolerance :   1.0000e-05


----------------------
UHF SPIN CONTAMINATION
----------------------

Warning: in a DFT calculation there is little theoretical justification to 
         calculate <S**2> as in Hartree-Fock theory. We will do it anyways
         but you should keep in mind that the values have only limited relevance

Expectation value of <S**2>     :     0.769699
Ideal value S*(S+1) for S=0.5   :     0.750000
Deviation                       :     0.019699

----------------
ORBITAL ENERGIES
----------------
                 SPIN UP ORBITALS
  NO   OCC          E(Eh)            E(eV) 
   0   1.0000     -14.432864      -392.7382 
   1   1.0000     -10.313231      -280.6373 
   2   1.0000     -10.310225      -280.5555 
   3   1.0000     -10.308285      -280.5027 
   4   1.0000     -10.301174      -280.3092 
   5   1.0000     -10.293334      -280.0959 
   6   1.0000     -10.289432      -279.9897 
   7   1.0000     -10.286340      -279.9056 
   8   1.0000     -10.284829      -279.8644 
   9   1.0000     -10.275091      -279.5995 
  10   1.0000      -1.021665       -27.8009 
  11   1.0000      -0.927281       -25.2326 
  12   1.0000      -0.875442       -23.8220 
  13   1.0000      -0.820510       -22.3272 
  14   1.0000      -0.812396       -22.1064 
  15   1.0000      -0.707844       -19.2614 
  16   1.0000      -0.690364       -18.7857 
  17   1.0000      -0.664971       -18.0948 
  18   1.0000      -0.583881       -15.8882 
  19   1.0000      -0.569279       -15.4909 
  20   1.0000      -0.560730       -15.2582 
  21   1.0000      -0.506662       -13.7870 
  22   1.0000      -0.494138       -13.4462 
  23   1.0000      -0.483026       -13.1438 
  24   1.0000      -0.478202       -13.0125 
  25   1.0000      -0.452795       -12.3212 
  26   1.0000      -0.448041       -12.1918 
  27   1.0000      -0.414002       -11.2656 
  28   1.0000      -0.409136       -11.1331 
  29   1.0000      -0.398699       -10.8492 
  30   1.0000      -0.370832       -10.0909 
  31   1.0000      -0.314388        -8.5549 
  32   1.0000      -0.305693        -8.3183 
  33   1.0000      -0.301735        -8.2106 
  34   0.0000      -0.112453        -3.0600 
  35   0.0000      -0.054643        -1.4869 
  36   0.0000      -0.037161        -1.0112 
  37   0.0000      -0.001302        -0.0354 
  38   0.0000       0.010338         0.2813 
  39   0.0000       0.013403         0.3647 
  40   0.0000       0.029143         0.7930 
  41   0.0000       0.030144         0.8203 
  42   0.0000       0.034641         0.9426 
  43   0.0000       0.039616         1.0780 
  44   0.0000       0.042121         1.1462 

                 SPIN DOWN ORBITALS
  NO   OCC          E(Eh)            E(eV) 
   0   1.0000     -14.429861      -392.6565 
   1   1.0000     -10.311008      -280.5768 
   2   1.0000     -10.307677      -280.4862 
   3   1.0000     -10.302113      -280.3348 
   4   1.0000     -10.301452      -280.3168 
   5   1.0000     -10.291460      -280.0449 
   6   1.0000     -10.288140      -279.9545 
   7   1.0000     -10.287287      -279.9313 
   8   1.0000     -10.285004      -279.8692 
   9   1.0000     -10.274232      -279.5761 
  10   1.0000      -1.016676       -27.6651 
  11   1.0000      -0.918308       -24.9884 
  12   1.0000      -0.869163       -23.6511 
  13   1.0000      -0.818943       -22.2846 
  14   1.0000      -0.797244       -21.6941 
  15   1.0000      -0.703816       -19.1518 
  16   1.0000      -0.686476       -18.6800 
  17   1.0000      -0.659499       -17.9459 
  18   1.0000      -0.580004       -15.7827 
  19   1.0000      -0.566177       -15.4064 
  20   1.0000      -0.558425       -15.1955 
  21   1.0000      -0.506112       -13.7720 
  22   1.0000      -0.490604       -13.3500 
  23   1.0000      -0.479974       -13.0608 
  24   1.0000      -0.464178       -12.6309 
  25   1.0000      -0.450341       -12.2544 
  26   1.0000      -0.446894       -12.1606 
  27   1.0000      -0.412297       -11.2192 
  28   1.0000      -0.396284       -10.7834 
  29   1.0000      -0.383825       -10.4444 
  30   1.0000      -0.344102        -9.3635 
  31   1.0000      -0.311576        -8.4784 
  32   1.0000      -0.305325        -8.3083 
  33   0.0000      -0.211170        -5.7462 
  34   0.0000      -0.085296        -2.3210 
  35   0.0000      -0.045606        -1.2410 
  36   0.0000      -0.016909        -0.4601 
  37   0.0000      -0.000500        -0.0136 
  38   0.0000       0.010614         0.2888 
  39   0.0000       0.013984         0.3805 
  40   0.0000       0.029478         0.8021 
  41   0.0000       0.030507         0.8301 
  42   0.0000       0.037863         1.0303 
  43   0.0000       0.040782         1.1097 
*Only the first 10 virtual orbitals were printed.

                    ********************************
                    * MULLIKEN POPULATION ANALYSIS *
                    ********************************

--------------------------------------------
MULLIKEN ATOMIC CHARGES AND SPIN POPULATIONS
--------------------------------------------
   0 C :   -0.807214    0.335345
   1 C :   -0.508421    0.073227
   2 C :   -0.278009   -0.008674
   3 C :   -0.845741    0.365813
   4 C :    0.603182   -0.007199
   5 N :   -0.669363    0.137356
   6 C :   -0.417903   -0.030609
   7 C :   -0.347849    0.051530
   8 C :   -0.865942    0.122305
   9 C :    1.319717   -0.041037
  10 H :    0.605170   -0.001475
  11 H :    0.385360    0.000548
  12 H :    0.564406    0.005091
  13 H :    0.608718   -0.001438
  14 H :    0.607150   -0.001501
  15 H :    0.740414    0.002591
  16 H :    0.306324   -0.001873
Sum of atomic charges         :    1.0000000
Sum of atomic spin populations:    1.0000000

-----------------------------------------------------
MULLIKEN REDUCED ORBITAL CHARGES AND SPIN POPULATIONS
-----------------------------------------------------
CHARGE
  0 C s       :     3.991122  s :     3.991122
      pz      :     0.764479  p :     2.610299
      px      :     0.933085
      py      :     0.912734
      dz2     :    -0.021281  d :     0.218130
      dxz     :     0.015103
      dyz     :     0.009977
      dx2y2   :     0.252828
      dxy     :    -0.038496
      f0      :     0.001915  f :    -0.012337
      f+1     :     0.000788
      f-1     :     0.000504
      f+2     :     0.000467
      f-2     :     0.001654
      f+3     :    -0.019227
      f-3     :     0.001561

  1 C s       :     3.556002  s :     3.556002
      pz      :     0.857035  p :     2.758081
      px      :     1.018881
      py      :     0.882165
      dz2     :    -0.000562  d :     0.196940
      dxz     :     0.015715
      dyz     :     0.017310
      dx2y2   :     0.100812
      dxy     :     0.063664
      f0      :     0.001610  f :    -0.002602
      f+1     :     0.000930
      f-1     :     0.000834
      f+2     :     0.000848
      f-2     :     0.000517
      f+3     :    -0.008041
      f-3     :     0.000700

  2 C s       :     3.519503  s :     3.519503
      pz      :     0.874254  p :     2.742543
      px      :     0.936251
      py      :     0.932038
      dz2     :    -0.020420  d :     0.016001
      dxz     :     0.005516
      dyz     :     0.018577
      dx2y2   :     0.012095
      dxy     :     0.000234
      f0      :     0.001188  f :    -0.000038
      f+1     :     0.001009
      f-1     :     0.000994
      f+2     :     0.000755
      f-2     :     0.000483
      f+3     :    -0.003199
      f-3     :    -0.001267

  3 C s       :     3.917249  s :     3.917249
      pz      :     0.735314  p :     2.628847
      px      :     0.927325
      py      :     0.966208
      dz2     :     0.013229  d :     0.302964
      dxz     :     0.017273
      dyz     :     0.015696
      dx2y2   :     0.245428
      dxy     :     0.011338
      f0      :     0.001308  f :    -0.003319
      f+1     :     0.000263
      f-1     :     0.000823
      f+2     :    -0.001229
      f-2     :     0.002450
      f+3     :    -0.012003
      f-3     :     0.005070

  4 C s       :     3.358541  s :     3.358541
      pz      :     0.876339  p :     2.067801
      px      :     0.472242
      py      :     0.719219
      dz2     :    -0.036098  d :    -0.012115
      dxz     :     0.024577
      dyz     :    -0.014612
      dx2y2   :    -0.012468
      dxy     :     0.026486
      f0      :     0.002427  f :    -0.017408
      f+1     :    -0.000455
      f-1     :     0.000736
      f+2     :    -0.002119
      f-2     :     0.003003
      f+3     :    -0.016933
      f-3     :    -0.004068

  5 N s       :     4.105033  s :     4.105033
      pz      :     1.089453  p :     3.397813
      px      :     0.850793
      py      :     1.457566
      dz2     :    -0.007595  d :     0.165120
      dxz     :     0.044055
      dyz     :     0.019150
      dx2y2   :     0.068673
      dxy     :     0.040836
      f0      :     0.001078  f :     0.001397
      f+1     :    -0.000365
      f-1     :    -0.000261
      f+2     :    -0.000632
      f-2     :     0.002743
      f+3     :    -0.000670
      f-3     :    -0.000495

  6 C s       :     3.684634  s :     3.684634
      pz      :     0.805672  p :     2.644821
      px      :     0.997095
      py      :     0.842053
      dz2     :    -0.000038  d :     0.043800
      dxz     :     0.013655
      dyz     :     0.020294
      dx2y2   :    -0.006856
      dxy     :     0.016746
      f0      :     0.002160  f :     0.044648
      f+1     :     0.000836
      f-1     :     0.001185
      f+2     :     0.002673
      f-2     :     0.003172
      f+3     :     0.030376
      f-3     :     0.004246

  7 C s       :     3.442940  s :     3.442940
      pz      :     0.904140  p :     2.915287
      px      :     1.000539
      py      :     1.010608
      dz2     :    -0.008408  d :    -0.009044
      dxz     :     0.020459
      dyz     :     0.006547
      dx2y2   :     0.070806
      dxy     :    -0.098447
      f0      :     0.001678  f :    -0.001336
      f+1     :     0.001708
      f-1     :     0.000901
      f+2     :     0.000406
      f-2     :     0.001507
      f+3     :    -0.011589
      f-3     :     0.004053

  8 C s       :     3.930453  s :     3.930453
      pz      :     0.806911  p :     2.853474
      px      :     1.019615
      py      :     1.026948
      dz2     :     0.012967  d :     0.103380
      dxz     :    -0.016650
      dyz     :    -0.004257
      dx2y2   :     0.124294
      dxy     :    -0.012973
      f0      :     0.001199  f :    -0.021365
      f+1     :     0.000758
      f-1     :     0.000161
      f+2     :    -0.000512
      f-2     :     0.001721
      f+3     :    -0.027209
      f-3     :     0.002517

  9 C s       :     2.875349  s :     2.875349
      pz      :     0.969893  p :     1.821920
      px      :     0.011905
      py      :     0.840123
      dz2     :    -0.016938  d :     0.082765
      dxz     :    -0.045927
      dyz     :    -0.016607
      dx2y2   :     0.126272
      dxy     :     0.035965
      f0      :     0.003224  f :    -0.099752
      f+1     :    -0.003389
      f-1     :    -0.000316
      f+2     :    -0.002632
      f-2     :     0.000435
      f+3     :    -0.087890
      f-3     :    -0.009183

 10 H s       :     0.406610  s :     0.406610
      pz      :     0.006973  p :    -0.018684
      px      :     0.008174
      py      :    -0.033830
      dz2     :    -0.000222  d :     0.006903
      dxz     :     0.000411
      dyz     :     0.003563
      dx2y2   :     0.001408
      dxy     :     0.001743

 11 H s       :     0.580263  s :     0.580263
      pz      :     0.021242  p :     0.027302
      px      :     0.002993
      py      :     0.003067
      dz2     :    -0.000521  d :     0.007075
      dxz     :     0.003484
      dyz     :     0.001050
      dx2y2   :     0.001768
      dxy     :     0.001294

 12 H s       :     0.456694  s :     0.456694
      pz      :     0.007730  p :    -0.025835
      px      :    -0.029169
      py      :    -0.004396
      dz2     :    -0.001124  d :     0.004735
      dxz     :     0.002115
      dyz     :     0.001097
      dx2y2   :     0.002284
      dxy     :     0.000363

 13 H s       :     0.397163  s :     0.397163
      pz      :     0.013722  p :    -0.012195
      px      :     0.003813
      py      :    -0.029730
      dz2     :     0.000107  d :     0.006314
      dxz     :     0.000349
      dyz     :     0.003686
      dx2y2   :     0.000590
      dxy     :     0.001582

 14 H s       :     0.387407  s :     0.387407
      pz      :     0.012563  p :    -0.001940
      px      :    -0.013687
      py      :    -0.000816
      dz2     :    -0.000263  d :     0.007383
      dxz     :     0.003235
      dyz     :     0.001290
      dx2y2   :     0.002313
      dxy     :     0.000808

 15 H s       :     0.276281  s :     0.276281
      pz      :     0.013657  p :    -0.023649
      px      :    -0.036946
      py      :    -0.000360
      dz2     :    -0.000103  d :     0.006954
      dxz     :     0.002949
      dyz     :     0.001211
      dx2y2   :     0.002202
      dxy     :     0.000694

 16 H s       :     0.650042  s :     0.650042
      pz      :     0.012729  p :     0.035999
      px      :    -0.005279
      py      :     0.028549
      dz2     :     0.000021  d :     0.007635
      dxz     :     0.000292
      dyz     :     0.003815
      dx2y2   :     0.000889
      dxy     :     0.002617


SPIN
  0 C s       :    -0.037225  s :    -0.037225
      pz      :     0.330357  p :     0.367285
      px      :     0.019103
      py      :     0.017825
      dz2     :    -0.001514  d :     0.006641
      dxz     :     0.001081
      dyz     :    -0.000457
      dx2y2   :     0.005336
      dxy     :     0.002196
      f0      :    -0.000623  f :    -0.001355
      f+1     :    -0.000310
      f-1     :    -0.000526
      f+2     :     0.000280
      f-2     :     0.000405
      f+3     :    -0.000273
      f-3     :    -0.000308

  1 C s       :    -0.005861  s :    -0.005861
      pz      :     0.079029  p :     0.065736
      px      :     0.000288
      py      :    -0.013582
      dz2     :    -0.000529  d :     0.014418
      dxz     :     0.003059
      dyz     :     0.009657
      dx2y2   :    -0.001410
      dxy     :     0.003640
      f0      :    -0.000304  f :    -0.001065
      f+1     :    -0.000062
      f-1     :    -0.000198
      f+2     :    -0.000208
      f-2     :    -0.000097
      f+3     :    -0.000063
      f-3     :    -0.000134

  2 C s       :     0.003223  s :     0.003223
      pz      :    -0.009033  p :    -0.025283
      px      :    -0.001255
      py      :    -0.014995
      dz2     :     0.000171  d :     0.014030
      dxz     :     0.002622
      dyz     :     0.009277
      dx2y2   :    -0.001380
      dxy     :     0.003340
      f0      :    -0.000187  f :    -0.000644
      f+1     :     0.000052
      f-1     :    -0.000114
      f+2     :     0.000164
      f-2     :    -0.000313
      f+3     :    -0.000124
      f-3     :    -0.000122

  3 C s       :    -0.039945  s :    -0.039945
      pz      :     0.364832  p :     0.403850
      px      :     0.022222
      py      :     0.016796
      dz2     :    -0.002254  d :     0.003007
      dxz     :     0.001798
      dyz     :     0.001081
      dx2y2   :     0.001491
      dxy     :     0.000892
      f0      :    -0.000585  f :    -0.001099
      f+1     :    -0.000333
      f-1     :    -0.000560
      f+2     :     0.000557
      f-2     :     0.000332
      f+3     :    -0.000221
      f-3     :    -0.000289

  4 C s       :     0.005147  s :     0.005147
      pz      :    -0.033981  p :    -0.018450
      px      :     0.015441
      py      :     0.000089
      dz2     :     0.001299  d :     0.005066
      dxz     :     0.003602
      dyz     :    -0.005269
      dx2y2   :     0.001997
      dxy     :     0.003437
      f0      :    -0.000206  f :     0.001039
      f+1     :     0.000085
      f-1     :     0.000098
      f+2     :    -0.000224
      f-2     :     0.001842
      f+3     :    -0.000785
      f-3     :     0.000228

  5 N s       :     0.001895  s :     0.001895
      pz      :     0.123073  p :     0.133277
      px      :     0.009082
      py      :     0.001122
      dz2     :    -0.000051  d :     0.002322
      dxz     :     0.001878
      dyz     :    -0.000150
      dx2y2   :    -0.000269
      dxy     :     0.000914
      f0      :    -0.000122  f :    -0.000139
      f+1     :    -0.000011
      f-1     :    -0.000045
      f+2     :     0.000066
      f-2     :     0.000017
      f+3     :    -0.000051
      f-3     :     0.000009

  6 C s       :    -0.010255  s :    -0.010255
      pz      :    -0.014680  p :    -0.024824
      px      :    -0.007316
      py      :    -0.002828
      dz2     :     0.000143  d :     0.003309
      dxz     :     0.001994
      dyz     :     0.002164
      dx2y2   :    -0.000834
      dxy     :    -0.000158
      f0      :     0.000110  f :     0.001161
      f+1     :     0.000059
      f-1     :    -0.000001
      f+2     :    -0.000235
      f-2     :     0.000647
      f+3     :     0.000487
      f-3     :     0.000094

  7 C s       :    -0.003370  s :    -0.003370
      pz      :     0.050854  p :     0.050768
      px      :     0.001982
      py      :    -0.002067
      dz2     :    -0.000238  d :     0.004135
      dxz     :     0.001021
      dyz     :     0.001983
      dx2y2   :    -0.000946
      dxy     :     0.002315
      f0      :    -0.000169  f :    -0.000003
      f+1     :    -0.000065
      f-1     :    -0.000101
      f+2     :    -0.000230
      f-2     :     0.000309
      f+3     :     0.000241
      f-3     :     0.000011

  8 C s       :    -0.009071  s :    -0.009071
      pz      :     0.113337  p :     0.129189
      px      :     0.009188
      py      :     0.006664
      dz2     :    -0.000857  d :     0.002611
      dxz     :     0.002751
      dyz     :     0.001504
      dx2y2   :    -0.000951
      dxy     :     0.000164
      f0      :    -0.000178  f :    -0.000424
      f+1     :    -0.000035
      f-1     :    -0.000158
      f+2     :    -0.000146
      f-2     :     0.000096
      f+3     :    -0.000068
      f-3     :     0.000065

  9 C s       :     0.019115  s :     0.019115
      pz      :    -0.052903  p :    -0.042837
      px      :     0.008607
      py      :     0.001458
      dz2     :     0.000963  d :    -0.018271
      dxz     :    -0.005931
      dyz     :    -0.004896
      dx2y2   :    -0.008771
      dxy     :     0.000364
      f0      :    -0.000126  f :     0.000957
      f+1     :     0.000212
      f-1     :     0.000172
      f+2     :    -0.000523
      f-2     :     0.000251
      f+3     :     0.000917
      f-3     :     0.000053

 10 H s       :    -0.005764  s :    -0.005764
      pz      :     0.002574  p :     0.003819
      px      :     0.000469
      py      :     0.000777
      dz2     :    -0.000011  d :     0.000469
      dxz     :     0.000014
      dyz     :     0.000339
      dx2y2   :     0.000037
      dxy     :     0.000089

 11 H s       :    -0.000931  s :    -0.000931
      pz      :     0.000937  p :     0.001283
      px      :     0.000246
      py      :     0.000100
      dz2     :     0.000007  d :     0.000196
      dxz     :     0.000196
      dyz     :    -0.000039
      dx2y2   :     0.000039
      dxy     :    -0.000006

 12 H s       :     0.004369  s :     0.004369
      pz      :    -0.000257  p :     0.001046
      px      :     0.001341
      py      :    -0.000039
      dz2     :     0.000013  d :    -0.000323
      dxz     :    -0.000126
      dyz     :    -0.000122
      dx2y2   :    -0.000035
      dxy     :    -0.000055

 13 H s       :    -0.013095  s :    -0.013095
      pz      :     0.007633  p :     0.009633
      px      :     0.000842
      py      :     0.001158
      dz2     :    -0.000003  d :     0.002023
      dxz     :     0.000050
      dyz     :     0.001592
      dx2y2   :     0.000099
      dxy     :     0.000285

 14 H s       :    -0.000817  s :    -0.000817
      pz      :    -0.001615  p :    -0.000564
      px      :     0.001243
      py      :    -0.000192
      dz2     :     0.000056  d :    -0.000120
      dxz     :     0.000013
      dyz     :    -0.000208
      dx2y2   :     0.000018
      dxy     :     0.000001

 15 H s       :    -0.000530  s :    -0.000530
      pz      :     0.000461  p :     0.002861
      px      :     0.002471
      py      :    -0.000072
      dz2     :     0.000042  d :     0.000261
      dxz     :     0.000312
      dyz     :    -0.000123
      dx2y2   :     0.000039
      dxy     :    -0.000009

 16 H s       :    -0.012025  s :    -0.012025
      pz      :     0.006742  p :     0.008409
      px      :     0.000469
      py      :     0.001198
      dz2     :     0.000026  d :     0.001743
      dxz     :     0.000026
      dyz     :     0.001347
      dx2y2   :     0.000073
      dxy     :     0.000271



                     *******************************
                     * LOEWDIN POPULATION ANALYSIS *
                     *******************************

-------------------------------------------
LOEWDIN ATOMIC CHARGES AND SPIN POPULATIONS
-------------------------------------------
   0 C :    0.326921    0.193703
   1 C :    0.295597    0.105098
   2 C :    0.288035    0.076235
   3 C :    0.314167    0.202516
   4 C :   -0.283813    0.048310
   5 N :    0.422499    0.089850
   6 C :    0.078561    0.023009
   7 C :    0.278010    0.048569
   8 C :    0.290367    0.066885
   9 C :   -0.082411    0.036579
  10 H :   -0.121974    0.011205
  11 H :   -0.142003    0.007057
  12 H :   -0.155245   -0.000711
  13 H :   -0.126491    0.040055
  14 H :   -0.135523    0.002379
  15 H :   -0.132687    0.012173
  16 H :   -0.114012    0.037087

----------------------------------------------------
LOEWDIN REDUCED ORBITAL CHARGES AND SPIN POPULATIONS
----------------------------------------------------
CHARGE
  0 C s       :     2.493050  s :     2.493050
      pz      :     0.473855  p :     2.177857
      px      :     0.853854
      py      :     0.850148
      dz2     :     0.067858  d :     0.674028
      dxz     :     0.123706
      dyz     :     0.035784
      dx2y2   :     0.269886
      dxy     :     0.176794
      f0      :     0.020971  f :     0.328145
      f+1     :     0.030814
      f-1     :     0.019468
      f+2     :     0.013711
      f-2     :     0.051858
      f+3     :     0.132582
      f-3     :     0.058741

  1 C s       :     2.495680  s :     2.495680
      pz      :     0.546455  p :     2.246537
      px      :     0.839112
      py      :     0.860971
      dz2     :     0.067508  d :     0.644254
      dxz     :     0.044813
      dyz     :     0.073764
      dx2y2   :     0.200559
      dxy     :     0.257609
      f0      :     0.020450  f :     0.317932
      f+1     :     0.022407
      f-1     :     0.028846
      f+2     :     0.034852
      f-2     :     0.017478
      f+3     :     0.138670
      f-3     :     0.055230

  2 C s       :     2.495705  s :     2.495705
      pz      :     0.558398  p :     2.258978
      px      :     0.841444
      py      :     0.859136
      dz2     :     0.067476  d :     0.640519
      dxz     :     0.045292
      dyz     :     0.069198
      dx2y2   :     0.194840
      dxy     :     0.263713
      f0      :     0.020582  f :     0.316763
      f+1     :     0.022724
      f-1     :     0.028397
      f+2     :     0.034720
      f-2     :     0.015935
      f+3     :     0.138596
      f-3     :     0.055809

  3 C s       :     2.500025  s :     2.500025
      pz      :     0.477002  p :     2.185741
      px      :     0.856167
      py      :     0.852572
      dz2     :     0.069113  d :     0.667956
      dxz     :     0.121341
      dyz     :     0.035547
      dx2y2   :     0.265393
      dxy     :     0.176562
      f0      :     0.021350  f :     0.332111
      f+1     :     0.032310
      f-1     :     0.019504
      f+2     :     0.014707
      f-2     :     0.051844
      f+3     :     0.133027
      f-3     :     0.059367

  4 C s       :     2.451467  s :     2.451467
      pz      :     0.587933  p :     2.239604
      px      :     0.813516
      py      :     0.838155
      dz2     :     0.097510  d :     1.014808
      dxz     :     0.130521
      dyz     :     0.125088
      dx2y2   :     0.305847
      dxy     :     0.355842
      f0      :     0.036848  f :     0.577934
      f+1     :     0.042443
      f-1     :     0.037429
      f+2     :     0.065992
      f-2     :     0.046433
      f+3     :     0.249687
      f-3     :     0.099102

  5 N s       :     2.779764  s :     2.779764
      pz      :     0.784498  p :     3.004575
      px      :     1.032493
      py      :     1.187584
      dz2     :     0.060308  d :     0.569972
      dxz     :     0.114084
      dyz     :     0.026946
      dx2y2   :     0.202199
      dxy     :     0.166435
      f0      :     0.014388  f :     0.223189
      f+1     :     0.021466
      f-1     :     0.010572
      f+2     :     0.006760
      f-2     :     0.038867
      f+3     :     0.094449
      f-3     :     0.036688

  6 C s       :     2.497128  s :     2.497128
      pz      :     0.545718  p :     2.233312
      px      :     0.821522
      py      :     0.866072
      dz2     :     0.074432  d :     0.787845
      dxz     :     0.068965
      dyz     :     0.095939
      dx2y2   :     0.226775
      dxy     :     0.321733
      f0      :     0.025984  f :     0.403154
      f+1     :     0.028822
      f-1     :     0.029732
      f+2     :     0.047653
      f-2     :     0.028806
      f+3     :     0.165247
      f-3     :     0.076910

  7 C s       :     2.497658  s :     2.497658
      pz      :     0.569365  p :     2.270935
      px      :     0.848184
      py      :     0.853386
      dz2     :     0.068617  d :     0.633779
      dxz     :     0.046533
      dyz     :     0.070868
      dx2y2   :     0.216227
      dxy     :     0.231533
      f0      :     0.020430  f :     0.319618
      f+1     :     0.022581
      f-1     :     0.029562
      f+2     :     0.034424
      f-2     :     0.022836
      f+3     :     0.132008
      f-3     :     0.057777

  8 C s       :     2.489612  s :     2.489612
      pz      :     0.517549  p :     2.214957
      px      :     0.851115
      py      :     0.846293
      dz2     :     0.067795  d :     0.669635
      dxz     :     0.117241
      dyz     :     0.034999
      dx2y2   :     0.270870
      dxy     :     0.178730
      f0      :     0.021347  f :     0.335429
      f+1     :     0.030718
      f-1     :     0.020172
      f+2     :     0.014405
      f-2     :     0.053212
      f+3     :     0.135461
      f-3     :     0.060115

  9 C s       :     2.453133  s :     2.453133
      pz      :     0.609180  p :     2.273609
      px      :     0.838091
      py      :     0.826338
      dz2     :     0.090407  d :     0.868504
      dxz     :     0.108043
      dyz     :     0.098280
      dx2y2   :     0.272541
      dxy     :     0.299233
      f0      :     0.031654  f :     0.487165
      f+1     :     0.037513
      f-1     :     0.035054
      f+2     :     0.065516
      f-2     :     0.028472
      f+3     :     0.209048
      f-3     :     0.079909

 10 H s       :     0.639011  s :     0.639011
      pz      :     0.061418  p :     0.279888
      px      :     0.073889
      py      :     0.144580
      dz2     :     0.022901  d :     0.203075
      dxz     :     0.003394
      dyz     :     0.050321
      dx2y2   :     0.046806
      dxy     :     0.079654

 11 H s       :     0.650651  s :     0.650651
      pz      :     0.070064  p :     0.286072
      px      :     0.129489
      py      :     0.086519
      dz2     :     0.022281  d :     0.205280
      dxz     :     0.045202
      dyz     :     0.012442
      dx2y2   :     0.067449
      dxy     :     0.057906

 12 H s       :     0.662310  s :     0.662310
      pz      :     0.065031  p :     0.285201
      px      :     0.124243
      py      :     0.095926
      dz2     :     0.024347  d :     0.207734
      dxz     :     0.039248
      dyz     :     0.018253
      dx2y2   :     0.074485
      dxy     :     0.051400

 13 H s       :     0.641647  s :     0.641647
      pz      :     0.056051  p :     0.281069
      px      :     0.078259
      py      :     0.146759
      dz2     :     0.023507  d :     0.203775
      dxz     :     0.004020
      dyz     :     0.045700
      dx2y2   :     0.049770
      dxy     :     0.080778

 14 H s       :     0.647038  s :     0.647038
      pz      :     0.067212  p :     0.283555
      px      :     0.124790
      py      :     0.091553
      dz2     :     0.022629  d :     0.204930
      dxz     :     0.039357
      dyz     :     0.017183
      dx2y2   :     0.072962
      dxy     :     0.052799

 15 H s       :     0.645954  s :     0.645954
      pz      :     0.065643  p :     0.282687
      px      :     0.126935
      py      :     0.090109
      dz2     :     0.022734  d :     0.204046
      dxz     :     0.039572
      dyz     :     0.015715
      dx2y2   :     0.070842
      dxy     :     0.055184

 16 H s       :     0.634983  s :     0.634983
      pz      :     0.055340  p :     0.277571
      px      :     0.075429
      py      :     0.146802
      dz2     :     0.023391  d :     0.201458
      dxz     :     0.003743
      dyz     :     0.045700
      dx2y2   :     0.047566
      dxy     :     0.081058


SPIN
  0 C s       :     0.005045  s :     0.005045
      pz      :     0.179720  p :     0.185914
      px      :     0.002797
      py      :     0.003398
      dz2     :    -0.001511  d :     0.004359
      dxz     :     0.007897
      dyz     :    -0.001208
      dx2y2   :    -0.000705
      dxy     :    -0.000114
      f0      :    -0.002077  f :    -0.001616
      f+1     :    -0.000341
      f-1     :    -0.000469
      f+2     :     0.000252
      f-2     :     0.001328
      f+3     :     0.000028
      f-3     :    -0.000338

  1 C s       :     0.000857  s :     0.000857
      pz      :     0.051188  p :     0.049554
      px      :    -0.001751
      py      :     0.000118
      dz2     :    -0.000456  d :     0.034930
      dxz     :     0.010226
      dyz     :     0.024437
      dx2y2   :     0.000142
      dxy     :     0.000581
      f0      :     0.000854  f :     0.019757
      f+1     :    -0.000192
      f-1     :    -0.000207
      f+2     :     0.007145
      f-2     :     0.011698
      f+3     :     0.000148
      f-3     :     0.000312

  2 C s       :    -0.000640  s :    -0.000640
      pz      :     0.006283  p :     0.001818
      px      :    -0.002963
      py      :    -0.001501
      dz2     :    -0.000093  d :     0.048145
      dxz     :     0.014962
      dyz     :     0.031695
      dx2y2   :     0.000760
      dxy     :     0.000822
      f0      :     0.002059  f :     0.026911
      f+1     :    -0.000106
      f-1     :    -0.000155
      f+2     :     0.013707
      f-2     :     0.010512
      f+3     :     0.000338
      f-3     :     0.000555

  3 C s       :     0.005731  s :     0.005731
      pz      :     0.199083  p :     0.206730
      px      :     0.003614
      py      :     0.004033
      dz2     :    -0.001612  d :    -0.004886
      dxz     :    -0.000198
      dyz     :    -0.001526
      dx2y2   :    -0.001061
      dxy     :    -0.000490
      f0      :    -0.002546  f :    -0.005059
      f+1     :    -0.000338
      f-1     :    -0.000520
      f+2     :    -0.000010
      f-2     :    -0.001000
      f+3     :    -0.000106
      f-3     :    -0.000539

  4 C s       :    -0.001423  s :    -0.001423
      pz      :    -0.012345  p :    -0.017447
      px      :    -0.003569
      py      :    -0.001532
      dz2     :     0.000082  d :     0.031451
      dxz     :     0.032578
      dyz     :    -0.002533
      dx2y2   :     0.000350
      dxy     :     0.000974
      f0      :     0.002171  f :     0.035729
      f+1     :    -0.000124
      f-1     :    -0.000013
      f+2     :     0.000550
      f-2     :     0.032348
      f+3     :     0.000018
      f-3     :     0.000780

  5 N s       :     0.002109  s :     0.002109
      pz      :     0.084460  p :     0.087352
      px      :     0.001878
      py      :     0.001015
      dz2     :    -0.000022  d :     0.002999
      dxz     :     0.004689
      dyz     :    -0.000647
      dx2y2   :    -0.000597
      dxy     :    -0.000424
      f0      :    -0.000895  f :    -0.002610
      f+1     :    -0.000104
      f-1     :    -0.000030
      f+2     :    -0.000161
      f-2     :    -0.001026
      f+3     :    -0.000294
      f-3     :    -0.000098

  6 C s       :    -0.000478  s :    -0.000478
      pz      :    -0.005554  p :    -0.007745
      px      :    -0.001422
      py      :    -0.000770
      dz2     :     0.000008  d :     0.020713
      dxz     :     0.004516
      dyz     :     0.015863
      dx2y2   :     0.000152
      dxy     :     0.000174
      f0      :     0.001084  f :     0.010520
      f+1     :    -0.000010
      f-1     :    -0.000071
      f+2     :     0.004579
      f-2     :     0.004462
      f+3     :     0.000157
      f-3     :     0.000319

  7 C s       :     0.000660  s :     0.000660
      pz      :     0.031475  p :     0.031441
      px      :    -0.000396
      py      :     0.000362
      dz2     :    -0.000262  d :     0.010666
      dxz     :     0.003067
      dyz     :     0.007726
      dx2y2   :    -0.000071
      dxy     :     0.000207
      f0      :    -0.000015  f :     0.005801
      f+1     :    -0.000097
      f-1     :    -0.000087
      f+2     :     0.001547
      f-2     :     0.004354
      f+3     :     0.000048
      f-3     :     0.000052

  8 C s       :     0.001661  s :     0.001661
      pz      :     0.060269  p :     0.062243
      px      :     0.000877
      py      :     0.001097
      dz2     :    -0.000523  d :     0.005153
      dxz     :     0.006946
      dyz     :    -0.000586
      dx2y2   :    -0.000553
      dxy     :    -0.000131
      f0      :    -0.000886  f :    -0.002172
      f+1     :    -0.000140
      f-1     :    -0.000164
      f+2     :    -0.000369
      f-2     :    -0.000312
      f+3     :    -0.000164
      f-3     :    -0.000136

  9 C s       :    -0.001379  s :    -0.001379
      pz      :    -0.020160  p :    -0.024885
      px      :    -0.003234
      py      :    -0.001491
      dz2     :     0.000106  d :     0.034427
      dxz     :     0.033339
      dyz     :    -0.000347
      dx2y2   :     0.000534
      dxy     :     0.000794
      f0      :     0.002119  f :     0.028416
      f+1     :    -0.000128
      f-1     :    -0.000028
      f+2     :     0.002052
      f-2     :     0.023840
      f+3     :    -0.000044
      f-3     :     0.000605

 10 H s       :    -0.001746  s :    -0.001746
      pz      :     0.005982  p :     0.006627
      px      :    -0.000046
      py      :     0.000691
      dz2     :    -0.000035  d :     0.006324
      dxz     :     0.000237
      dyz     :     0.005827
      dx2y2   :     0.000211
      dxy     :     0.000084

 11 H s       :    -0.000885  s :    -0.000885
      pz      :     0.003855  p :     0.004119
      px      :     0.000281
      py      :    -0.000018
      dz2     :    -0.000015  d :     0.003823
      dxz     :     0.004207
      dyz     :    -0.000454
      dx2y2   :     0.000026
      dxy     :     0.000060

 12 H s       :     0.000052  s :     0.000052
      pz      :    -0.000742  p :    -0.001092
      px      :    -0.000162
      py      :    -0.000188
      dz2     :    -0.000016  d :     0.000329
      dxz     :     0.001554
      dyz     :    -0.001016
      dx2y2   :    -0.000109
      dxy     :    -0.000085

 13 H s       :    -0.005570  s :    -0.005570
      pz      :     0.022199  p :     0.024593
      px      :     0.000077
      py      :     0.002317
      dz2     :    -0.000075  d :     0.021032
      dxz     :     0.000235
      dyz     :     0.019738
      dx2y2   :     0.000777
      dxy     :     0.000358

 14 H s       :    -0.000201  s :    -0.000201
      pz      :     0.000772  p :     0.000388
      px      :    -0.000054
      py      :    -0.000330
      dz2     :    -0.000025  d :     0.002192
      dxz     :     0.003936
      dyz     :    -0.001393
      dx2y2   :    -0.000242
      dxy     :    -0.000085

 15 H s       :    -0.001542  s :    -0.001542
      pz      :     0.006623  p :     0.006911
      px      :     0.000408
      py      :    -0.000120
      dz2     :    -0.000034  d :     0.006804
      dxz     :     0.007646
      dyz     :    -0.000826
      dx2y2   :    -0.000069
      dxy     :     0.000087

 16 H s       :    -0.004935  s :    -0.004935
      pz      :     0.020354  p :     0.022509
      px      :     0.000062
      py      :     0.002093
      dz2     :    -0.000069  d :     0.019513
      dxz     :     0.000213
      dyz     :     0.018374
      dx2y2   :     0.000714
      dxy     :     0.000281



                      *****************************
                      * MAYER POPULATION ANALYSIS *
                      *****************************

  NA   - Mulliken gross atomic population
  ZA   - Total nuclear charge
  QA   - Mulliken gross atomic charge
  VA   - Mayer's total valence
  BVA  - Mayer's bonded valence
  FA   - Mayer's free valence

  ATOM       NA         ZA         QA         VA         BVA        FA
  0 C      6.8072     6.0000    -0.8072     2.6560     2.5459     0.1101
  1 C      6.5084     6.0000    -0.5084     3.0838     3.0723     0.0115
  2 C      6.2780     6.0000    -0.2780     2.9930     2.9893     0.0037
  3 C      6.8457     6.0000    -0.8457     3.0448     2.9106     0.1342
  4 C      5.3968     6.0000     0.6032     1.9817     1.9792     0.0025
  5 N      7.6694     7.0000    -0.6694     2.1026     2.0856     0.0170
  6 C      6.4179     6.0000    -0.4179     3.2269     3.2256     0.0013
  7 C      6.3478     6.0000    -0.3478     2.8421     2.8384     0.0037
  8 C      6.8659     6.0000    -0.8659     3.0427     3.0292     0.0136
  9 C      4.6803     6.0000     1.3197     1.4169     1.4121     0.0048
 10 H      0.3948     1.0000     0.6052     0.4360     0.4360     0.0000
 11 H      0.6146     1.0000     0.3854     0.8347     0.8347     0.0000
 12 H      0.4356     1.0000     0.5644     0.4693     0.4693     0.0000
 13 H      0.3913     1.0000     0.6087     0.5076     0.5074     0.0002
 14 H      0.3929     1.0000     0.6071     0.5379     0.5379     0.0000
 15 H      0.2596     1.0000     0.7404     0.2525     0.2525     0.0000
 16 H      0.6937     1.0000     0.3063     1.0784     1.0783     0.0001

  Mayer bond orders larger than 0.100000
B(  0-C ,  1-C ) :   1.2475 B(  0-C ,  2-C ) :  -0.1750 B(  0-C ,  4-C ) :  -0.5318 
B(  0-C ,  8-C ) :   0.2109 B(  0-C ,  9-C ) :   0.6170 B(  0-C , 15-H ) :  -0.1295 
B(  0-C , 16-H ) :   1.0453 B(  1-C ,  2-C ) :   1.3005 B(  1-C ,  3-C ) :   0.1124 
B(  1-C , 15-H ) :   0.1639 B(  2-C ,  3-C ) :   1.3376 B(  2-C ,  4-C ) :  -0.1396 
B(  2-C ,  8-C ) :   0.1327 B(  2-C ,  9-C ) :  -0.1750 B(  2-C , 13-H ) :   0.1323 
B(  2-C , 14-H ) :   0.4277 B(  2-C , 15-H ) :   0.1101 B(  3-C ,  4-C ) :   0.8505 
B(  3-C ,  5-N ) :   0.2285 B(  3-C ,  9-C ) :   0.2414 B(  3-C , 13-H ) :   0.1806 
B(  4-C ,  5-N ) :   0.1261 B(  4-C ,  6-C ) :   0.2163 B(  4-C ,  8-C ) :   0.5725 
B(  4-C ,  9-C ) :   0.8298 B(  5-N ,  6-C ) :   1.6540 B(  6-C ,  7-C ) :   0.9621 
B(  6-C ,  8-C ) :   0.2318 B(  6-C ,  9-C ) :  -0.3487 B(  6-C , 12-H ) :   0.4907 
B(  7-C ,  8-C ) :   1.2825 B(  7-C ,  9-C ) :  -0.2914 B(  7-C , 11-H ) :   0.8352 
B(  8-C ,  9-C ) :   0.2107 B(  8-C , 10-H ) :   0.3785 B(  9-C , 10-H ) :   0.1860 


-------
TIMINGS
-------

Total SCF time: 0 days 0 hours 5 min 40 sec 

Total time                  ....     340.132 sec
Sum of individual times     ....     339.365 sec  ( 99.8%)

SCF preparation             ....       1.129 sec  (  0.3%)
Fock matrix formation       ....     322.787 sec  ( 94.9%)
  Startup                   ....       1.827 sec  (  0.6% of F)
  Split-RI-J                ....      16.240 sec  (  5.0% of F)
  Chain of spheres X        ....     215.740 sec  ( 66.8% of F)
  XC integration            ....      77.924 sec  ( 24.1% of F)
    XC Preparation          ....       0.000 sec  (  0.0% of XC)
    Basis function eval.    ....       7.956 sec  ( 10.2% of XC)
    Density eval.           ....      20.032 sec  ( 25.7% of XC)
    XC-Functional eval.     ....       0.600 sec  (  0.8% of XC)
    XC-Potential eval.      ....      43.587 sec  ( 55.9% of XC)
  CPCM terms                ....       6.569 sec  (  2.0% of F)
Diagonalization             ....       0.000 sec  (  0.0%)
Density matrix formation    ....       3.457 sec  (  1.0%)
Total Energy calculation    ....       1.689 sec  (  0.5%)
Population analysis         ....       0.353 sec  (  0.1%)
Orbital Transformation      ....       1.023 sec  (  0.3%)
Orbital Orthonormalization  ....       0.000 sec  (  0.0%)
DIIS solution               ....       5.518 sec  (  1.6%)
SOSCF solution              ....       3.408 sec  (  1.0%)
Finished LeanSCF after 340.4 sec

Maximum memory used throughout the entire LEANSCF-calculation: 101.8 MB


-------------------------------------------------------------------------------
                          DFT DISPERSION CORRECTION                            
                                                                               
                              DFTD3 V3.1  Rev 1                                
                          USING Becke-Johnson damping                          
-------------------------------------------------------------------------------
The PBE0 functional is recognized
Active option DFTDOPT                   ...         4   

molecular C6(AA) [au] = 3818.456193 


            DFT-D V3
 parameters
 s6 scaling factor         :     1.0000 
 a1 scaling factor         :     0.4145 
 s8 scaling factor         :     1.2177 
 a2 scaling factor         :     4.8593 
 ad hoc parameters k1-k3   :    16.0000     1.3333    -4.0000 

 Edisp/kcal,au: -10.888054918469  -0.017351218120 
 E6   /kcal   :  -6.713565169 
 E8   /kcal   :  -4.174489749 
 % E8         :  38.340087192 

-------------------------   ----------------
Dispersion correction           -0.017351218
-------------------------   ----------------


-------------------------   --------------------
FINAL SINGLE POINT ENERGY      -401.385315837734
-------------------------   --------------------



           ************************************************************
           *        Program running with 4 parallel MPI-processes     *
           *              working on a common directory               *
           ************************************************************

------------------------------------------------------------------------------
                              ORCA PROPERTY CALCULATIONS
------------------------------------------------------------------------------

GBWName                                 ... cs_rporg_102_ox_solv_04.gbw
Number of atoms                         ...     17
Number of basis functions               ...    681
Max core memory                         ...   3000 MB

Electric properties:
Dipole moment                           ... YES
Quadrupole moment                       ...  NO
Static polarizability (Dipole/Dipole)   ...  NO
Static polarizability (Dipole/Quad.)    ...  NO
Static polarizability (Quad./Quad.)     ...  NO
Static polarizability (Velocity)        ...  NO

Atomic electric properties:
Dipole moment                           ...  NO
Quadrupole moment                       ...  NO
Static polarizability                   ...  NO

Choice of electric origin               ... Center of mass
Position of electric origin             ...     0.000324     0.000761     0.000008

General magnetic properties:
Magnetizability                         ...  NO

EPR properties:
g-Tensor (aka g-matrix)                 ...  NO
Zero-Field splitting spin-orbit         ...  NO
Zero-field splitting spin-spin          ...  NO
Hyperfine couplings                     ...  NO (   0 nuclei)
Quadrupole couplings                    ...  NO (   0 nuclei)
Contact density                         ...  NO (   0 nuclei)

NMR properties:
Chemical shifts                         ...  NO (   0 nuclei)
Spin-rotation constants                 ...  NO (   0 nuclei)
Spin-spin couplings                     ...  NO (   0 nuclei,    0 pairs)

Choice of magnetic origin               ... GIAO
Position of magnetic origin             ...     0.000000     0.000000     0.000000

Properties with geometric perturbations:
SCF Hessian                             ...  NO
IR spectrum                             ...  NO
VCD spectrum                            ...  NO
X-ray spectroscopy properties:
SCF XES/XAS/RIXS spectra                ...  NO


-------------
DIPOLE MOMENT
-------------

Method             : SCF
Type of density    : Electron Density
Multiplicity       :   2
Irrep              :   0
Energy             :  -401.3679646196131898 Eh
Relativity type    : 
Basis              : AO
                                X                 Y                 Z
Electronic contribution:     -0.207791662       0.737877371      -0.000171577
Nuclear contribution   :      1.179405862      -2.142414994      -0.000006417
                        -----------------------------------------
Total Dipole Moment    :      0.971614200      -1.404537623      -0.000177995
                        -----------------------------------------
Magnitude (a.u.)       :      1.707852488
Magnitude (Debye)      :      4.341016038



--------------------
Rotational spectrum 
--------------------
 
Rotational constants in cm-1:             0.105894             0.041940             0.030042 
Rotational constants in MHz :          3174.630600          1257.322564           900.626549 

Dipole components along the rotational axes: 
x,y,z [a.u.] :     0.968178     1.406909    -0.000175 
x,y,z [Debye]:     2.460912     3.576078    -0.000446 

 

Dipole moment calculation done in   0.1 sec 

Maximum memory used throughout the entire PROP-calculation: 57.7 MB

--------------------------------
SUGGESTED CITATIONS FOR THIS RUN
--------------------------------

Below you find a list of papers that are relevant to this ORCA run
We neither can nor want to force you to cite these papers, but we appreciate if you do
You receive ORCA, which is the product of decades of hard work by many enthusiastic individuals, for free
The only thing we kindly ask in return is that you cite our papers,
We deeply appreciate it, if you show your appreciation for ORCA by not just citing the generic ORCA reference.

Please note that relegating all ORCA citations to the supporting information does *not* help us.
SI sections are not indexed - citations you put there will not count into any citation statistics
But we need these citations in order to attract the funding resources that allow us to do what we are doing

Therefore, if you are a happy ORCA user, please consider citing a few of the papers listed below in the main body of your paper

In addition to the list printed below, the program has created the file cs_rporg_102_ox_solv_04.bibtex that contains the list in bibtex format
You can import this file easily into all common literature databanks and citation aid programs


List of essential papers. We consider these as the minimum necessary citations

  1. Neese,F.
     Software update: the ORCA program system, version 5.0
     WIRES Comput. Molec. Sci., 2022 12(1)e1606
     doi.org/10.1002/wcms.1606

List of papers to cite with high priority. The work reported in these papers was absolutely
necessary for this run to complete.
Our perspective: the developers of density functionals and basis sets usually get cited in chemistry papers
Good! But without the algorithms to do something with them, the functionals or basis sets would not do anything.
Hence, in our opinion, the algorithm design and method developments papers are equally worthy of getting cited

  1. Neese,F.
     An improvement of the resolution of the identity approximation for the formation of the Coulomb matrix
     J. Comp. Chem., 2003 24(14)1740-1747
     doi.org/10.1002/jcc.10318
  2. Neese,F.; Wennmohs,F.; Hansen,A.; Becker,U.
     Efficient, approximate and parallel Hartree-Fock and hybrid DFT calculations. A 'chain-of-spheres' algorithm for the Hartree-Fock exchange
     Chem. Phys., 2009 356(1-3)98-109
     doi.org/10.1016/j.chemphys.2008.10.036
  3. Garcia-Rates,M.; Neese,F.
     Effect of the Solute Cavity on the Solvation Energy and its Derivatives within the Framework of the Gaussian Charge Scheme
     J. Comput. Chem., 2020 41 922-939
     doi.org/10.1002/jcc.26139
  4. Helmich-Paris,B.; de Souza,B.; Neese,F.; Izsák,R.
     An improved chain of spheres for exchange algorithm
     J. Chem. Phys., 2021 155 104109
     doi.org/doi: 10.1063/5.0058766.
  5. Neese,F.
     The SHARK Integral Generation and Digestion System
     J. Comp. Chem., 2022  1-16
     doi.org/10.1002/jcc.26942
  6. Grimme,S.; Antony,J.; Ehrlich,S.; Krieg,H.
     A consistent and accurate ab initio parametrization of density functional dispersion correction (DFT-D) for the 94 elements H-Pu
     J. Chem. Phys., 2010 132 154104-XXXX
     doi.org/10.1063/1.3382344
  7. Grimme,S.; Ehrlich,S.; Goerigk,L.
     Effect of the damping function in dispersion corrected density functional theory
     J. Comput. Chem., 2011 32(7)1456-1465
     doi.org/10.1002/jcc.21759

List of suggested additional citations. These are papers that are important in the 'surrounding' of 
of this run, or papers that preceded the highly important papers. If you like your results we are grateful for a citation.

  1. Izsak,R.; Neese,F.
     An overlap fitted chain of spheres exchange method
     J. Chem. Phys., 2011 135 144105
     doi.org/10.1063/1.3646921
  2. Izsak,R.; Hansen,A.; Neese,F.
     The resolution of identity and chain of spheres approximations for the LPNO-CCSD singles Fock term
     Molec. Phys., 2012 110 2413-2417
     doi.org/10.1080/00268976.2012.687466
  3. Neese,F.
     The ORCA program system
     WIRES Comput. Molec. Sci., 2012 2(1)73-78
     doi.org/10.1002/wcms.81
  4. Izsak,R.; Neese,F.; Klopper,W.
     Robust fitting techniques in the chain of spheres approximation to the Fock exchange: The role of the complementary space
     J. Chem. Phys., 2013 139 
     doi.org/10.1063/1.4819264
  5. Neese,F.
     Software update: the ORCA program system, version 4.0
     WIRES Comput. Molec. Sci., 2018 8(1)1-6
     doi.org/10.1002/wcms.1327
  6. Neese,F.; Wennmohs,F.; Becker,U.; Riplinger,C.
     The ORCA quantum chemistry program package
     J. Chem. Phys., 2020 152 Art. No. L224108
     doi.org/10.1063/5.0004608

List of optional additional citations

  1. Neese,F.
     Approximate second-order SCF convergence for spin unrestricted wavefunctions
     Chem. Phys. Lett., 2000 325(1-3)93-98
     doi.org/10.1016/s0009-2614(00)00662-x

Timings for individual modules:

Sum of individual times          ...      357.517 sec (=   5.959 min)
Startup calculation              ...        9.726 sec (=   0.162 min)   2.7 %
SCF iterations                   ...      346.013 sec (=   5.767 min)  96.8 %
Property calculations            ...        1.778 sec (=   0.030 min)   0.5 %
                             ****ORCA TERMINATED NORMALLY****
TOTAL RUN TIME: 0 days 0 hours 6 minutes 0 seconds 932 msec
